Protein in water
98266
    1DT5    H5T    1   5.024   4.319   1.541 -1.0112  0.2253  3.4321
    1DT5    O5'    2   5.087   4.249   1.561  0.0812  0.3322  0.7667
    1DT5    C5'    3   5.221   4.291   1.551 -1.3034  0.0071  0.1034
    1DT5   H5'1    4   5.234   4.344   1.457 -1.8793  1.9485  1.0724
    1DT5   H5'2    5   5.290   4.209   1.532  1.2372  2.0480  0.1152
    1DT5    C4'    6   5.270   4.376   1.665  0.0580  0.0721  0.3985
    1DT5    H4'    7   5.371   4.407   1.636  0.6757 -2.5623 -0.6102
    1DT5    O4'    8   5.186   4.486   1.681 -0.1888 -0.4053 -0.2304
    1DT5    C1'    9   5.188   4.524   1.820 -0.1273 -0.4033 -0.1676
    1DT5    H1'   10   5.282   4.575   1.836  0.6000 -1.4569 -0.8876
    1DT5     N1   11   5.078   4.622   1.846 -1.1358  0.0187  0.2426
    1DT5     C6   12   4.949   4.577   1.863  0.4609  0.3269 -0.2362
    1DT5     H6   13   4.929   4.471   1.864 -0.0506  0.4239 -0.0215
    1DT5     C5   14   4.846   4.667   1.884 -0.3510  0.2813 -0.0696
    1DT5     C7   15   4.698   4.618   1.894 -0.3853  0.5358 -0.1550
    1DT5    H71   16   4.664   4.635   1.996  0.6305  0.9490  0.1325
    1DT5    H72   17   4.630   4.668   1.825 -0.5882  0.9044  0.3030
    1DT5    H73   18   4.685   4.513   1.870 -0.5994  0.7944 -1.2270
    1DT5     C4   19   4.878   4.810   1.891 -0.2631  0.2538  0.2678
    1DT5     O4   20   4.801   4.905   1.904 -0.2117 -0.5979 -0.3124
    1DT5     N3   21   5.011   4.839   1.865 -0.1764 -0.6446  0.4345
    1DT5     H3   22   5.029   4.937   1.845 -0.5012 -1.1579 -2.8498
    1DT5     C2   23   5.116   4.759   1.842  0.0111 -0.3849  0.5710
    1DT5     O2   24   5.226   4.809   1.814  0.0716  0.0527  0.7208
    1DT5    C3'   25   5.272   4.297   1.797 -0.1092 -0.0812 -0.2225
    1DT5    H3'   26   5.210   4.208   1.783  2.0072 -1.8214  0.8825
    1DT5    C2'   27   5.193   4.389   1.894 -0.8313  0.3068  0.0700
    1DT5   H2'1   28   5.099   4.337   1.912  0.0677 -0.9750  1.1809
    1DT5   H2'2   29   5.251   4.412   1.983  2.4844  1.6809 -2.2305
    1DT5    O3'   30   5.405   4.246   1.816  0.1953 -0.1822  0.0021
    2DT       P   31   5.480   4.218   1.949  0.3565  0.3322 -0.1648
    2DT     O1P   32   5.609   4.160   1.907 -0.7815  0.5355  0.4753
    2DT     O2P   33   5.393   4.147   2.044 -0.5194 -0.0806  0.2070
    2DT     O5'   34   5.504   4.369   2.009  0.4790  0.1865  0.0755
    2DT     C5'   35   5.582   4.463   1.939 -0.0603 -0.5165 -0.4958
    2DT    H5'1   36   5.540   4.499   1.845 -0.1257  1.4975  0.2565
    2DT    H5'2   37   5.683   4.428   1.916  0.2221  0.1439 -0.2870
    2DT     C4'   38   5.587   4.595   2.021  0.7873  0.1151  0.1963
    2DT     H4'   39   5.650   4.670   1.972  0.5509 -0.5863 -1.2492
    2DT     O4'   40   5.455   4.649   2.028  0.4006 -0.2294  0.1531
    2DT     C1'   41   5.443   4.708   2.154  0.4199  0.3554  0.1923
    2DT     H1'   42   5.486   4.807   2.168  0.8252 -0.1409  3.0044
    2DT      N1   43   5.297   4.714   2.176 -0.6212 -0.0685 -0.6974
    2DT      C6   44   5.216   4.605   2.190  0.3292 -0.4764 -0.0087
    2DT      H6   45   5.258   4.506   2.182 -1.6041 -1.5083  1.6951
    2DT      C5   46   5.083   4.619   2.207 -0.5145  0.3634 -0.7043
    2DT      C7   47   5.002   4.493   2.215 -0.7042 -1.0066 -0.0719
    2DT     H71   48   4.948   4.487   2.310  1.0842 -2.9895  0.8862
    2DT     H72   49   4.937   4.504   2.128 -0.6716  0.9956  0.1137
    2DT     H73   50   5.059   4.402   2.202 -0.2096 -0.9783  1.7283
    2DT      C4   51   5.022   4.754   2.214 -0.1441  0.0787  0.2286
    2DT      O4   52   4.905   4.774   2.221 -0.1318  0.0881  0.1757
    2DT      N3   53   5.112   4.860   2.209 -0.0568  0.3105  0.0483
    2DT      H3   54   5.076   4.954   2.223  1.3815  0.7470  1.0409
    2DT      C2   55   5.250   4.845   2.192 -0.4123  0.2885 -0.3338
    2DT      O2   56   5.313   4.944   2.192  0.1501 -0.5795  0.4553
    2DT     C3'   57   5.644   4.581   2.163  0.4347 -0.2101 -0.0222
    2DT     H3'   58   5.664   4.477   2.187  1.4809  0.0320  0.2415
    2DT     C2'   59   5.524   4.620   2.244 -0.0382  0.1662  0.0807
    2DT    H2'1   60   5.472   4.527   2.267 -0.2547 -0.1415 -1.5375
    2DT    H2'2   61   5.561   4.666   2.336 -0.4019 -1.5007  1.1074
    2DT     O3'   62   5.755   4.657   2.186  0.2868  0.0621  0.1250
    3DT       P   63   5.829   4.696   2.326  0.4157  0.0973 -0.0137
    3DT     O1P   64   5.971   4.720   2.302  0.3667  0.2539 -0.0097
    3DT     O2P   65   5.791   4.603   2.432 -0.4964  0.5605 -0.3610
    3DT     O5'   66   5.762   4.834   2.364  0.1052  0.2306  1.2066
    3DT     C5'   67   5.783   4.951   2.283 -0.1867  0.4732 -0.5711
    3DT    H5'1   68   5.758   4.934   2.178  1.5298 -0.1801 -0.9124
    3DT    H5'2   69   5.890   4.963   2.270  0.2250 -2.0850 -0.0364
    3DT     C4'   70   5.725   5.083   2.344  0.3981  0.6010  0.4472
    3DT     H4'   71   5.747   5.167   2.278 -0.0155 -0.3545 -0.9499
    3DT     O4'   72   5.582   5.073   2.348 -0.3774  0.3780  0.1022
    3DT     C1'   73   5.539   5.064   2.485  0.1438 -0.3097  0.2055
    3DT     H1'   74   5.502   5.159   2.524 -0.9705  0.2286 -2.0249
    3DT      N1   75   5.418   4.969   2.506 -0.6021 -0.5544 -0.1872
    3DT      C6   76   5.445   4.832   2.527  0.1829  0.3038  0.0683
    3DT      H6   77   5.546   4.794   2.533  0.0605 -0.2178 -0.8461
    3DT      C5   78   5.333   4.753   2.539  0.2849  0.8108  0.2277
    3DT      C7   79   5.352   4.603   2.570  0.1332 -0.1745 -0.1457
    3DT     H71   80   5.295   4.583   2.661 -0.7481  0.7461 -0.4740
    3DT     H72   81   5.326   4.554   2.476  0.3575  0.5694 -0.6055
    3DT     H73   82   5.452   4.572   2.597  0.8008 -0.2161 -2.4542
    3DT      C4   83   5.194   4.802   2.527 -0.1632 -0.3489  0.2514
    3DT      O4   84   5.087   4.745   2.541  0.3885  0.0299  0.2132
    3DT      N3   85   5.181   4.939   2.504  0.3959  0.4884  0.0003
    3DT      H3   86   5.090   4.983   2.499 -0.4960 -1.4508 -3.0766
    3DT      C2   87   5.284   5.024   2.498  0.1421  0.3544 -0.5207
    3DT      O2   88   5.262   5.143   2.494  0.5577  0.6316 -0.5420
    3DT     C3'   89   5.778   5.093   2.485 -0.2718 -0.0215 -0.7610
    3DT     H3'   90   5.868   5.036   2.509 -0.2937  0.6964  1.2408
    3DT     C2'   91   5.662   5.049   2.572 -0.3652  0.2635 -0.1446
    3DT    H2'1   92   5.681   4.943   2.582  1.0105  0.4875 -0.2188
    3DT    H2'2   93   5.663   5.106   2.666 -2.2993  1.0903 -0.5613
    3DT     O3'   94   5.810   5.228   2.498  0.1547 -0.8816  0.4962
    4DT       P   95   5.869   5.295   2.627 -0.1963 -0.3655 -0.2339
    4DT     O1P   96   5.945   5.414   2.583 -0.1535  0.1639 -0.2393
    4DT     O2P   97   5.946   5.192   2.703 -0.4865 -0.5113 -0.4250
    4DT     O5'   98   5.743   5.339   2.717  0.7923 -0.4375 -0.1763
    4DT     C5'   99   5.672   5.454   2.660  0.5376 -0.4674 -0.4739
    4DT    H5'1  100   5.644   5.435   2.556 -1.9247  1.2497 -0.2071
    4DT    H5'2  101   5.730   5.546   2.658 -0.1446 -0.0381 -1.1377
    4DT     C4'  102   5.537   5.464   2.735 -1.0471  0.0425 -0.4416
    4DT     H4'  103   5.466   5.545   2.716 -2.6859 -1.2389 -0.0103
    4DT     O4'  104   5.473   5.333   2.716 -0.0350 -0.0355 -0.4547
    4DT     C1'  105   5.380   5.308   2.817 -0.1750  0.1812  0.1082
    4DT     H1'  106   5.293   5.373   2.808 -0.8764 -0.7689 -0.0603
    4DT      N1  107   5.336   5.168   2.828  0.1032  0.0523 -0.0339
    4DT      C6  108   5.436   5.078   2.855  0.3787 -0.5036 -0.0552
    4DT      H6  109   5.540   5.108   2.853  0.1115  1.0852  3.1521
    4DT      C5  110   5.412   4.948   2.885  0.4692  0.3883  0.4455
    4DT      C7  111   5.521   4.846   2.910 -1.2073 -0.4975  0.0091
    4DT     H71  112   5.618   4.887   2.881 -0.2052 -2.0146  1.0920
    4DT     H72  113   5.522   4.810   3.012  1.1839 -1.9050 -0.4278
    4DT     H73  114   5.505   4.760   2.844  1.2934 -0.8805 -0.1823
    4DT      C4  115   5.270   4.897   2.880 -0.4028 -0.5469 -0.4804
    4DT      O4  116   5.231   4.782   2.895 -0.2813 -0.0562 -0.2966
    4DT      N3  117   5.177   4.985   2.846  0.0563  0.1816 -0.0002
    4DT      H3  118   5.079   4.961   2.856 -0.2329  0.7955 -1.1460
    4DT      C2  119   5.201   5.122   2.833  0.1915  0.0716 -0.3095
    4DT      O2  120   5.103   5.192   2.808  0.1606 -0.4144 -0.0423
    4DT     C3'  121   5.568   5.468   2.890 -0.8882  0.5145  0.4807
    4DT     H3'  122   5.669   5.432   2.908 -0.9194  0.9992  1.7722
    4DT     C2'  123   5.454   5.374   2.941  0.2737  0.0012  0.1431
    4DT    H2'1  124   5.496   5.303   3.012 -1.1700 -1.5321 -0.4747
    4DT    H2'2  125   5.380   5.429   2.999 -2.1515 -2.0391 -0.8322
    4DT     O3'  126   5.568   5.603   2.931  0.0083  0.3211  0.1028
    5DT       P  127   5.562   5.660   3.084  0.0776 -0.0467 -0.3672
    5DT     O1P  128   5.601   5.806   3.077  0.1659  0.3163 -0.3233
    5DT     O2P  129   5.630   5.564   3.175  0.3745  0.6026 -0.4739
    5DT     O5'  130   5.408   5.659   3.116  0.1335 -0.0570 -0.2640
    5DT     C5'  131   5.321   5.733   3.028 -0.3134 -0.2885 -0.0233
    5DT    H5'1  132   5.326   5.682   2.932 -2.0098  0.5526 -0.5901
    5DT    H5'2  133   5.347   5.838   3.026  2.8510 -0.9913 -0.2264
    5DT     C4'  134   5.169   5.727   3.063 -0.2858  0.3700  0.1687
    5DT     H4'  135   5.108   5.784   2.993 -1.2875  1.8366  2.1615
    5DT     O4'  136   5.142   5.579   3.059 -0.0338 -0.7833 -0.6352
    5DT     C1'  137   5.068   5.548   3.170 -0.4009  0.7536  0.0320
    5DT     H1'  138   4.962   5.568   3.153 -1.0790 -2.6778 -0.5641
    5DT      N1  139   5.093   5.401   3.192  0.1192  0.4779  0.3728
    5DT      C6  140   5.221   5.358   3.211 -0.0757  0.4234  0.6224
    5DT      H6  141   5.295   5.436   3.221 -1.0551  1.3362  1.0734
    5DT      C5  142   5.243   5.223   3.206 -0.2929  0.1528  0.2743
    5DT      C7  143   5.382   5.171   3.214  1.1564  0.6163 -0.0849
    5DT     H71  144   5.383   5.090   3.287  0.6033 -2.0347 -2.7926
    5DT     H72  145   5.406   5.124   3.118  1.9736  3.1113 -1.2000
    5DT     H73  146   5.460   5.245   3.228  1.2752  0.8453 -1.7373
    5DT      C4  147   5.136   5.121   3.193  0.2881 -0.6955 -0.6294
    5DT      O4  148   5.156   4.997   3.178 -0.0073 -0.0159  0.2493
    5DT      N3  149   5.009   5.174   3.185 -0.2078  0.8960  0.4786
    5DT      H3  150   4.930   5.114   3.166 -1.6353  2.7811  0.0693
    5DT      C2  151   4.985   5.311   3.179 -0.6668  0.1147  0.5470
    5DT      O2  152   4.877   5.355   3.140  0.2820 -0.0478 -0.0314
    5DT     C3'  153   5.138   5.772   3.201  0.2638  0.8953  0.3040
    5DT     H3'  154   5.224   5.826   3.238  1.6507 -2.1870  1.9398
    5DT     C2'  155   5.118   5.640   3.279 -0.6604  0.4029  0.2912
    5DT    H2'1  156   5.216   5.607   3.313 -1.6367 -1.7744  1.1521
    5DT    H2'2  157   5.043   5.639   3.358 -0.5194 -1.2652  0.4334
    5DT     O3'  158   5.036   5.856   3.194 -0.1488 -0.3638  0.4189
    6DT       P  159   4.974   5.934   3.320 -0.1208  0.0599 -0.1919
    6DT     O1P  160   4.896   6.049   3.275 -0.3731  0.6558 -0.0998
    6DT     O2P  161   5.086   5.958   3.413  0.3571  0.0166  0.6282
    6DT     O5'  162   4.880   5.822   3.371 -0.0024  0.6042 -0.2866
    6DT     C5'  163   4.758   5.787   3.312  1.2397  0.0856 -0.2251
    6DT    H5'1  164   4.759   5.762   3.206 -3.2019  0.5694 -0.5713
    6DT    H5'2  165   4.694   5.874   3.328 -1.3981 -1.9329  0.9519
    6DT     C4'  166   4.707   5.666   3.388  0.1937  0.0223  0.4766
    6DT     H4'  167   4.608   5.641   3.349 -1.4318  0.5039  3.9196
    6DT     O4'  168   4.799   5.554   3.384  0.1519 -0.4156  0.7689
    6DT     C1'  169   4.776   5.486   3.501 -0.8714  0.3997  0.4313
    6DT     H1'  170   4.679   5.440   3.482  0.2285 -1.3824 -1.2427
    6DT      N1  171   4.884   5.390   3.523 -0.4525 -0.1417 -0.1752
    6DT      C6  172   5.014   5.434   3.535  0.3673 -0.3283 -0.0504
    6DT      H6  173   5.038   5.540   3.534 -1.5233  0.1401 -0.6933
    6DT      C5  174   5.125   5.355   3.557  0.2650 -0.4413 -0.2583
    6DT      C7  175   5.264   5.416   3.563 -0.4923 -0.7368  0.0473
    6DT     H71  176   5.250   5.524   3.577  0.7123 -0.4801 -0.5599
    6DT     H72  177   5.310   5.366   3.647 -0.7731 -3.0391 -1.1048
    6DT     H73  178   5.317   5.391   3.471 -0.4713 -2.7855  0.5858
    6DT      C4  179   5.103   5.210   3.558  0.2821 -0.0441 -0.2137
    6DT      O4  180   5.191   5.127   3.552 -0.3089  0.2268  0.0934
    6DT      N3  181   4.967   5.174   3.549 -0.7607  0.0407  0.1719
    6DT      H3  182   4.950   5.074   3.554 -2.1180  0.3180  2.9974
    6DT      C2  183   4.859   5.255   3.528  0.8240  0.2645  0.0950
    6DT      O2  184   4.744   5.210   3.515  0.0786 -0.0688  0.3991
    6DT     C3'  185   4.684   5.700   3.535 -0.3981  0.6993 -0.0054
    6DT     H3'  186   4.718   5.800   3.560 -1.4872  0.6944  1.6625
    6DT     C2'  187   4.762   5.590   3.611 -0.6374 -0.1778  0.0459
    6DT    H2'1  188   4.853   5.633   3.653 -1.7616  1.6837  0.7126
    6DT    H2'2  189   4.706   5.543   3.692 -0.2272  0.2512  0.5825
    6DT     O3'  190   4.547   5.690   3.555  0.4011  0.0497 -0.3831
    7DT       P  191   4.472   5.707   3.694  0.3246  0.1066 -0.2994
    7DT     O1P  192   4.330   5.752   3.672  0.4480 -0.2945 -0.1072
    7DT     O2P  193   4.562   5.783   3.788 -0.2347  0.1790 -0.1860
    7DT     O5'  194   4.449   5.556   3.733 -0.3489  0.0394  0.1774
    7DT     C5'  195   4.381   5.463   3.646 -0.3742 -0.3657  0.1795
    7DT    H5'1  196   4.433   5.451   3.551  2.0044  1.0549  1.2219
    7DT    H5'2  197   4.281   5.500   3.622 -0.8215 -1.7269 -0.1320
    7DT     C4'  198   4.364   5.324   3.710  0.7899  0.1407  0.4556
    7DT     H4'  199   4.294   5.261   3.655 -1.5993  1.0518  2.2723
    7DT     O4'  200   4.496   5.268   3.713 -0.1359 -0.4739 -0.5424
    7DT     C1'  201   4.524   5.218   3.846  0.1450  0.6302  0.1813
    7DT     H1'  202   4.491   5.115   3.840  3.8386 -0.6162 -1.3639
    7DT      N1  203   4.669   5.209   3.873 -0.1450 -0.0793  0.7184
    7DT      C6  204   4.745   5.327   3.889 -0.0544  1.3228 -0.0725
    7DT      H6  205   4.698   5.424   3.899  1.5831  1.9649  2.4821
    7DT      C5  206   4.878   5.316   3.895 -0.9130 -0.1303 -0.2603
    7DT      C7  207   4.957   5.443   3.916 -0.4585 -0.1728  0.2147
    7DT     H71  208   5.012   5.433   4.009  0.4970  0.4819 -0.2592
    7DT     H72  209   5.035   5.442   3.840 -0.0809 -4.1015  0.4975
    7DT     H73  210   4.896   5.533   3.908 -3.1998 -2.0350 -1.3865
    7DT      C4  211   4.948   5.190   3.890  0.9169  0.9309  0.4168
    7DT      O4  212   5.071   5.164   3.902  0.1931  0.1162 -0.3793
    7DT      N3  213   4.866   5.082   3.853 -0.4378 -0.0471  0.2514
    7DT      H3  214   4.911   4.992   3.842  1.0461  0.9468 -3.1567
    7DT      C2  215   4.735   5.088   3.837  0.1625  0.0969 -0.2354
    7DT      O2  216   4.675   4.988   3.807 -0.8122  0.4556  0.3643
    7DT     C3'  217   4.311   5.337   3.854 -0.2680 -0.1667 -0.4048
    7DT     H3'  218   4.296   5.444   3.868  0.3844  0.0712 -1.4081
    7DT     C2'  219   4.430   5.284   3.940 -0.7331 -0.1592 -0.0422
    7DT    H2'1  220   4.482   5.375   3.970 -2.2680  1.2225 -1.3858
    7DT    H2'2  221   4.404   5.226   4.029 -4.1273 -1.3886 -1.6354
    7DT     O3'  222   4.192   5.263   3.861 -0.2976  0.0212  0.0606
    8DT       P  223   4.105   5.259   3.995 -0.1300 -0.2365 -0.1550
    8DT     O1P  224   3.966   5.237   3.957 -0.6738  0.1243  0.4399
    8DT     O2P  225   4.141   5.355   4.105 -0.3819  0.8008  0.1576
    8DT     O5'  226   4.152   5.118   4.055  0.5366 -0.3105 -0.1266
    8DT     C5'  227   4.172   5.005   3.975  0.3194  0.5101 -0.6039
    8DT    H5'1  228   4.194   5.026   3.871 -2.3265  0.2471 -1.2933
    8DT    H5'2  229   4.070   4.968   3.966 -0.2129  1.8702 -0.4469
    8DT     C4'  230   4.266   4.903   4.039  0.3949 -0.4275  0.2818
    8DT     H4'  231   4.244   4.809   3.989 -4.0912  0.0937  0.9410
    8DT     O4'  232   4.399   4.948   4.035  0.2547  0.1397  0.2378
    8DT     C1'  233   4.463   4.891   4.151  0.2421 -0.0957  0.0228
    8DT     H1'  234   4.473   4.784   4.133 -1.1504 -0.4333  1.1354
    8DT      N1  235   4.598   4.959   4.180 -0.0709  0.0851  0.0624
    8DT      C6  236   4.600   5.087   4.224 -0.5738 -0.2343 -0.1277
    8DT      H6  237   4.510   5.140   4.252  0.6847  1.4072  0.9969
    8DT      C5  238   4.718   5.155   4.233 -0.6277 -0.1571  0.9935
    8DT      C7  239   4.715   5.305   4.272 -0.0887 -0.0596 -0.1596
    8DT     H71  240   4.715   5.371   4.185 -2.7313  1.5307  0.9359
    8DT     H72  241   4.640   5.329   4.347  0.3227  0.4318  0.1070
    8DT     H73  242   4.804   5.325   4.331  0.8143 -2.4558 -0.6034
    8DT      C4  243   4.843   5.093   4.186 -0.2980  0.6386 -0.0130
    8DT      O4  244   4.956   5.143   4.188 -0.2739  0.0816  0.4814
    8DT      N3  245   4.833   4.957   4.147 -0.0735  0.6925  0.0992
    8DT      H3  246   4.916   4.905   4.124 -0.8372 -0.1181 -0.9360
    8DT      C2  247   4.715   4.886   4.155  0.0510 -0.3731  0.8490
    8DT      O2  248   4.725   4.767   4.143 -0.2013 -1.3023  0.0974
    8DT     C3'  249   4.224   4.888   4.186  0.1700 -0.3137  0.6627
    8DT     H3'  250   4.139   4.951   4.213 -1.0042 -1.5804  0.0393
    8DT     C2'  251   4.352   4.916   4.258 -0.3844 -0.2863  0.5716
    8DT    H2'1  252   4.353   5.019   4.292  1.9011 -0.9697  2.8839
    8DT    H2'2  253   4.361   4.858   4.350 -1.6089 -1.0179  0.2675
    8DT     O3'  254   4.185   4.756   4.201 -0.0998 -0.5002 -0.2291
    9DT       P  255   4.116   4.705   4.338 -0.1257 -0.3302  0.0161
    9DT     O1P  256   4.018   4.599   4.320  0.2571 -0.0109  0.7109
    9DT     O2P  257   4.093   4.816   4.431 -0.5241 -0.2058  0.7994
    9DT     O5'  258   4.248   4.643   4.387 -0.0242  0.4466 -0.3559
    9DT     C5'  259   4.303   4.523   4.323 -0.2313  0.1913 -0.3202
    9DT    H5'1  260   4.324   4.537   4.217 -0.2433 -3.0127 -0.8271
    9DT    H5'2  261   4.226   4.446   4.332  0.1342 -0.0691  0.5888
    9DT     C4'  262   4.430   4.480   4.388 -0.1811  0.8087  0.1285
    9DT     H4'  263   4.464   4.391   4.335 -1.9383  0.7006 -0.9153
    9DT     O4'  264   4.529   4.584   4.378  0.2798 -0.1438 -0.5645
    9DT     C1'  265   4.591   4.590   4.510  0.7235 -0.0338  0.3430
    9DT     H1'  266   4.667   4.511   4.515  0.0056 -1.0701 -2.8465
    9DT      N1  267   4.646   4.729   4.520 -0.5126  1.1393 -0.2329
    9DT      C6  268   4.566   4.836   4.546 -0.4580 -0.5515 -0.6895
    9DT      H6  269   4.460   4.819   4.546 -0.4682 -1.2863  2.9860
    9DT      C5  270   4.615   4.959   4.549 -0.4376  0.4801  0.4325
    9DT      C7  271   4.524   5.078   4.566  0.0805 -0.0398  0.6568
    9DT     H71  272   4.480   5.093   4.467  1.8583 -0.7831 -0.2985
    9DT     H72  273   4.445   5.061   4.639 -1.6152  0.3390 -0.9976
    9DT     H73  274   4.587   5.163   4.593  0.1636 -0.5193  2.0511
    9DT      C4  275   4.763   4.984   4.534  0.7194 -0.3590  0.6428
    9DT      O4  276   4.821   5.093   4.535 -0.6557 -0.1290  0.3067
    9DT      N3  277   4.833   4.867   4.530  0.0529 -0.5884  0.0202
    9DT      H3  278   4.933   4.880   4.540  0.1294 -2.5740  2.6565
    9DT      C2  279   4.785   4.744   4.514 -0.3465  0.3174  0.2785
    9DT      O2  280   4.866   4.651   4.501 -0.2726  0.6691  0.6025
    9DT     C3'  281   4.407   4.440   4.538  0.2886 -0.0442 -0.0446
    9DT     H3'  282   4.303   4.451   4.569  0.2964  1.4016 -0.4522
    9DT     C2'  283   4.484   4.549   4.607 -0.2425  0.1352 -0.8510
    9DT    H2'1  284   4.420   4.635   4.628  1.7072  1.5404 -0.3121
    9DT    H2'2  285   4.526   4.515   4.702  0.2990  0.7092 -0.8792
    9DT     O3'  286   4.445   4.303   4.563  0.3149 -0.1938  0.0932
   10DT       P  287   4.451   4.240   4.703  0.3959 -0.0951  0.3500
   10DT     O1P  288   4.441   4.095   4.683 -0.1156  0.0719 -0.1762
   10DT     O2P  289   4.360   4.317   4.795 -0.0334  0.0484  0.3648
   10DT     O5'  290   4.602   4.279   4.731  0.7070 -0.2609 -0.9812
   10DT     C5'  291   4.720   4.245   4.655  0.6791  0.3750 -0.0257
   10DT    H5'1  292   4.718   4.265   4.548 -2.6416 -1.3419 -0.4238
   10DT    H5'2  293   4.737   4.137   4.659  1.9216  0.5651  0.1599
   10DT     C4'  294   4.852   4.297   4.711 -0.1769 -0.3322 -0.5211
   10DT     H4'  295   4.929   4.244   4.654 -0.8417 -1.8373 -0.0726
   10DT     O4'  296   4.870   4.436   4.705  0.2767 -0.0776 -0.1845
   10DT     C1'  297   4.933   4.476   4.824  0.1349  0.0720  0.0302
   10DT     H1'  298   5.040   4.457   4.824 -0.0129 -0.7785 -0.0642
   10DT      N1  299   4.892   4.618   4.829 -0.2533 -0.0643 -0.5213
   10DT      C6  300   4.764   4.661   4.850  0.9945  0.1019 -0.0372
   10DT      H6  301   4.684   4.588   4.849  2.9046 -2.1104  1.3457
   10DT      C5  302   4.736   4.795   4.865 -0.5858  0.4341 -0.0180
   10DT      C7  303   4.596   4.843   4.889 -0.4287 -0.8410  1.0028
   10DT     H71  304   4.602   4.912   4.974  0.4971  1.0819 -0.5232
   10DT     H72  305   4.561   4.904   4.805  0.6158 -1.5677  0.0080
   10DT     H73  306   4.525   4.762   4.904 -1.9850  0.2472 -0.1042
   10DT      C4  307   4.844   4.894   4.866  0.4023  0.6145  0.6246
   10DT      O4  308   4.832   5.018   4.871 -0.2280  0.5553  0.1969
   10DT      N3  309   4.963   4.839   4.835  0.3718 -0.6896 -0.5153
   10DT      H3  310   5.038   4.905   4.832 -0.4446  0.2288 -1.8515
   10DT      C2  311   4.994   4.708   4.829 -0.4594  0.2246  0.4995
   10DT      O2  312   5.114   4.682   4.834  0.1209  0.3166  0.7391
   10DT     C3'  313   4.854   4.248   4.860  0.2605  0.0376  0.8458
   10DT     H3'  314   4.754   4.217   4.892 -0.8180  0.6377 -1.7126
   10DT     C2'  315   4.874   4.383   4.929  0.7846 -0.1329  0.3959
   10DT    H2'1  316   4.780   4.423   4.970  1.5491  1.6697  0.5029
   10DT    H2'2  317   4.950   4.367   5.004  0.0977 -1.9323  0.7636
   10DT     O3'  318   4.954   4.147   4.869 -0.1126  0.3632 -0.4795
   11DT       P  319   4.995   4.091   5.019 -0.5321 -0.5540 -0.0225
   11DT     O1P  320   5.056   3.955   5.011  0.6328 -0.4662  0.4452
   11DT     O2P  321   4.875   4.108   5.107 -0.0236  0.0818 -0.1284
   11DT     O5'  322   5.111   4.187   5.065  0.3119 -0.4799 -0.5063
   11DT     C5'  323   5.230   4.207   4.990 -0.2032  0.1756  0.2090
   11DT    H5'1  324   5.205   4.230   4.886  1.0308  1.1299  0.0992
   11DT    H5'2  325   5.294   4.119   4.999  1.1133  1.1220  0.3115
   11DT     C4'  326   5.308   4.321   5.057  0.5049  0.1331  0.0333
   11DT     H4'  327   5.401   4.325   5.001  0.0888  0.5890 -0.6476
   11DT     O4'  328   5.253   4.454   5.037 -0.2711 -0.5995 -0.8552
   11DT     C1'  329   5.257   4.518   5.164  0.2116 -0.8428 -0.2916
   11DT     H1'  330   5.350   4.575   5.167 -0.0101 -0.5011  0.9733
   11DT      N1  331   5.131   4.608   5.174 -0.0644 -0.6296  0.2853
   11DT      C6  332   5.012   4.549   5.206 -0.4012 -0.2568 -0.1229
   11DT      H6  333   5.009   4.442   5.221  0.4641 -0.1705  0.7459
   11DT      C5  334   4.901   4.626   5.219  0.1200  0.6150 -0.3120
   11DT      C7  335   4.768   4.565   5.248  0.3838 -0.2841  0.2739
   11DT     H71  336   4.764   4.459   5.226  0.0576  0.2547 -2.5600
   11DT     H72  337   4.732   4.595   5.347  1.4440  0.5044  0.4468
   11DT     H73  338   4.688   4.606   5.187  1.2638  0.2976 -0.5127
   11DT      C4  339   4.907   4.773   5.198 -0.5238  0.1278 -0.2604
   11DT      O4  340   4.814   4.855   5.201 -0.0176  0.1265 -0.3420
   11DT      N3  341   5.032   4.825   5.182 -0.4543 -0.0401  0.1189
   11DT      H3  342   5.046   4.923   5.204 -2.1144  0.0186  1.0614
   11DT      C2  343   5.142   4.748   5.167  0.0459  0.0499 -0.0669
   11DT      O2  344   5.252   4.808   5.160 -0.0552  0.3562  0.2319
   11DT     C3'  345   5.330   4.287   5.205 -0.9155  0.1700 -0.0218
   11DT     H3'  346   5.280   4.196   5.238 -0.1903 -0.6637 -1.1120
   11DT     C2'  347   5.285   4.412   5.275  0.2962 -0.1080  0.3852
   11DT    H2'1  348   5.196   4.384   5.331  1.2180 -2.0341  0.9776
   11DT    H2'2  349   5.363   4.447   5.343  3.0170 -2.3149 -1.3895
   11DT     O3'  350   5.470   4.251   5.220 -0.2237 -0.3155 -0.0833
   12DT       P  351   5.536   4.232   5.369  0.0632  0.0228  0.5646
   12DT     O1P  352   5.652   4.148   5.346 -0.5116  0.3266 -1.0467
   12DT     O2P  353   5.423   4.192   5.462 -0.0143 -0.2453  0.5814
   12DT     O5'  354   5.579   4.376   5.404 -0.0168  0.1640  0.0128
   12DT     C5'  355   5.657   4.453   5.317  0.9716 -0.2262  0.3816
   12DT    H5'1  356   5.608   4.459   5.220  1.0350  0.5255  0.3947
   12DT    H5'2  357   5.760   4.419   5.321  1.9509  2.5404  0.7590
   12DT     C4'  358   5.644   4.606   5.349  0.1546 -0.6160  0.3414
   12DT     H4'  359   5.705   4.661   5.278 -1.5410 -0.2173 -0.8686
   12DT     O4'  360   5.505   4.647   5.362 -0.1381  0.2909  0.5534
   12DT     C1'  361   5.498   4.732   5.476 -0.1687  0.2322 -0.4376
   12DT     H1'  362   5.534   4.834   5.464 -0.2592  0.4118  0.7495
   12DT      N1  363   5.346   4.744   5.504 -0.3851  0.5482 -0.7911
   12DT      C6  364   5.265   4.630   5.527  0.1518  0.0342  0.7950
   12DT      H6  365   5.305   4.531   5.539 -1.3126 -0.5696  0.9419
   12DT      C5  366   5.133   4.642   5.535  1.2428 -0.3334  0.3198
   12DT      C7  367   5.054   4.521   5.562  0.3059  0.5584  0.1588
   12DT     H71  368   4.997   4.481   5.478 -0.8595 -0.0750  1.2253
   12DT     H72  369   5.114   4.436   5.595 -0.1407 -0.3114 -1.1544
   12DT     H73  370   4.994   4.544   5.650  0.4268  1.3506  0.0392
   12DT      C4  371   5.068   4.775   5.543  0.9352  0.2998 -0.1196
   12DT      O4  372   4.947   4.799   5.561 -0.3282  0.0585 -0.0024
   12DT      N3  373   5.154   4.880   5.522 -0.3261 -0.0801  0.2338
   12DT      H3  374   5.110   4.970   5.510 -0.5366 -0.5005 -3.3868
   12DT      C2  375   5.288   4.873   5.497 -0.3611 -0.1866  0.3400
   12DT      O2  376   5.350   4.981   5.472  0.0267 -0.1534  0.1712
   12DT     C3'  377   5.707   4.618   5.490  0.5355 -0.1559  0.3389
   12DT     H3'  378   5.739   4.519   5.523 -0.6085 -0.7114 -0.1756
   12DT     C2'  379   5.588   4.668   5.581 -0.3164 -0.3336 -0.4365
   12DT    H2'1  380   5.541   4.591   5.642  0.5305 -0.6787 -0.2077
   12DT    H2'2  381   5.623   4.744   5.651  0.6219 -1.3292  0.2081
   12DT     O3'  382   5.819   4.698   5.488  0.0176 -0.1606  0.4793
   13DT       P  383   5.907   4.733   5.616 -0.0258 -0.0398  0.1229
   13DT     O1P  384   6.031   4.801   5.565 -0.1696 -0.0208  0.1543
   13DT     O2P  385   5.919   4.618   5.700 -0.7912  0.3891 -0.0102
   13DT     O5'  386   5.819   4.839   5.697 -0.1341  0.3423  0.0300
   13DT     C5'  387   5.794   4.965   5.639 -0.0469  0.8663 -0.3967
   13DT    H5'1  388   5.783   4.953   5.532 -1.7432 -2.5223  0.0241
   13DT    H5'2  389   5.884   5.019   5.670  0.9521 -1.6883  1.4757
   13DT     C4'  390   5.677   5.045   5.692 -0.2423  0.2042  0.5289
   13DT     H4'  391   5.682   5.139   5.638  3.5574 -1.5098 -2.6105
   13DT     O4'  392   5.552   4.985   5.689  0.0192  0.1510  0.8088
   13DT     C1'  393   5.472   5.054   5.784 -0.3397  0.1866 -0.0600
   13DT     H1'  394   5.447   5.156   5.756  0.5297  1.0500  2.1230
   13DT      N1  395   5.352   4.965   5.826 -0.5481 -0.0637 -0.2960
   13DT      C6  396   5.360   4.826   5.854 -0.1068  0.0697 -0.1311
   13DT      H6  397   5.459   4.782   5.859  0.7004  1.4972 -2.1763
   13DT      C5  398   5.250   4.752   5.873  0.3454 -0.2797  0.3717
   13DT      C7  399   5.264   4.606   5.907 -0.2052  0.5336  0.6730
   13DT     H71  400   5.205   4.545   5.838  1.8803  1.0742 -1.7806
   13DT     H72  401   5.370   4.582   5.894 -0.3387 -0.7292  1.7352
   13DT     H73  402   5.241   4.586   6.011 -2.4761 -1.3657 -0.1010
   13DT      C4  403   5.118   4.816   5.874  0.8863  0.2866 -0.7186
   13DT      O4  404   5.011   4.759   5.901  0.0891  0.2479 -0.1503
   13DT      N3  405   5.121   4.953   5.854 -0.8120 -0.1452  0.2999
   13DT      H3  406   5.038   5.006   5.877  0.4713  2.3511 -0.5390
   13DT      C2  407   5.230   5.032   5.837  0.0193 -0.4336 -0.0975
   13DT      O2  408   5.216   5.157   5.839 -0.0526  0.1086 -0.2386
   13DT     C3'  409   5.712   5.063   5.836  0.3139 -0.4814  0.3202
   13DT     H3'  410   5.765   4.975   5.872 -0.3711 -1.3158 -0.6389
   13DT     C2'  411   5.568   5.066   5.900  0.4616  0.1399  0.4150
   13DT    H2'1  412   5.543   4.985   5.970 -1.0937 -0.1779 -0.4585
   13DT    H2'2  413   5.556   5.159   5.955  1.3096  0.6138 -0.1766
   13DT     O3'  414   5.805   5.171   5.851 -0.0134  0.8705  0.9424
   14DT       P  415   5.841   5.240   5.985 -0.4262  0.1865 -0.0681
   14DT     O1P  416   5.947   5.342   5.960 -0.1076 -0.1561 -0.1735
   14DT     O2P  417   5.877   5.127   6.079 -0.3464 -0.3101 -0.0754
   14DT     O5'  418   5.709   5.315   6.041 -0.8163  0.2365 -0.2026
   14DT     C5'  419   5.655   5.430   5.974 -0.1260 -0.0997  0.5313
   14DT    H5'1  420   5.628   5.398   5.874 -0.5445 -0.2710  0.6980
   14DT    H5'2  421   5.728   5.510   5.960 -0.4908  0.2000  0.3465
   14DT     C4'  422   5.533   5.484   6.046  0.2406 -0.3395  0.3111
   14DT     H4'  423   5.500   5.575   5.996  2.1927  0.3887  0.2818
   14DT     O4'  424   5.431   5.387   6.032 -0.2139 -0.3210 -0.3898
   14DT     C1'  425   5.376   5.369   6.163 -0.1562 -0.2196 -0.7492
   14DT     H1'  426   5.296   5.441   6.171 -0.0078  0.3059 -3.3828
   14DT      N1  427   5.323   5.231   6.182 -0.3166  0.3106  0.0698
   14DT      C6  428   5.398   5.111   6.206  0.9086 -0.6891 -0.4107
   14DT      H6  429   5.506   5.114   6.213  0.9847  1.4130 -1.5627
   14DT      C5  430   5.339   4.994   6.214  0.1723  0.5222 -0.1748
   14DT      C7  431   5.420   4.864   6.240  0.0307  0.5165 -0.5228
   14DT     H71  432   5.528   4.875   6.233  0.2585 -0.8387  0.4718
   14DT     H72  433   5.398   4.828   6.340 -0.1184 -2.4931 -1.5404
   14DT     H73  434   5.387   4.784   6.173 -0.8914  1.3796 -1.1287
   14DT      C4  435   5.196   4.980   6.199  0.5049  0.0604  0.0564
   14DT      O4  436   5.136   4.874   6.204 -0.0256 -0.1875 -0.6442
   14DT      N3  437   5.121   5.098   6.181 -0.8032  0.1782  0.8335
   14DT      H3  438   5.021   5.083   6.189 -0.5212 -1.3541  1.9483
   14DT      C2  439   5.180   5.224   6.181  0.2235 -0.1249 -0.3027
   14DT      O2  440   5.102   5.323   6.181 -0.0029 -0.1167  0.1738
   14DT     C3'  441   5.560   5.517   6.195  0.3539  0.4561  0.0122
   14DT     H3'  442   5.664   5.498   6.220  0.3539 -1.7036 -1.3968
   14DT     C2'  443   5.485   5.405   6.263 -1.1397  0.2721  0.3885
   14DT    H2'1  444   5.555   5.322   6.274  0.3644  1.2822 -1.1527
   14DT    H2'2  445   5.444   5.444   6.356  1.2149  1.5154  0.9745
   14DT     O3'  446   5.520   5.657   6.214 -0.0680  0.9622 -0.5223
   15DT       P  447   5.494   5.708   6.360 -0.2214 -0.1946  0.1311
   15DT     O1P  448   5.487   5.855   6.361  0.2264 -0.0456 -0.7698
   15DT     O2P  449   5.586   5.639   6.448 -0.3207 -0.2500 -0.0017
   15DT     O5'  450   5.344   5.656   6.385  0.1465 -0.7280 -0.1140
   15DT     C5'  451   5.248   5.698   6.296 -0.6117 -0.3150 -0.4926
   15DT    H5'1  452   5.253   5.633   6.209 -0.7238  0.1841 -0.8785
   15DT    H5'2  453   5.260   5.804   6.272  0.3852 -0.2333  0.3201
   15DT     C4'  454   5.109   5.684   6.351 -0.0373  0.1942 -0.1956
   15DT     H4'  455   5.033   5.735   6.291 -2.4823 -0.4846  2.1252
   15DT     O4'  456   5.082   5.546   6.355  0.1302 -0.1675  0.0732
   15DT     C1'  457   5.035   5.505   6.482 -0.1072 -0.5923 -0.0269
   15DT     H1'  458   4.927   5.492   6.491 -0.0878  0.3064  2.2144
   15DT      N1  459   5.095   5.373   6.503  0.5343 -0.5328  0.1035
   15DT      C6  460   5.225   5.357   6.527 -0.1003 -0.0496 -0.2919
   15DT      H6  461   5.292   5.441   6.522  1.2297 -1.1080 -0.9000
   15DT      C5  462   5.283   5.236   6.548 -0.0859 -0.7337  0.3616
   15DT      C7  463   5.430   5.224   6.586  0.9737 -0.0966  0.1798
   15DT     H71  464   5.467   5.326   6.598 -0.2979  0.2704  1.1365
   15DT     H72  465   5.440   5.168   6.680 -2.4585 -1.0071  0.1463
   15DT     H73  466   5.481   5.169   6.507  0.5112  0.5569 -0.5785
   15DT      C4  467   5.200   5.116   6.542 -0.3870  0.1134 -0.6125
   15DT      O4  468   5.235   5.001   6.550 -0.0628  0.7561 -0.3825
   15DT      N3  469   5.073   5.135   6.506 -0.2995  0.3462  0.6149
   15DT      H3  470   5.012   5.056   6.493 -0.8972  0.7167  1.1014
   15DT      C2  471   5.009   5.260   6.503  0.0364  0.1109  0.3663
   15DT      O2  472   4.887   5.264   6.487 -0.0017 -0.2363  0.0101
   15DT     C3'  473   5.096   5.738   6.498 -0.4687  0.3857  0.6786
   15DT     H3'  474   5.191   5.779   6.532 -0.1802 -0.8869  1.4581
   15DT     C2'  475   5.075   5.613   6.583 -0.3657 -0.5310  0.3900
   15DT    H2'1  476   5.159   5.584   6.645 -0.1369 -1.4386 -0.3336
   15DT    H2'2  477   4.991   5.634   6.649  0.1082  2.2920  0.2353
   15DT     O3'  478   4.991   5.836   6.508 -0.8248  0.0421 -0.4366
   16DT       P  479   4.966   5.919   6.642  0.2189  0.0390 -0.0260
   16DT     O1P  480   4.896   6.042   6.601  0.3377 -0.3594  0.3896
   16DT     O2P  481   5.086   5.922   6.723 -0.2810  0.3902 -0.6456
   16DT     O5'  482   4.860   5.819   6.704 -0.0663 -0.5732  0.0415
   16DT     C5'  483   4.741   5.773   6.635  0.6245 -0.1594 -0.7236
   16DT    H5'1  484   4.760   5.743   6.532 -1.0264  2.6505 -1.9744
   16DT    H5'2  485   4.670   5.855   6.624  0.1812 -0.4862 -0.3644
   16DT     C4'  486   4.679   5.653   6.713  0.0713  0.4846 -0.2833
   16DT     H4'  487   4.582   5.646   6.664 -0.6528  2.2182  0.8048
   16DT     O4'  488   4.761   5.543   6.700  0.3137  0.5153 -0.1366
   16DT     C1'  489   4.744   5.455   6.815  0.6911 -0.1533 -0.1242
   16DT     H1'  490   4.652   5.398   6.799  1.1295 -0.3958 -2.1251
   16DT      N1  491   4.868   5.375   6.841  0.0260  0.0070  0.6707
   16DT      C6  492   4.992   5.437   6.859 -0.2514 -0.3659  0.2376
   16DT      H6  493   5.004   5.544   6.852  1.0547 -0.5476 -0.7779
   16DT      C5  494   5.102   5.361   6.877 -1.1925  0.2284  0.1764
   16DT      C7  495   5.233   5.440   6.893 -0.2836  0.3385  0.2847
   16DT     H71  496   5.313   5.371   6.871 -0.1118  0.1105  1.5129
   16DT     H72  497   5.244   5.530   6.832  3.3860  0.2709  0.6614
   16DT     H73  498   5.242   5.473   6.997 -0.4853 -0.6567  0.6318
   16DT      C4  499   5.093   5.213   6.876 -0.1961  0.2098  0.8391
   16DT      O4  500   5.184   5.129   6.874 -0.4881 -0.0670 -0.1653
   16DT      N3  501   4.970   5.171   6.839 -0.5415  0.2440 -0.5404
   16DT      H3  502   4.955   5.071   6.839 -1.6273  0.3640  1.2647
   16DT      C2  503   4.854   5.236   6.839 -0.2499  0.8427 -0.7748
   16DT      O2  504   4.752   5.170   6.818  0.1949  0.6603 -0.5430
   16DT     C3'  505   4.662   5.679   6.863 -0.1988  0.1333 -0.2451
   16DT     H3'  506   4.721   5.761   6.902 -0.1323 -0.3012  0.6119
   16DT     C2'  507   4.724   5.556   6.929 -0.1372  0.4597 -0.5342
   16DT    H2'1  508   4.821   5.585   6.969 -0.3317 -0.9341  1.0618
   16DT    H2'2  509   4.656   5.518   7.006 -2.0919  1.0170 -1.8912
   16DT     O3'  510   4.524   5.696   6.882  0.3630 -0.2353 -0.2540
   17DT       P  511   4.455   5.730   7.026  0.0658  0.5418 -0.4649
   17DT     O1P  512   4.327   5.795   6.994 -0.3654 -0.1910  0.1764
   17DT     O2P  513   4.550   5.795   7.114  0.2461  0.3570  0.0348
   17DT     O5'  514   4.415   5.585   7.075 -0.5400 -0.4979  0.1047
   17DT     C5'  515   4.361   5.488   6.993  0.5332 -0.2661 -0.5433
   17DT    H5'1  516   4.410   5.483   6.895  1.7503  1.1892 -0.0505
   17DT    H5'2  517   4.255   5.506   6.977  0.8805 -0.0266 -3.1597
   17DT     C4'  518   4.359   5.347   7.049  0.7634 -0.0634  0.1825
   17DT     H4'  519   4.292   5.288   6.987 -0.4055  1.1534  0.2518
   17DT     O4'  520   4.490   5.293   7.040  0.7279 -0.8768  0.5160
   17DT     C1'  521   4.512   5.218   7.157  0.6653  0.5991  0.8860
   17DT     H1'  522   4.463   5.121   7.150  3.0704 -0.6469 -0.0399
   17DT      N1  523   4.662   5.195   7.171  0.6260  0.5515  0.5714
   17DT      C6  524   4.745   5.302   7.194  0.0377  0.3426 -0.1190
   17DT      H6  525   4.708   5.404   7.200  0.8197  0.6497 -0.3413
   17DT      C5  526   4.879   5.284   7.209 -0.1915 -0.1706  0.4029
   17DT      C7  527   4.975   5.400   7.238  0.1839 -0.2875 -0.2080
   17DT     H71  528   5.028   5.367   7.328  1.2030  0.8043 -0.3851
   17DT     H72  529   5.045   5.407   7.155  0.1781  2.1095 -0.0638
   17DT     H73  530   4.929   5.497   7.253  0.2241 -0.0317 -1.6912
   17DT      C4  531   4.936   5.149   7.200 -0.4174 -0.7068 -0.0832
   17DT      O4  532   5.058   5.123   7.218  0.0510  0.3489  0.4735
   17DT      N3  533   4.850   5.046   7.164 -0.0287 -0.5355 -0.3532
   17DT      H3  534   4.886   4.955   7.140  1.5038 -0.6625  2.1435
   17DT      C2  535   4.713   5.066   7.145 -0.2147 -0.7903 -0.8017
   17DT      O2  536   4.639   4.970   7.123  0.3620 -0.1339  0.1526
   17DT     C3'  537   4.312   5.336   7.195 -0.0998  0.0349  0.4238
   17DT     H3'  538   4.271   5.429   7.237  1.8301  1.7140 -1.2067
   17DT     C2'  539   4.443   5.290   7.267  0.5653 -0.2871  0.2864
   17DT    H2'1  540   4.493   5.378   7.307  0.3608 -1.2327  2.7477
   17DT    H2'2  541   4.428   5.218   7.347  4.1652  1.6638  3.0062
   17DT     O3'  542   4.213   5.241   7.194  0.4816  1.1151 -0.2980
   18DT       P  543   4.112   5.211   7.322 -0.0071 -0.0943  0.1727
   18DT     O1P  544   3.983   5.200   7.253 -0.2616  0.4279 -0.0480
   18DT     O2P  545   4.132   5.307   7.433  0.3897  0.3009 -0.2033
   18DT     O5'  546   4.184   5.085   7.372 -0.2244 -0.5301 -0.4547
   18DT     C5'  547   4.190   4.970   7.289 -0.0207 -0.6091  0.4029
   18DT    H5'1  548   4.237   4.996   7.194 -2.2176 -0.3509 -0.6895
   18DT    H5'2  549   4.086   4.941   7.278 -1.1602  2.9679  0.2807
   18DT     C4'  550   4.279   4.867   7.361  0.3402 -0.1704  0.2799
   18DT     H4'  551   4.252   4.781   7.300 -1.3531  0.2982  0.3140
   18DT     O4'  552   4.414   4.907   7.350 -0.2050  0.1232  0.2624
   18DT     C1'  553   4.475   4.884   7.476 -0.2918  0.4804  0.3658
   18DT     H1'  554   4.523   4.787   7.465  0.8945  1.2645 -1.8876
   18DT      N1  555   4.595   4.984   7.496  0.2210 -0.2821 -0.4019
   18DT      C6  556   4.575   5.122   7.531 -0.3239  0.6308 -0.0498
   18DT      H6  557   4.475   5.161   7.535 -0.9153 -0.7008 -1.2245
   18DT      C5  558   4.683   5.200   7.561 -0.5119  0.1373  0.1786
   18DT      C7  559   4.663   5.349   7.579  0.1687  0.5488 -0.2508
   18DT     H71  560   4.664   5.395   7.479  0.3979  0.1306 -0.4397
   18DT     H72  561   4.567   5.370   7.627  0.5043  2.0192 -0.1554
   18DT     H73  562   4.745   5.386   7.639 -0.0415 -0.8885  0.9699
   18DT      C4  563   4.823   5.148   7.542  0.1531 -0.1113 -0.4712
   18DT      O4  564   4.924   5.217   7.549 -0.1874  0.3794  0.3855
   18DT      N3  565   4.828   5.017   7.499 -0.0334  0.0459  0.0936
   18DT      H3  566   4.917   4.970   7.496  0.0075 -0.0936  2.1065
   18DT      C2  567   4.721   4.927   7.488 -1.0600 -0.2465 -0.0262
   18DT      O2  568   4.756   4.814   7.462  0.1955  0.5044 -0.1204
   18DT     C3'  569   4.236   4.840   7.504 -0.4369 -0.3889 -0.1601
   18DT     H3'  570   4.151   4.899   7.537  0.8911  1.5381  0.0054
   18DT     C2'  571   4.365   4.877   7.583  0.5640 -0.7135  0.1285
   18DT    H2'1  572   4.330   4.970   7.629 -1.6125 -0.6275 -1.5497
   18DT    H2'2  573   4.393   4.798   7.652  0.7915 -2.6605 -2.0959
   18DT     O3'  574   4.202   4.706   7.506 -0.1829  0.1616  0.3878
   19DT       P  575   4.140   4.643   7.638  0.3122 -0.2561  0.1266
   19DT     O1P  576   4.058   4.526   7.601  0.2409  0.8034 -0.5792
   19DT     O2P  577   4.071   4.749   7.713 -0.5615 -0.1109 -0.0946
   19DT     O5'  578   4.271   4.590   7.709  0.5385 -0.0795  0.3368
   19DT     C5'  579   4.342   4.477   7.651 -0.1721 -0.0195  0.3720
   19DT    H5'1  580   4.368   4.489   7.546  1.2387 -3.0745  0.2771
   19DT    H5'2  581   4.293   4.382   7.633 -1.2196  0.3479  1.2269
   19DT     C4'  582   4.480   4.446   7.717 -0.3651 -0.0836 -0.5219
   19DT     H4'  583   4.530   4.367   7.662  0.0835 -1.0086  1.1316
   19DT     O4'  584   4.570   4.557   7.716  0.5061 -0.5238 -0.2121
   19DT     C1'  585   4.620   4.582   7.842  0.0337 -0.5589  0.0741
   19DT     H1'  586   4.702   4.511   7.852  1.8076  1.2700 -0.8648
   19DT      N1  587   4.666   4.725   7.854  0.1837  0.1470  0.6450
   19DT      C6  588   4.571   4.829   7.865 -0.2607 -0.5283 -0.2005
   19DT      H6  589   4.467   4.804   7.857 -0.8221  1.0667  1.5328
   19DT      C5  590   4.616   4.960   7.870 -0.0212 -0.2026 -0.6236
   19DT      C7  591   4.501   5.066   7.861 -0.1897 -0.2520  0.4458
   19DT     H71  592   4.504   5.132   7.948 -1.5857  1.5045 -0.7533
   19DT     H72  593   4.497   5.122   7.767 -2.1250  1.6142  1.5586
   19DT     H73  594   4.409   5.012   7.884 -1.4245  1.5766  0.0350
   19DT      C4  595   4.760   4.988   7.871 -0.1042 -0.1042 -0.1973
   19DT      O4  596   4.806   5.098   7.877  0.4794 -0.3904 -0.3880
   19DT      N3  597   4.844   4.880   7.847 -0.3546  0.1893 -0.5766
   19DT      H3  598   4.943   4.903   7.849 -0.7201  1.9141  1.1823
   19DT      C2  599   4.800   4.754   7.834 -0.5260  1.1223  0.2671
   19DT      O2  600   4.881   4.666   7.806 -0.3248 -0.1536  0.8180
   19DT     C3'  601   4.446   4.419   7.865  0.5442  0.2628 -0.2529
   19DT     H3'  602   4.341   4.409   7.895  0.0322  2.1448 -1.2208
   19DT     C2'  603   4.513   4.531   7.942 -0.4765 -0.5983  0.1353
   19DT    H2'1  604   4.445   4.604   7.985  0.3246  0.5173 -0.4281
   19DT    H2'2  605   4.571   4.491   8.025  0.4416  0.2064 -0.1048
   19DT     O3'  606   4.518   4.297   7.889  0.2403  0.4662 -0.2636
   20DT3      P  607   4.527   4.225   8.030 -0.2834  0.4356  0.2026
   20DT3    O1P  608   4.527   4.075   8.016  0.0497 -0.3809 -0.9309
   20DT3    O2P  609   4.437   4.289   8.127 -0.0534 -0.3139  0.3986
   20DT3    O5'  610   4.671   4.268   8.074 -0.5261  0.1796 -0.0861
   20DT3    C5'  611   4.792   4.247   7.989  0.2765 -0.1024 -0.6078
   20DT3   H5'1  612   4.779   4.285   7.888 -1.1863  2.1282  0.3400
   20DT3   H5'2  613   4.815   4.141   7.988  1.3583  0.0277  2.0118
   20DT3    C4'  614   4.914   4.313   8.055 -0.3504  0.2659  1.1012
   20DT3    H4'  615   5.003   4.281   8.001 -0.6064 -0.2430  0.9818
   20DT3    O4'  616   4.906   4.456   8.046  0.0208 -0.1791 -0.7882
   20DT3    C1'  617   4.944   4.512   8.174 -0.0030 -0.7710  0.0895
   20DT3    H1'  618   5.052   4.520   8.186 -0.1789  0.8136  0.9283
   20DT3     N1  619   4.880   4.648   8.185  0.2548 -0.0056  0.7282
   20DT3     C6  620   4.744   4.658   8.205  0.0964  0.2684  0.1420
   20DT3     H6  621   4.681   4.571   8.219 -0.9263  0.7253 -1.4107
   20DT3     C5  622   4.686   4.780   8.210 -0.2661 -0.5164 -0.3241
   20DT3     C7  623   4.538   4.781   8.251 -0.2405  0.3955 -0.1620
   20DT3    H71  624   4.529   4.791   8.360  1.1784 -2.6518  0.3346
   20DT3    H72  625   4.485   4.867   8.210 -1.9111 -0.4108  0.1885
   20DT3    H73  626   4.483   4.693   8.218  1.2104  0.2478 -2.3462
   20DT3     C4  627   4.754   4.903   8.200 -0.4754 -0.4401  0.7143
   20DT3     O4  628   4.711   5.015   8.182  0.2938  0.0907  0.2494
   20DT3     N3  629   4.897   4.884   8.188  0.4198  0.0734 -0.5845
   20DT3     H3  630   4.954   4.967   8.184 -0.9116  0.9893 -1.0371
   20DT3     C2  631   4.963   4.762   8.187 -0.2589  0.7662  0.2204
   20DT3     O2  632   5.085   4.767   8.192  0.4543 -0.0053 -0.7999
   20DT3    C3'  633   4.941   4.282   8.201  0.1266  0.7144 -0.1579
   20DT3    H3'  634   4.861   4.211   8.220  0.9748 -0.1764  0.1487
   20DT3    C2'  635   4.907   4.404   8.282 -0.0625  0.1069  0.3921
   20DT3   H2'1  636   4.803   4.420   8.310  0.1551  2.9763 -0.2235
   20DT3   H2'2  637   4.975   4.419   8.366 -0.3500  0.5226  0.5517
   20DT3    O3'  638   5.068   4.235   8.238  1.0053 -0.0237  0.0865
   20DT3    H3T  639   5.102   4.179   8.168 -2.3965 -1.2257 -0.8028
   21SOL     OW  640   0.550   9.932   4.604 -0.1351 -0.0659 -0.0883
   21SOL    HW1  641   0.635   9.964   4.636  0.9715 -1.1921 -1.7553
   21SOL    HW2  642   0.529   9.991   4.532 -0.1705 -0.5086 -0.4431
   22SOL     OW  643   0.555   1.523   8.445  0.0077  0.5642  0.1460
   22SOL    HW1  644   0.532   1.511   8.538  0.4020 -0.2575  0.1514
   22SOL    HW2  645   0.650   1.513   8.443  0.1275  1.6558 -0.2025
   23SOL     OW  646   1.208   8.808   3.500 -0.3909  0.2598 -0.9570
   23SOL    HW1  647   1.124   8.800   3.546 -0.0782  0.7982 -0.2751
   23SOL    HW2  648   1.207   8.897   3.465  2.1042  2.4835  3.6804
   24SOL     OW  649   4.366   4.491   1.824 -0.1638 -0.2708  0.3868
   24SOL    HW1  650   4.306   4.564   1.833  0.2306 -0.1229  2.2378
   24SOL    HW2  651   4.340   4.430   1.892  1.6825 -0.2489  1.1806
   25SOL     OW  652   3.982   2.301   8.657 -0.1682 -0.3065  0.4149
   25SOL    HW1  653   4.057   2.349   8.621  0.8199 -1.1546  1.3197
   25SOL    HW2  654   4.018   2.250   8.729 -1.3621 -1.7980 -0.0095
   26SOL     OW  655   0.435   3.164   7.481  0.0432 -0.0020  0.0586
   26SOL    HW1  656   0.424   3.208   7.565  0.1396  0.6872 -0.2904
   26SOL    HW2  657   0.425   3.071   7.502 -1.2239  0.2367  0.6313
   27SOL     OW  658   2.016   1.577   0.757 -0.1817  0.3884 -0.8469
   27SOL    HW1  659   1.922   1.589   0.739 -0.3493  0.7587  0.1904
   27SOL    HW2  660   2.031   1.627   0.838  0.8020 -0.0918 -0.7243
   28SOL     OW  661   6.371   0.102   4.824  0.0722 -0.1234 -0.3497
   28SOL    HW1  662   6.416   0.176   4.784 -0.2858  0.1466 -0.2586
   28SOL    HW2  663   6.430   0.072   4.893  0.3479 -0.1102 -0.5776
   29SOL     OW  664   8.216   2.131   3.289 -0.5866 -0.0085 -0.3813
   29SOL    HW1  665   8.279   2.112   3.359 -0.6319  1.8133  0.2296
   29SOL    HW2  666   8.204   2.226   3.294 -1.4091  0.0224 -2.1935
   30SOL     OW  667   5.583   3.081   4.028  0.4729 -0.1671 -0.1428
   30SOL    HW1  668   5.616   3.050   4.113  1.2855  1.8438  0.3157
   30SOL    HW2  669   5.488   3.086   4.040  0.2512 -2.5329 -0.3069
   31SOL     OW  670   8.995   4.544   1.746  0.5339  0.4053  0.6680
   31SOL    HW1  671   9.087   4.567   1.734 -0.2193  2.9776 -0.9893
   31SOL    HW2  672   8.972   4.579   1.832  0.9590  0.2798  0.8313
   32SOL     OW  673   3.442   8.279   8.744 -0.1893  0.5484 -0.4608
   32SOL    HW1  674   3.450   8.281   8.648 -0.7163  0.9754 -0.5002
   32SOL    HW2  675   3.373   8.343   8.764 -1.0747 -0.5301  0.0953
   33SOL     OW  676   9.682   0.818   7.626  0.4947  0.2126 -0.6510
   33SOL    HW1  677   9.645   0.896   7.667  0.7384  1.2370 -2.2696
   33SOL    HW2  678   9.738   0.852   7.557  0.2902 -1.4132 -1.6773
   34SOL     OW  679   1.495   2.807   0.794  0.1509  0.1035  0.7484
   34SOL    HW1  680   1.501   2.871   0.865  0.5775  2.0037 -0.9260
   34SOL    HW2  681   1.518   2.856   0.715  0.7116 -2.1864 -0.5915
   35SOL     OW  682   6.750   3.269   8.129  0.2479 -0.5438  0.0553
   35SOL    HW1  683   6.723   3.309   8.212 -1.1396  1.5870 -1.3464
   35SOL    HW2  684   6.801   3.192   8.156 -0.6505 -0.2760  2.8667
   36SOL     OW  685   6.824   7.474   2.280  0.2295 -0.3776 -0.6145
   36SOL    HW1  686   6.887   7.543   2.259 -2.4599  1.8725 -1.8917
   36SOL    HW2  687   6.775   7.509   2.354 -0.6284 -1.2930 -0.7340
   37SOL     OW  688   4.736   3.248   5.336 -0.4199  0.1099 -0.3914
   37SOL    HW1  689   4.777   3.179   5.284  0.7264  0.1646  0.4023
   37SOL    HW2  690   4.765   3.231   5.426 -3.0950 -0.5436  0.4463
   38SOL     OW  691   6.094   0.066   4.011  0.4452  0.3271  0.1411
   38SOL    HW1  692   6.031   0.011   4.058  1.2738  0.4437  1.4511
   38SOL    HW2  693   6.042   0.141   3.982 -0.4243 -0.5070 -0.5391
   39SOL     OW  694   7.663   5.193   2.863  0.5140 -0.6208  0.3194
   39SOL    HW1  695   7.605   5.160   2.794 -0.7262  2.0077 -0.0121
   39SOL    HW2  696   7.720   5.256   2.819  0.5048  0.2356  1.4803
   40SOL     OW  697   2.854   2.127   1.212 -0.3210  0.5638  0.4476
   40SOL    HW1  698   2.862   2.132   1.117  1.3025 -1.5378  0.4130
   40SOL    HW2  699   2.876   2.215   1.243 -1.6507  1.4946 -1.1138
   41SOL     OW  700   2.965   2.199   5.750  0.3158 -0.0638  0.2631
   41SOL    HW1  701   2.991   2.197   5.658  0.9586 -0.1009  0.4430
   41SOL    HW2  702   2.926   2.285   5.762  1.0988  0.3113  0.1819
   42SOL     OW  703   8.360   4.934   7.330  0.1548  0.0334 -0.0258
   42SOL    HW1  704   8.300   4.963   7.261 -0.6370  0.3325  0.7636
   42SOL    HW2  705   8.431   4.997   7.329  0.4355 -0.2837 -0.9318
   43SOL     OW  706   2.755   5.308   0.631 -0.6566 -0.5081 -0.5891
   43SOL    HW1  707   2.687   5.371   0.606  0.0481  0.0158 -1.2256
   43SOL    HW2  708   2.734   5.229   0.581  0.7012  0.5046 -2.8888
   44SOL     OW  709   7.946   8.085   1.786 -0.1084  0.1163 -0.4237
   44SOL    HW1  710   7.967   8.029   1.861 -0.4593  2.6396  1.7462
   44SOL    HW2  711   8.019   8.073   1.725  0.5526 -1.5203  0.6271
   45SOL     OW  712   8.844   3.903   0.862  0.3051  0.2575  0.2536
   45SOL    HW1  713   8.874   3.926   0.950 -0.3877  0.3340  0.4743
   45SOL    HW2  714   8.783   3.973   0.838  0.3209  0.1192 -0.2020
   46SOL     OW  715   3.611   2.113   5.855 -1.1111  0.6129 -0.6842
   46SOL    HW1  716   3.634   2.115   5.947 -1.8246 -0.7675 -0.4461
   46SOL    HW2  717   3.694   2.124   5.808 -0.8692  2.3193  0.0902
   47SOL     OW  718   0.102   3.084   3.449 -0.6966 -0.1202 -0.4644
   47SOL    HW1  719   0.103   3.145   3.522 -2.2774 -0.2955 -0.2566
   47SOL    HW2  720   0.018   3.038   3.457 -0.0379 -1.5449 -1.2406
   48SOL     OW  721   7.117   7.553   1.806 -0.3411  0.2429  0.0509
   48SOL    HW1  722   7.141   7.461   1.808  0.0735  0.3480  1.8651
   48SOL    HW2  723   7.031   7.556   1.849  0.8580  0.9576  2.5848
   49SOL     OW  724   6.568   6.950   8.071 -0.0961  0.1477  0.0155
   49SOL    HW1  725   6.597   7.040   8.089 -0.2790  0.6917 -2.1655
   49SOL    HW2  726   6.566   6.944   7.975  0.1685 -2.2761  0.1050
   50SOL     OW  727   0.330   6.714   9.091  0.2565 -0.2224 -0.2158
   50SOL    HW1  728   0.333   6.804   9.060  0.2373  0.2560  1.0779
   50SOL    HW2  729   0.344   6.721   9.186  0.0913 -1.5659 -0.0650
   51SOL     OW  730   2.309   1.964   2.964 -0.0568 -0.1218 -0.0401
   51SOL    HW1  731   2.336   1.888   3.016 -0.2950  0.2352  0.6053
   51SOL    HW2  732   2.256   2.017   3.023 -0.5009  0.1942 -0.7001
   52SOL     OW  733   0.130   7.254   3.047  0.5751 -0.2713  0.1721
   52SOL    HW1  734   0.123   7.297   3.132  2.0074 -1.0627  0.7286
   52SOL    HW2  735   0.073   7.177   3.053  1.0061 -0.5647  0.5893
   53SOL     OW  736   8.356   4.665   0.678 -0.0594  0.9485 -0.3508
   53SOL    HW1  737   8.398   4.632   0.599 -0.5543  0.7608 -0.5405
   53SOL    HW2  738   8.262   4.658   0.660 -0.1922  0.1785  0.5514
   54SOL     OW  739   0.089   9.084   9.547 -0.5057 -0.2286  0.1324
   54SOL    HW1  740   0.001   9.093   9.511  0.0259  0.0492 -1.1708
   54SOL    HW2  741   0.147   9.110   9.475  0.6134  0.6271  1.2835
   55SOL     OW  742  -0.002   6.575   9.700  0.2144  0.1009 -0.0666
   55SOL    HW1  743   0.030   6.531   9.779  0.6287  2.2614  1.0653
   55SOL    HW2  744   0.027   6.520   9.628  1.2943 -1.0927  1.2136
   56SOL     OW  745   7.359   8.873   3.049  0.5474 -0.4076  0.5240
   56SOL    HW1  746   7.264   8.884   3.053  0.4950 -0.8988  0.7204
   56SOL    HW2  747   7.372   8.779   3.031  1.0053 -0.7037  2.2054
   57SOL     OW  748   1.595   2.426   9.764  0.4587  0.4284 -0.2742
   57SOL    HW1  749   1.515   2.455   9.807  0.2710  0.6835 -0.7859
   57SOL    HW2  750   1.576   2.337   9.735 -0.5176  1.2925 -2.5022
   58SOL     OW  751   1.176   5.297   8.047 -0.5011 -0.5922  0.1847
   58SOL    HW1  752   1.215   5.322   8.131  0.3024  2.8316 -1.0419
   58SOL    HW2  753   1.244   5.248   8.002  0.5579  0.9520  0.0463
   59SOL     OW  754   0.782   5.413   1.841 -0.5074  0.3326 -0.6732
   59SOL    HW1  755   0.726   5.354   1.892  0.2004  1.1131  1.0960
   59SOL    HW2  756   0.725   5.485   1.815 -0.8859 -0.0975 -1.0636
   60SOL     OW  757   3.469   3.016   1.822  0.0906 -0.1939  0.6184
   60SOL    HW1  758   3.462   3.000   1.916 -0.4664  0.9124  0.7860
   60SOL    HW2  759   3.475   2.929   1.783  1.9142 -0.6398  1.7694
   61SOL     OW  760   9.151   4.813   2.227  0.0675  0.1875 -0.3595
   61SOL    HW1  761   9.135   4.737   2.170 -0.1835 -1.4085  1.7389
   61SOL    HW2  762   9.069   4.861   2.225 -0.5575 -0.8273  0.0327
   62SOL     OW  763   9.282   0.114   0.023  0.1355 -0.3584 -0.1599
   62SOL    HW1  764   9.188   0.133   0.022  0.2760  0.3540 -0.7948
   62SOL    HW2  765   9.321   0.190   0.066  0.4347 -0.6007 -0.0025
   63SOL     OW  766   4.762   2.789   3.935  0.0308 -0.0971  0.0931
   63SOL    HW1  767   4.852   2.757   3.928 -0.8090 -2.4588 -0.7977
   63SOL    HW2  768   4.740   2.817   3.846 -0.5576 -0.8736 -0.0127
   64SOL     OW  769   4.892   8.711   8.139  0.1085 -0.1019  0.2458
   64SOL    HW1  770   4.821   8.649   8.121  0.1418 -0.7444  2.1216
   64SOL    HW2  771   4.944   8.712   8.059 -0.7569 -1.3442 -0.3581
   65SOL     OW  772   9.914   0.466   8.227 -0.5154  0.0371  0.2300
   65SOL    HW1  773   9.967   0.391   8.254  1.6471  1.8687  1.3995
   65SOL    HW2  774   9.928   0.531   8.296 -2.6412  1.3880 -0.5254
   66SOL     OW  775   3.495   9.423   8.114 -0.5154  0.1202 -0.6089
   66SOL    HW1  776   3.510   9.376   8.033 -1.6216 -0.5415 -0.4632
   66SOL    HW2  777   3.582   9.436   8.152 -0.0879 -0.6696 -1.2876
   67SOL     OW  778   4.764   8.924   1.668 -0.5458 -0.3129  0.1024
   67SOL    HW1  779   4.672   8.926   1.641 -1.1709 -0.8108  2.0441
   67SOL    HW2  780   4.763   8.890   1.757  1.3635  1.3970  0.8750
   68SOL     OW  781   1.685   9.499   1.246 -0.4778 -0.5522 -0.2935
   68SOL    HW1  782   1.616   9.532   1.189 -0.1600 -0.2739 -0.5240
   68SOL    HW2  783   1.641   9.477   1.328 -0.7573  0.1205 -0.2534
   69SOL     OW  784   0.695   5.418   0.692 -0.1474  1.2064 -0.5601
   69SOL    HW1  785   0.686   5.383   0.780 -0.4353 -2.9417 -2.0388
   69SOL    HW2  786   0.779   5.464   0.693  0.9836 -0.7314  1.3059
   70SOL     OW  787   5.941   9.881   3.578 -0.5347  0.3533 -0.1890
   70SOL    HW1  788   5.934   9.932   3.497  0.5969  0.6817 -0.0846
   70SOL    HW2  789   5.867   9.820   3.574 -1.4815  1.4929 -0.6664
   71SOL     OW  790   0.713   0.719   0.709 -0.4808 -0.1971  0.0869
   71SOL    HW1  791   0.730   0.703   0.801 -0.9450 -0.0403  0.2030
   71SOL    HW2  792   0.737   0.810   0.695 -1.3947  0.0839  0.2983
   72SOL     OW  793   4.021   3.545   4.105  0.7896  0.3274  0.2197
   72SOL    HW1  794   3.946   3.523   4.049  1.7715 -1.1253 -0.6074
   72SOL    HW2  795   3.987   3.609   4.167 -0.7812  0.7290 -0.9842
   73SOL     OW  796   4.934   5.913   1.299  0.1047 -0.0262 -0.8863
   73SOL    HW1  797   4.848   5.927   1.259 -0.8009 -1.2313  0.5124
   73SOL    HW2  798   4.990   5.884   1.227 -1.0289 -0.5187 -1.6053
   74SOL     OW  799   1.157   6.971   2.650  0.3954 -0.2353  0.1449
   74SOL    HW1  800   1.126   7.053   2.689 -0.4765 -0.0603 -0.8753
   74SOL    HW2  801   1.186   6.996   2.562 -0.2979 -1.0907 -0.3360
   75SOL     OW  802   6.751   6.809   3.672  0.1037 -0.2869  0.2025
   75SOL    HW1  803   6.763   6.772   3.585  2.1293 -0.8184  0.6301
   75SOL    HW2  804   6.716   6.737   3.724  0.9470 -0.6492  0.2903
   76SOL     OW  805   5.495   6.938   2.086 -0.2937  0.0235  0.3733
   76SOL    HW1  806   5.513   7.015   2.139  0.2015 -0.3498  0.7553
   76SOL    HW2  807   5.498   6.865   2.147 -1.2830 -0.2599  0.1156
   77SOL     OW  808   5.482   1.548   0.546 -0.3942  0.0762 -0.1343
   77SOL    HW1  809   5.424   1.519   0.476  2.5769 -1.1916 -2.2951
   77SOL    HW2  810   5.532   1.470   0.570 -0.4096  0.7929  2.5588
   78SOL     OW  811   0.139   7.530   1.662  0.2871 -0.1123  0.5507
   78SOL    HW1  812   0.146   7.621   1.635  0.0509 -0.0888  0.5690
   78SOL    HW2  813   0.230   7.501   1.672  0.3795  0.5404  1.9583
   79SOL     OW  814   6.477   5.442   9.640  0.0611 -0.3935  0.2793
   79SOL    HW1  815   6.462   5.532   9.671  1.0551 -0.3787  0.7480
   79SOL    HW2  816   6.564   5.444   9.602 -0.0026 -1.1134  0.0818
   80SOL     OW  817   9.181   1.288   7.710 -0.0566  0.2924 -0.1495
   80SOL    HW1  818   9.173   1.275   7.616 -1.7718  1.5141 -0.2151
   80SOL    HW2  819   9.190   1.383   7.721 -0.8461  0.2631  0.9474
   81SOL     OW  820   0.482   5.756   4.575  0.3092 -0.2719  0.0617
   81SOL    HW1  821   0.544   5.748   4.648 -0.7074 -1.7795  0.8105
   81SOL    HW2  822   0.405   5.707   4.604 -0.3201 -0.4537 -1.8241
   82SOL     OW  823   3.527   4.600   8.491  0.3031  0.0713  0.2083
   82SOL    HW1  824   3.516   4.505   8.499  0.9547  0.0752  1.2421
   82SOL    HW2  825   3.611   4.611   8.448  0.8453  0.1893  1.2740
   83SOL     OW  826   5.216   7.067   2.375 -0.2108 -0.3008 -0.2174
   83SOL    HW1  827   5.293   7.081   2.430 -0.9320 -0.2222  0.7996
   83SOL    HW2  828   5.248   7.077   2.285  1.0485 -0.7197  0.1705
   84SOL     OW  829   3.843   7.253   3.716  0.1694 -0.3759 -0.4834
   84SOL    HW1  830   3.922   7.293   3.678  1.3021 -1.1859  0.9052
   84SOL    HW2  831   3.867   7.162   3.730 -0.8369 -0.5156  0.4656
   85SOL     OW  832   1.433   1.980   0.281 -0.2920  0.0972 -0.9547
   85SOL    HW1  833   1.407   1.888   0.274  2.4502 -1.0018  1.3631
   85SOL    HW2  834   1.387   2.012   0.358  1.6278 -0.5710  0.5487
   86SOL     OW  835   5.407   9.826   6.671  0.1777  0.3379  0.1086
   86SOL    HW1  836   5.347   9.809   6.598  1.3062  0.0093 -0.7588
   86SOL    HW2  837   5.360   9.889   6.726 -1.5025 -0.8837  0.1452
   87SOL     OW  838   4.757   0.103   3.929  0.5317  0.5631  0.1810
   87SOL    HW1  839   4.714   0.149   3.857  1.6712  0.6188 -0.4892
   87SOL    HW2  840   4.835   0.155   3.947 -0.1285  0.9730  1.9930
   88SOL     OW  841   7.280   1.473   1.270 -0.7752  0.2316  0.8041
   88SOL    HW1  842   7.274   1.473   1.366  0.4661 -0.4636  0.9028
   88SOL    HW2  843   7.368   1.507   1.252 -1.1388  0.7125 -0.1150
   89SOL     OW  844   3.707   4.616   1.366  0.1068  0.1836 -0.3044
   89SOL    HW1  845   3.762   4.556   1.316  1.5908  2.2074 -1.2578
   89SOL    HW2  846   3.686   4.569   1.447  1.2035 -1.5717 -1.0084
   90SOL     OW  847   8.659   2.324   4.533 -0.7446  0.8077 -0.5655
   90SOL    HW1  848   8.723   2.394   4.544 -1.0803  0.9123  1.0369
   90SOL    HW2  849   8.627   2.307   4.622 -1.3388 -0.7468 -1.0399
   91SOL     OW  850   6.432   9.507   0.450 -1.3406  0.2069  0.0903
   91SOL    HW1  851   6.512   9.507   0.501 -0.4770  0.2250 -1.2184
   91SOL    HW2  852   6.362   9.499   0.515 -0.3094  0.5097  1.2735
   92SOL     OW  853   0.463   5.555   4.359 -0.4091 -0.1148 -0.6091
   92SOL    HW1  854   0.438   5.640   4.393  1.2222  0.3729 -0.5708
   92SOL    HW2  855   0.558   5.558   4.351 -0.2599 -2.0848 -0.1945
   93SOL     OW  856   3.263   2.333   5.545  0.1955  0.4927 -0.1518
   93SOL    HW1  857   3.302   2.253   5.580  0.7638  1.0893  0.6137
   93SOL    HW2  858   3.323   2.403   5.572  0.0456  1.1121 -1.3525
   94SOL     OW  859   0.091   7.101   0.156  0.6269  0.5130  0.0591
   94SOL    HW1  860   0.079   7.050   0.235  0.6422 -0.6283 -0.6575
   94SOL    HW2  861   0.089   7.192   0.186 -2.9467  0.2917  0.9322
   95SOL     OW  862   5.752   2.197   8.811 -0.2658 -0.4213  0.4089
   95SOL    HW1  863   5.845   2.176   8.804 -0.1951 -0.0267  0.1112
   95SOL    HW2  864   5.743   2.238   8.897  0.1278  0.9295 -0.1530
   96SOL     OW  865   4.781   1.270   1.508 -0.0466 -0.1739 -0.2891
   96SOL    HW1  866   4.712   1.204   1.512  1.1896 -1.5889 -1.2774
   96SOL    HW2  867   4.801   1.279   1.415  1.6599 -0.4188  0.0178
   97SOL     OW  868   4.932   9.234   8.546  0.7407  0.5163  0.1114
   97SOL    HW1  869   4.961   9.320   8.577 -0.2963  1.2625 -0.9046
   97SOL    HW2  870   4.979   9.220   8.464 -0.7373  1.1505 -0.8766
   98SOL     OW  871   8.769   4.298   0.665  0.4520 -0.0899 -0.2717
   98SOL    HW1  872   8.851   4.341   0.692  1.0405  0.6880 -3.0370
   98SOL    HW2  873   8.716   4.368   0.628  0.1818 -1.1967 -2.0978
   99SOL     OW  874   1.103   6.621   6.428  0.2801  0.1462  0.0943
   99SOL    HW1  875   1.057   6.677   6.367 -1.7359 -2.8977 -1.4359
   99SOL    HW2  876   1.184   6.598   6.384  1.3362  2.0451  0.9208
  100SOL     OW  877   7.687   0.581   4.113 -0.0935  0.3797  0.1760
  100SOL    HW1  878   7.619   0.558   4.049  0.0109 -0.9990  0.5272
  100SOL    HW2  879   7.763   0.604   4.060  0.3482 -1.8509 -0.2358
  101SOL     OW  880   8.564   0.122   8.059 -0.1396  0.0181 -0.2152
  101SOL    HW1  881   8.636   0.102   8.000 -0.8725 -1.2023 -0.7355
  101SOL    HW2  882   8.486   0.089   8.014 -0.9159  0.5147  0.7217
  102SOL     OW  883   2.013   8.647   9.709  0.0432 -0.2031  0.1745
  102SOL    HW1  884   1.924   8.674   9.687 -0.5481 -0.9704  1.4983
  102SOL    HW2  885   2.038   8.704   9.782 -0.3354 -1.6181  1.4533
  103SOL     OW  886   8.232   4.950   9.958 -0.0777 -0.5508  0.1036
  103SOL    HW1  887   8.327   4.960   9.951 -0.1850  1.5541  0.7600
  103SOL    HW2  888   8.197   4.997   9.882 -0.6024 -0.0047  0.6688
  104SOL     OW  889   3.901   6.973   6.696 -0.0332 -0.5127 -0.0414
  104SOL    HW1  890   3.870   6.886   6.670 -0.0980  0.4960 -4.0729
  104SOL    HW2  891   3.928   7.014   6.613 -0.4960  3.5145  1.5839
  105SOL     OW  892   8.113   7.052   0.522 -0.1660 -0.4464 -0.4851
  105SOL    HW1  893   8.065   7.135   0.522 -0.6588 -0.7178 -1.2445
  105SOL    HW2  894   8.149   7.045   0.610 -0.2979  0.4721 -0.3475
  106SOL     OW  895   2.552   9.364   6.711 -0.2286  0.0581 -0.5559
  106SOL    HW1  896   2.545   9.286   6.657  2.1828 -0.2361 -0.5781
  106SOL    HW2  897   2.604   9.425   6.658  1.3698  0.1243  0.9653
  107SOL     OW  898   7.436   9.325   4.404 -0.6844  0.8332  0.2904
  107SOL    HW1  899   7.482   9.400   4.443 -1.4635  0.2906  2.3432
  107SOL    HW2  900   7.365   9.306   4.464 -1.1088 -0.9561 -0.7089
  108SOL     OW  901   8.002   2.424   9.869 -0.3989  0.5456  0.0928
  108SOL    HW1  902   7.911   2.453   9.880 -0.8945 -1.0155  0.3585
  108SOL    HW2  903   7.999   2.368   9.791 -0.2516 -1.7086  1.6259
  109SOL     OW  904   3.784   1.457   8.238 -0.5095  0.1553 -0.3488
  109SOL    HW1  905   3.734   1.455   8.320  1.2729 -0.5132  0.7956
  109SOL    HW2  906   3.857   1.515   8.257  0.3994 -0.6918 -1.1573
  110SOL     OW  907   8.393   1.390   5.381 -0.2955 -0.1071  0.4852
  110SOL    HW1  908   8.485   1.379   5.355 -0.3560  0.2056  0.1341
  110SOL    HW2  909   8.393   1.467   5.438 -0.3287 -0.1543  0.5487
  111SOL     OW  910   2.421   3.713   6.032  0.3227  0.0514 -0.1255
  111SOL    HW1  911   2.414   3.648   5.962 -2.1437 -1.1080  1.1073
  111SOL    HW2  912   2.496   3.684   6.084  1.1129 -0.0344 -1.2704
  112SOL     OW  913   4.118   7.696   6.194  0.1681  0.1787  0.7936
  112SOL    HW1  914   4.050   7.631   6.213  0.5129  0.1802  2.1425
  112SOL    HW2  915   4.136   7.686   6.101  0.6750 -2.1030  1.0952
  113SOL     OW  916   5.202   9.834   8.691  0.4820 -0.1639  0.4930
  113SOL    HW1  917   5.204   9.927   8.670 -1.8668  0.6739  3.3458
  113SOL    HW2  918   5.136   9.797   8.632 -0.1142  0.4510  0.7626
  114SOL     OW  919   1.672   6.267   8.242  0.0200 -0.6545 -0.5781
  114SOL    HW1  920   1.718   6.310   8.314 -0.3730  0.7058 -1.1096
  114SOL    HW2  921   1.584   6.305   8.244 -0.0005 -0.6071 -1.7656
  115SOL     OW  922   2.125   8.413   6.845  0.4539  0.3700  0.3216
  115SOL    HW1  923   2.195   8.448   6.790  1.3251 -1.8131 -0.0548
  115SOL    HW2  924   2.167   8.342   6.894 -1.7760 -1.9892 -0.9602
  116SOL     OW  925   1.407   0.032   5.842  0.5085 -0.2114 -0.4095
  116SOL    HW1  926   1.459  -0.002   5.915  0.1886 -1.5963 -0.8117
  116SOL    HW2  927   1.322   0.051   5.880  0.3783 -0.8228 -0.3850
  117SOL     OW  928   9.978   6.279   5.832  0.5448 -0.4327  0.0075
  117SOL    HW1  929   9.989   6.366   5.872 -0.2153  0.0172 -0.7385
  117SOL    HW2  930   9.883   6.266   5.829  0.6689 -1.8048  1.1696
  118SOL     OW  931   0.428   9.590   7.862 -0.1676  0.3988 -0.1614
  118SOL    HW1  932   0.516   9.622   7.842 -0.3693  0.6380 -0.6939
  118SOL    HW2  933   0.376   9.670   7.876 -0.3238  0.2635  0.0343
  119SOL     OW  934   6.047   6.364   6.523 -0.0075 -0.1721 -0.6447
  119SOL    HW1  935   5.953   6.375   6.505 -1.0187 -3.3354  1.6369
  119SOL    HW2  936   6.076   6.301   6.456  0.1462 -0.1991 -0.5509
  120SOL     OW  937   0.901   2.699   9.919 -0.1594 -0.1142  0.6821
  120SOL    HW1  938   0.937   2.684  10.007 -2.1035 -1.3099  1.3476
  120SOL    HW2  939   0.825   2.755   9.934  0.9956  1.8769 -0.6026
  121SOL     OW  940   7.473   8.618   4.472  0.6045  0.3880 -0.0032
  121SOL    HW1  941   7.438   8.703   4.445 -0.0788  0.5178  1.2295
  121SOL    HW2  942   7.413   8.554   4.433 -0.4708  0.5786  1.2898
  122SOL     OW  943   4.000   7.269   4.135  0.7367 -0.0045 -0.4425
  122SOL    HW1  944   3.944   7.218   4.077 -0.7720  0.6516  0.3840
  122SOL    HW2  945   4.039   7.336   4.079  2.5109 -1.7909 -1.4803
  123SOL     OW  946   2.602   4.860   2.377 -0.0872 -0.3233  0.2770
  123SOL    HW1  947   2.665   4.804   2.424 -0.5729 -0.3943  0.8596
  123SOL    HW2  948   2.654   4.900   2.307 -0.1470 -3.1775 -1.5971
  124SOL     OW  949   3.693   6.298   2.117 -0.0711  1.0476 -0.1780
  124SOL    HW1  950   3.603   6.301   2.147 -0.0339  0.5490 -0.0160
  124SOL    HW2  951   3.745   6.316   2.196  0.0116  0.1348 -0.0120
  125SOL     OW  952   3.351   4.604   4.330 -0.1774 -0.2694 -0.0844
  125SOL    HW1  953   3.347   4.566   4.418 -0.5145  0.7066  0.3341
  125SOL    HW2  954   3.319   4.693   4.341 -1.9029 -0.6589 -1.5203
  126SOL     OW  955   6.650   8.657   1.296 -0.0877  0.8068  0.0872
  126SOL    HW1  956   6.647   8.562   1.286 -0.6298  0.9223 -0.8769
  126SOL    HW2  957   6.724   8.685   1.241  0.1538  0.9402  0.4703
  127SOL     OW  958   0.422   9.578   7.034 -0.6740  0.5123 -0.0996
  127SOL    HW1  959   0.469   9.512   7.086 -2.1655  0.1959  0.9144
  127SOL    HW2  960   0.437   9.551   6.943  0.5655  0.0655  0.2187
  128SOL     OW  961   3.513   7.759   4.319  0.3774 -0.2996 -0.3921
  128SOL    HW1  962   3.540   7.846   4.289 -2.0789  1.1010  1.1484
  128SOL    HW2  963   3.587   7.703   4.297  2.0004  2.1114 -1.6121
  129SOL     OW  964   2.274   3.875   3.181  0.0098  0.0651  0.1661
  129SOL    HW1  965   2.230   3.834   3.256  0.0846 -0.4081 -0.0439
  129SOL    HW2  966   2.209   3.933   3.144 -0.4510 -0.6379 -0.1486
  130SOL     OW  967   0.712   2.889   9.941 -0.3365 -0.7159  0.6083
  130SOL    HW1  968   0.680   2.957  10.000 -1.3198 -1.3593  0.8253
  130SOL    HW2  969   0.639   2.872   9.882  0.7128  0.1223 -1.0180
  131SOL     OW  970   2.513   7.050   4.252  0.8547  0.0714  0.0239
  131SOL    HW1  971   2.426   7.017   4.274  1.1325 -1.2428 -0.7476
  131SOL    HW2  972   2.556   6.977   4.207  2.2485  0.8013  0.1104
  132SOL     OW  973   6.961   8.759   1.548  0.0593  0.2487 -0.3366
  132SOL    HW1  974   7.001   8.722   1.627  0.5028  1.8802  0.2368
  132SOL    HW2  975   6.867   8.742   1.558  0.1573  0.0874  0.3348
  133SOL     OW  976   1.971   2.672   6.498 -0.5159 -0.0786  0.2157
  133SOL    HW1  977   2.038   2.737   6.517  0.5735 -0.9137 -0.6526
  133SOL    HW2  978   1.897   2.698   6.553  0.2658  1.2454  0.7039
  134SOL     OW  979   9.169   8.800   5.013  0.4602 -0.2818  0.2419
  134SOL    HW1  980   9.254   8.843   5.010  1.5468 -2.2654  0.5131
  134SOL    HW2  981   9.144   8.801   5.105  0.5101 -0.2583  0.2548
  135SOL     OW  982   8.379  -0.019   4.847  0.1302 -0.1017 -0.5284
  135SOL    HW1  983   8.312  -0.016   4.916  0.7086  1.3145  0.0225
  135SOL    HW2  984   8.356   0.053   4.789  1.9724  1.4050  0.4976
  136SOL     OW  985   1.929   2.063   8.006  0.2086  0.6410 -0.2519
  136SOL    HW1  986   1.924   2.111   7.924  1.2530  1.0546 -0.0899
  136SOL    HW2  987   1.951   2.130   8.071  3.3025 -0.2133 -0.2646
  137SOL     OW  988   5.273   3.319   6.916  0.4112 -0.2416  0.4219
  137SOL    HW1  989   5.301   3.241   6.963  0.8385 -0.2053  0.2287
  137SOL    HW2  990   5.187   3.296   6.880  1.0125 -1.0222 -0.5768
  138SOL     OW  991   1.053   6.773   8.891 -0.0720 -0.1926  0.7233
  138SOL    HW1  992   1.116   6.830   8.934 -1.1129  0.7040  1.0865
  138SOL    HW2  993   1.006   6.730   8.962 -1.5281  0.9998  0.5422
  139SOL     OW  994   7.939   2.799   2.945 -0.1000 -0.4236 -0.0235
  139SOL    HW1  995   7.978   2.804   2.858 -1.4176  0.6670 -0.6029
  139SOL    HW2  996   7.867   2.862   2.942 -0.6754 -0.9490  1.6051
  140SOL     OW  997   3.487   8.249   0.348 -0.1156 -0.3039 -0.2440
  140SOL    HW1  998   3.482   8.319   0.283  1.0866  1.9972  1.9456
  140SOL    HW2  999   3.417   8.270   0.410  1.2246 -0.0872  1.2606
  141SOL     OW 1000   4.485   8.183   6.548  0.0300 -0.2898  0.0488
  141SOL    HW1 1001   4.508   8.180   6.641 -1.2223  0.5261  0.4151
  141SOL    HW2 1002   4.392   8.162   6.546 -0.2016  0.7423 -0.9144
  142SOL     OW 1003   7.639   6.498   4.380  0.5299 -0.5798 -0.0224
  142SOL    HW1 1004   7.731   6.506   4.405  0.9503 -1.2408 -1.2925
  142SOL    HW2 1005   7.640   6.481   4.286 -0.9487  0.4902 -0.2712
  143SOL     OW 1006   2.920   6.476   8.602 -0.5778 -0.3596  0.1406
  143SOL    HW1 1007   2.934   6.565   8.635 -1.2529  0.3493 -1.3914
  143SOL    HW2 1008   2.865   6.434   8.669 -2.2444  1.1591 -0.2026
  144SOL     OW 1009   5.705   5.084   3.622 -0.1956  0.0548 -0.2561
  144SOL    HW1 1010   5.624   5.126   3.649 -0.7659 -0.9873 -0.2779
  144SOL    HW2 1011   5.678   5.021   3.555  0.6507 -0.2171 -0.3574
  145SOL     OW 1012   0.397   3.536   6.301 -0.0742 -0.1624  0.3062
  145SOL    HW1 1013   0.488   3.562   6.285 -0.5358 -0.2020 -3.0372
  145SOL    HW2 1014   0.360   3.609   6.351  1.5669  0.1643  1.1316
  146SOL     OW 1015   7.425   5.738   4.931 -0.1291  0.2939 -0.4185
  146SOL    HW1 1016   7.334   5.767   4.922 -0.7157 -1.2406  0.2543
  146SOL    HW2 1017   7.456   5.782   5.010 -0.9606 -0.7118  0.5093
  147SOL     OW 1018   4.570   2.257   9.831  1.2352 -0.6320  0.2977
  147SOL    HW1 1019   4.589   2.350   9.833 -1.5531  0.0626 -1.1171
  147SOL    HW2 1020   4.549   2.235   9.922 -0.4883  0.7451  0.2778
  148SOL     OW 1021   8.103   6.459   1.789 -0.1259  0.4566  0.0568
  148SOL    HW1 1022   8.128   6.367   1.797  0.3704  0.6396  0.6690
  148SOL    HW2 1023   8.023   6.458   1.735 -0.8326 -0.4430  1.0848
  149SOL     OW 1024   8.934   6.727   7.400 -0.1052  0.0237  0.3173
  149SOL    HW1 1025   8.956   6.816   7.430 -0.1943  0.3709 -0.6105
  149SOL    HW2 1026   8.888   6.741   7.317  2.4406 -0.9749 -1.3908
  150SOL     OW 1027   1.290   1.393   3.511 -0.2213  0.2601 -0.0649
  150SOL    HW1 1028   1.254   1.479   3.487  1.4087  0.5108 -1.8771
  150SOL    HW2 1029   1.339   1.409   3.591  1.0139  1.3245 -0.9937
  151SOL     OW 1030   7.805   3.271   3.974 -0.0856 -0.4878  0.2449
  151SOL    HW1 1031   7.730   3.226   4.013  0.9017 -1.5090  1.0307
  151SOL    HW2 1032   7.794   3.258   3.880 -1.2704  0.0092  0.2957
  152SOL     OW 1033   6.390   5.369   3.145  0.1666  0.4215  0.5690
  152SOL    HW1 1034   6.432   5.454   3.146  0.4930  0.2757 -0.1615
  152SOL    HW2 1035   6.318   5.377   3.208 -0.0488  1.3578  0.2163
  153SOL     OW 1036   1.489   3.245   2.915  0.5247 -0.1235  0.3399
  153SOL    HW1 1037   1.524   3.223   3.002 -0.9200 -2.7650  0.3479
  153SOL    HW2 1038   1.566   3.245   2.858  1.5670  2.0663  1.6053
  154SOL     OW 1039   7.861   4.514   0.014  0.1120  0.6201 -0.5414
  154SOL    HW1 1040   7.876   4.568   0.093  1.6239  1.0927 -1.1078
  154SOL    HW2 1041   7.929   4.543  -0.047 -1.7711  1.1191 -2.5042
  155SOL     OW 1042   0.184   7.000   4.055 -0.1689  0.0721 -0.6513
  155SOL    HW1 1043   0.140   7.076   4.017  1.0870  1.0822 -0.1580
  155SOL    HW2 1044   0.235   7.035   4.128 -1.4677 -1.6250  1.1975
  156SOL     OW 1045   1.598   0.164   6.571 -0.5210 -0.4901  0.2685
  156SOL    HW1 1046   1.658   0.214   6.627  0.9857 -1.7774 -0.1190
  156SOL    HW2 1047   1.620   0.073   6.587 -0.7760 -0.9271 -1.5941
  157SOL     OW 1048   3.058   3.650   0.358 -0.0386  0.3279 -0.2302
  157SOL    HW1 1049   2.993   3.706   0.316  0.3289  0.3505 -0.7780
  157SOL    HW2 1050   3.142   3.677   0.320  0.1927 -0.2933 -0.1801
  158SOL     OW 1051   2.161   2.498   6.607 -0.0801 -0.3837  0.4056
  158SOL    HW1 1052   2.096   2.565   6.583  1.9344  1.4687 -0.2051
  158SOL    HW2 1053   2.199   2.471   6.524 -0.0849 -1.5154  0.7519
  159SOL     OW 1054   2.475   9.012   7.880  0.2797  0.6174  0.2950
  159SOL    HW1 1055   2.384   9.013   7.907  0.1101  4.1971  0.0514
  159SOL    HW2 1056   2.525   9.018   7.962  0.0992  2.3002  0.3169
  160SOL     OW 1057   3.203   1.479   7.465 -0.0239  0.5454 -0.6004
  160SOL    HW1 1058   3.248   1.397   7.448  2.0167  1.3285  0.6849
  160SOL    HW2 1059   3.205   1.525   7.381 -0.9063 -0.5369 -1.2448
  161SOL     OW 1060   3.239   3.523   4.201  0.5710  0.3410 -0.0598
  161SOL    HW1 1061   3.258   3.431   4.182  0.7296  0.0626  1.3801
  161SOL    HW2 1062   3.325   3.565   4.197  0.6123  0.2729  0.1133
  162SOL     OW 1063   4.502   3.924   4.879  0.1983 -0.1329 -0.0382
  162SOL    HW1 1064   4.482   3.984   4.808  1.3137 -0.4420 -0.6321
  162SOL    HW2 1065   4.573   3.966   4.927  0.9518 -0.9379 -0.4279
  163SOL     OW 1066   5.594   9.822   3.122 -0.0996  0.3902 -0.2461
  163SOL    HW1 1067   5.546   9.904   3.135 -0.7013  0.1373 -0.8180
  163SOL    HW2 1068   5.526   9.756   3.114  0.3900 -0.3390  1.1945
  164SOL     OW 1069   5.167   3.546   0.902  0.0104 -0.4522 -0.4502
  164SOL    HW1 1070   5.086   3.496   0.898 -0.3810  0.2112 -1.2086
  164SOL    HW2 1071   5.234   3.487   0.868 -0.0474 -1.1770  0.6459
  165SOL     OW 1072   4.440   1.285   1.087  0.0107 -0.7204  0.3463
  165SOL    HW1 1073   4.510   1.343   1.056 -1.1712  0.6585  0.1377
  165SOL    HW2 1074   4.361   1.338   1.080 -0.9785 -2.0433  1.1374
  166SOL     OW 1075   0.095   4.379   8.168 -0.0170  0.5443  0.1935
  166SOL    HW1 1076   0.026   4.445   8.165 -1.0468 -0.5320 -0.3268
  166SOL    HW2 1077   0.065   4.315   8.233 -0.5634 -1.0373 -1.5372
  167SOL     OW 1078   7.705   1.334   5.285  0.3840  0.1629 -0.4523
  167SOL    HW1 1079   7.713   1.284   5.366  0.2043  0.8062 -0.0347
  167SOL    HW2 1080   7.622   1.380   5.292  0.3385  0.1831 -1.0270
  168SOL     OW 1081   3.648   4.156   7.870 -0.6246  0.6429 -0.3392
  168SOL    HW1 1082   3.715   4.090   7.855 -1.0771 -0.3594  1.7551
  168SOL    HW2 1083   3.676   4.231   7.817  0.5616 -0.7657 -1.7830
  169SOL     OW 1084   2.954   7.561   9.060  0.8596  0.2664 -0.2037
  169SOL    HW1 1085   2.924   7.484   9.108  0.9993  0.0880 -0.4077
  169SOL    HW2 1086   2.974   7.530   8.972  1.0591  0.5050 -0.2439
  170SOL     OW 1087   4.700   0.332   9.227  0.1446  0.5872  0.2845
  170SOL    HW1 1088   4.649   0.282   9.163 -1.8914  1.4742  1.1107
  170SOL    HW2 1089   4.637   0.352   9.297  2.0280  0.5025  2.0923
  171SOL     OW 1090   3.886   8.972   3.854 -0.1281  0.2910  0.6696
  171SOL    HW1 1091   3.826   9.043   3.877  0.0722  0.8129 -0.3498
  171SOL    HW2 1092   3.968   9.016   3.831 -0.2832 -0.1635 -0.8997
  172SOL     OW 1093   4.120   5.303   0.928  0.7403 -0.1991 -0.0747
  172SOL    HW1 1094   4.102   5.231   0.867  0.7758 -0.8091  0.6269
  172SOL    HW2 1095   4.152   5.260   1.007  0.3088  0.5630  0.5240
  173SOL     OW 1096   4.131   8.806   1.431 -0.4302  0.1772 -0.1505
  173SOL    HW1 1097   4.110   8.776   1.519 -2.8556 -1.4080 -1.1594
  173SOL    HW2 1098   4.102   8.897   1.430 -0.7139  0.1029  0.5688
  174SOL     OW 1099   0.447   2.499   9.545  0.2200  0.3512 -0.1157
  174SOL    HW1 1100   0.531   2.500   9.591 -0.3599  2.5097  1.0425
  174SOL    HW2 1101   0.393   2.439   9.597  1.1099 -1.4188 -1.1293
  175SOL     OW 1102   0.112   5.292   6.560  0.1802  0.1070 -0.2638
  175SOL    HW1 1103   0.178   5.241   6.607 -0.3675  0.4436  0.9192
  175SOL    HW2 1104   0.146   5.301   6.472  1.2979 -0.4754  0.0967
  176SOL     OW 1105   3.823   2.820   9.877  0.2783 -0.3421  0.2609
  176SOL    HW1 1106   3.775   2.903   9.887  0.1388 -0.3725 -0.1333
  176SOL    HW2 1107   3.755   2.755   9.861  0.4700 -0.3043 -0.8052
  177SOL     OW 1108   4.489   0.797   3.465  0.3353 -0.1245  0.5928
  177SOL    HW1 1109   4.422   0.813   3.532  0.4734  1.8431  0.3213
  177SOL    HW2 1110   4.568   0.773   3.514 -0.0786 -0.6865  0.9987
  178SOL     OW 1111   8.815   8.319   8.415 -0.2007 -0.7745 -0.3896
  178SOL    HW1 1112   8.775   8.279   8.338  1.6480 -2.8230 -0.3589
  178SOL    HW2 1113   8.804   8.254   8.485 -0.8964  0.6047  0.8498
  179SOL     OW 1114   0.968   4.983   3.410  0.5439  0.4038  0.3524
  179SOL    HW1 1115   0.951   4.919   3.341  1.4634  0.8955 -0.3502
  179SOL    HW2 1116   0.890   5.039   3.412  0.4201  0.2472 -0.1315
  180SOL     OW 1117   2.300   0.468   9.618  0.0799 -0.4418  0.5886
  180SOL    HW1 1118   2.391   0.437   9.617  0.1269 -0.3581 -1.2328
  180SOL    HW2 1119   2.291   0.511   9.703  1.5340 -1.0411  1.0887
  181SOL     OW 1120   3.947   1.047   2.307 -0.1567  0.0362  0.0083
  181SOL    HW1 1121   3.996   1.040   2.226 -0.3609  0.0442 -0.1163
  181SOL    HW2 1122   3.898   1.130   2.299 -0.9002 -0.4208 -0.2590
  182SOL     OW 1123   9.297   0.378   8.022 -0.7056 -0.2749 -0.1796
  182SOL    HW1 1124   9.301   0.468   8.053 -1.0881  0.0299 -0.9924
  182SOL    HW2 1125   9.356   0.330   8.081 -0.5056  0.4953  0.2646
  183SOL     OW 1126   7.598   9.549   9.692 -0.0845  0.6027 -0.0939
  183SOL    HW1 1127   7.601   9.640   9.719 -1.0708  0.8077 -0.6325
  183SOL    HW2 1128   7.571   9.552   9.600 -0.3141 -0.2359 -0.0651
  184SOL     OW 1129   6.500   4.382   4.763 -0.1286  0.0033 -0.2630
  184SOL    HW1 1130   6.575   4.341   4.720 -1.3576 -3.2409  0.3765
  184SOL    HW2 1131   6.537   4.423   4.841  0.9991 -2.4324  0.6181
  185SOL     OW 1132   6.817   6.743   2.999  0.4492 -0.3691 -0.4925
  185SOL    HW1 1133   6.761   6.699   3.063  0.1055 -1.2246 -1.3595
  185SOL    HW2 1134   6.757   6.767   2.928  0.3770  2.5623  0.4101
  186SOL     OW 1135   3.899   5.536   6.649 -0.7173 -0.6116 -0.0976
  186SOL    HW1 1136   3.848   5.606   6.608  1.1333 -0.3544 -2.1426
  186SOL    HW2 1137   3.984   5.540   6.605  1.6048 -0.1614  3.9783
  187SOL     OW 1138   5.165   9.127   1.205  0.0038 -0.0532 -0.0560
  187SOL    HW1 1139   5.114   9.203   1.233  0.3071 -0.1961  0.9171
  187SOL    HW2 1140   5.223   9.161   1.136 -1.1671  0.1739 -0.9688
  188SOL     OW 1141   1.736   1.625   0.709 -0.1883  0.3377  0.1958
  188SOL    HW1 1142   1.679   1.565   0.662  0.0139  0.9974 -0.9229
  188SOL    HW2 1143   1.677   1.687   0.750 -0.3045  1.0609 -1.0138
  189SOL     OW 1144   1.361   3.615   1.190 -0.1592 -0.6139  0.1644
  189SOL    HW1 1145   1.406   3.538   1.156 -0.0725  0.0756 -1.3884
  189SOL    HW2 1146   1.301   3.640   1.120 -0.8613  0.1815  1.0304
  190SOL     OW 1147   4.654   1.423   7.681  0.3659 -0.5820  0.5904
  190SOL    HW1 1148   4.585   1.483   7.710  1.3287  1.1575 -0.5102
  190SOL    HW2 1149   4.694   1.391   7.762 -0.7485 -0.4299  1.2206
  191SOL     OW 1150   8.156   5.697   9.943  0.4601  0.3782  0.3066
  191SOL    HW1 1151   8.217   5.628   9.971 -1.1009 -0.2792  2.3201
  191SOL    HW2 1152   8.206   5.778   9.953  0.9613 -0.1071  2.2447
  192SOL     OW 1153   8.100   8.096   9.526 -0.2688 -0.6311 -0.2005
  192SOL    HW1 1154   8.089   8.146   9.445 -2.2588 -0.1605  0.2973
  192SOL    HW2 1155   8.163   8.147   9.577  0.0929 -0.2948 -0.9628
  193SOL     OW 1156   5.948   2.114   9.428 -0.5839 -0.3827  0.6360
  193SOL    HW1 1157   5.954   2.077   9.517  0.1427 -0.2940  0.6249
  193SOL    HW2 1158   6.038   2.133   9.404 -0.8023 -0.2085 -0.0472
  194SOL     OW 1159   6.977   7.617   7.645  0.3002  0.4335  0.8776
  194SOL    HW1 1160   7.022   7.693   7.684 -1.1808  1.8462 -0.0465
  194SOL    HW2 1161   7.042   7.580   7.585 -0.0639  3.2643 -1.4859
  195SOL     OW 1162   1.333   8.806   0.258  0.6428 -0.1759 -0.1063
  195SOL    HW1 1163   1.399   8.787   0.191  0.8012 -2.1015  0.5357
  195SOL    HW2 1164   1.376   8.867   0.318  0.8353  0.7999 -1.2120
  196SOL     OW 1165   8.524   2.825   6.878  0.2355 -0.7940 -0.3693
  196SOL    HW1 1166   8.457   2.816   6.945 -0.5182  1.2902 -0.7729
  196SOL    HW2 1167   8.600   2.779   6.914 -1.0153 -2.1850  0.6133
  197SOL     OW 1168   1.270   2.900   7.832  0.5716 -0.4706  0.0445
  197SOL    HW1 1169   1.180   2.927   7.849  0.2574 -1.1967 -0.3923
  197SOL    HW2 1170   1.279   2.906   7.737  1.2092  0.2573  0.1449
  198SOL     OW 1171   5.209   6.137   5.805  0.0131  0.2218 -0.0096
  198SOL    HW1 1172   5.118   6.159   5.788  0.3854  1.5271 -0.4229
  198SOL    HW2 1173   5.220   6.048   5.769 -0.4492  1.0419 -2.3420
  199SOL     OW 1174   8.626   9.796   4.830  0.2797 -0.0275 -0.1269
  199SOL    HW1 1175   8.535   9.823   4.844  0.2873 -0.4592  0.8179
  199SOL    HW2 1176   8.639   9.803   4.735 -1.3085 -1.7441 -0.5228
  200SOL     OW 1177   1.781   8.932   3.042 -0.7278  0.5582 -0.0508
  200SOL    HW1 1178   1.746   9.012   3.081  0.2366  1.0863 -0.2318
  200SOL    HW2 1179   1.709   8.898   2.989 -2.2294 -0.4192  2.4602
  201SOL     OW 1180   3.253   5.774   9.541  0.7730 -0.1376  0.1383
  201SOL    HW1 1181   3.261   5.869   9.548 -0.6680  0.0582 -0.4580
  201SOL    HW2 1182   3.342   5.744   9.519  1.6630  0.8449  2.1846
  202SOL     OW 1183   2.067   0.094   1.086 -0.2572  0.5778 -0.0444
  202SOL    HW1 1184   2.092   0.065   0.998 -0.4546  1.5979 -0.4495
  202SOL    HW2 1185   1.974   0.074   1.092 -0.4743  1.4112 -0.4566
  203SOL     OW 1186   4.797   2.047   9.810 -0.1111 -0.2013  0.7710
  203SOL    HW1 1187   4.844   2.130   9.822 -0.6704 -0.1710  3.5576
  203SOL    HW2 1188   4.719   2.070   9.760 -0.3904  1.0381  1.7362
  204SOL     OW 1189   8.935   4.699   7.636 -0.1101  0.4198 -0.3189
  204SOL    HW1 1190   8.950   4.721   7.544  2.5833  3.5161  0.6577
  204SOL    HW2 1191   8.847   4.731   7.654  0.1355  1.8090 -1.3756
  205SOL     OW 1192   6.690   0.320   6.716  0.8642 -0.7950  0.1753
  205SOL    HW1 1193   6.738   0.277   6.646 -0.4562 -1.1395 -0.5498
  205SOL    HW2 1194   6.601   0.330   6.682  0.2369 -0.8042  1.7229
  206SOL     OW 1195   9.470   6.042   5.793 -0.2613  0.2197  0.3622
  206SOL    HW1 1196   9.382   6.072   5.774  0.4042  1.7909 -0.3928
  206SOL    HW2 1197   9.527   6.102   5.746  1.2446 -0.2249  1.5205
  207SOL     OW 1198   4.088   3.576   0.396  0.3825  0.0692 -0.0056
  207SOL    HW1 1199   4.115   3.518   0.467  1.0239 -0.0596 -0.3490
  207SOL    HW2 1200   4.151   3.648   0.399  0.8891 -0.3197 -0.9278
  208SOL     OW 1201   4.575   3.702   1.690  0.3892 -0.2072  0.0304
  208SOL    HW1 1202   4.601   3.731   1.603  1.7221 -1.8881 -0.1792
  208SOL    HW2 1203   4.567   3.783   1.740  2.2664  0.6674 -0.9652
  209SOL     OW 1204   4.283   4.892   2.277 -0.0002 -0.5479  0.0056
  209SOL    HW1 1205   4.312   4.983   2.289 -1.0939 -0.1976  0.1240
  209SOL    HW2 1206   4.326   4.844   2.348 -0.4672  0.1325  0.7636
  210SOL     OW 1207   2.700   6.488   2.373 -0.2065 -0.6519 -0.2722
  210SOL    HW1 1208   2.773   6.542   2.404 -1.3477  0.8321 -0.0427
  210SOL    HW2 1209   2.716   6.402   2.410  1.4036 -0.3520 -0.1966
  211SOL     OW 1210   9.673   4.443   9.382 -0.7291 -0.6018  0.2067
  211SOL    HW1 1211   9.611   4.516   9.383  0.9573  0.8835  1.8918
  211SOL    HW2 1212   9.755   4.481   9.352 -0.1607 -2.1774 -0.3453
  212SOL     OW 1213   2.708   7.660   9.398 -0.6010  0.5198 -0.3342
  212SOL    HW1 1214   2.622   7.617   9.397 -0.8427  0.9869 -0.4499
  212SOL    HW2 1215   2.700   7.729   9.331 -0.7699  1.7548  0.9190
  213SOL     OW 1216   8.692   5.618   2.795 -0.0518  0.3301 -0.1846
  213SOL    HW1 1217   8.698   5.524   2.776  3.7067  0.6027 -1.3215
  213SOL    HW2 1218   8.761   5.633   2.860 -1.6862  2.1127  1.2400
  214SOL     OW 1219   4.667   0.895   7.101  0.3865 -0.7210 -0.0521
  214SOL    HW1 1220   4.693   0.944   7.178  0.0264 -0.3507 -0.1652
  214SOL    HW2 1221   4.610   0.826   7.134  0.9885 -1.1441  0.1207
  215SOL     OW 1222   1.569   2.612   4.625 -0.2699 -0.1354 -0.2905
  215SOL    HW1 1223   1.557   2.560   4.546 -0.0255 -0.6798  0.0144
  215SOL    HW2 1224   1.662   2.599   4.648 -0.4567 -0.3837  0.3485
  216SOL     OW 1225   9.500   9.129   4.449  0.0296  0.0386 -0.1250
  216SOL    HW1 1226   9.423   9.160   4.499 -0.6487 -2.2325  0.3409
  216SOL    HW2 1227   9.464   9.100   4.366  0.1598 -2.0068  0.4820
  217SOL     OW 1228   3.932   1.318   0.956 -0.6288 -0.4164 -0.6869
  217SOL    HW1 1229   3.905   1.285   1.041  1.8759 -2.0853 -0.3983
  217SOL    HW2 1230   3.958   1.409   0.971  0.3864 -0.8819  0.5355
  218SOL     OW 1231   2.004   9.094   1.054  0.7643 -0.2904 -0.2016
  218SOL    HW1 1232   2.082   9.111   1.107  0.0139 -1.0200  1.2166
  218SOL    HW2 1233   2.024   9.014   1.007  0.5352 -1.0344  0.9236
  219SOL     OW 1234   9.626   3.414   1.665  0.4242 -0.5316 -0.6467
  219SOL    HW1 1235   9.555   3.442   1.723 -0.1849  0.1631 -1.6856
  219SOL    HW2 1236   9.651   3.328   1.697 -0.1907 -0.3451  0.3703
  220SOL     OW 1237   2.014   5.448   5.244  0.4063 -0.0073  0.0168
  220SOL    HW1 1238   2.103   5.414   5.251  0.8667  1.3467  1.2621
  220SOL    HW2 1239   2.025   5.543   5.237 -0.9421  0.1629 -0.0651
  221SOL     OW 1240   1.514   4.069   5.011  0.3658 -0.2782  0.8016
  221SOL    HW1 1241   1.435   4.045   4.962  1.6952 -2.1846 -0.5911
  221SOL    HW2 1242   1.547   3.986   5.045  1.4981  0.5486  1.7945
  222SOL     OW 1243   0.520   0.629   5.308  0.1910  0.5729 -0.0321
  222SOL    HW1 1244   0.509   0.676   5.391 -0.1478  0.9550 -0.2895
  222SOL    HW2 1245   0.577   0.686   5.256  1.7794 -0.4252  0.5274
  223SOL     OW 1246   2.454   0.873   0.590  0.4517 -0.3148 -0.3925
  223SOL    HW1 1247   2.445   0.843   0.499  1.8883 -0.2986 -0.5648
  223SOL    HW2 1248   2.368   0.857   0.629 -0.0753 -0.6857 -1.6458
  224SOL     OW 1249   2.633   8.247   1.815  0.2689 -0.4261  0.0725
  224SOL    HW1 1250   2.645   8.152   1.810 -0.5305 -0.5196 -0.2130
  224SOL    HW2 1251   2.657   8.269   1.905  1.3116 -0.7624 -0.0975
  225SOL     OW 1252   3.350   5.753   9.072  0.5233  0.0163  0.4993
  225SOL    HW1 1253   3.276   5.730   9.128  1.6908  0.3134  2.2490
  225SOL    HW2 1254   3.372   5.671   9.027 -1.1569  0.0450 -0.4891
  226SOL     OW 1255   4.991   1.567   3.952 -0.3525  0.0309 -0.2157
  226SOL    HW1 1256   5.045   1.527   4.020  0.4203 -2.1188 -1.9921
  226SOL    HW2 1257   5.054   1.612   3.896 -0.7941  0.3537 -0.4542
  227SOL     OW 1258   3.047   2.297   7.380  0.0617  0.2853  0.1634
  227SOL    HW1 1259   3.045   2.355   7.303 -2.1441  0.9570  0.6395
  227SOL    HW2 1260   2.995   2.221   7.353 -1.2008  0.7709  1.1103
  228SOL     OW 1261   9.178   4.064   9.975 -0.2336 -0.3263  0.2744
  228SOL    HW1 1262   9.264   4.033   9.945 -1.2228 -2.5824 -0.4922
  228SOL    HW2 1263   9.132   3.984   9.999 -1.8900  0.9031  1.3637
  229SOL     OW 1264   8.779   2.818   1.041 -0.0560  1.0115 -0.3708
  229SOL    HW1 1265   8.689   2.813   1.008  0.5134  0.3726 -1.9141
  229SOL    HW2 1266   8.789   2.909   1.069 -1.8804  0.5573  2.0204
  230SOL     OW 1267   2.073   9.393   3.488 -0.0482 -0.0503 -0.2232
  230SOL    HW1 1268   2.165   9.366   3.487 -0.1977 -0.5655 -0.6773
  230SOL    HW2 1269   2.052   9.402   3.581  0.4648  0.0911 -0.1180
  231SOL     OW 1270   6.042   3.713   2.367  0.1892 -0.0717  0.3621
  231SOL    HW1 1271   6.027   3.807   2.355 -0.2078 -0.0493  0.9937
  231SOL    HW2 1272   5.956   3.673   2.352  0.3864 -0.3497 -0.0400
  232SOL     OW 1273   5.367   0.445   3.599 -0.5387 -0.7569  0.0946
  232SOL    HW1 1274   5.450   0.456   3.553 -0.7327  0.2129 -0.0526
  232SOL    HW2 1275   5.312   0.394   3.538  0.2664 -2.3368  0.6272
  233SOL     OW 1276   8.903   2.335   4.737  0.1736 -0.0957  0.1381
  233SOL    HW1 1277   8.843   2.270   4.773  0.3184 -0.2143  0.1651
  233SOL    HW2 1278   8.918   2.396   4.810  1.7293 -1.2236  0.7938
  234SOL     OW 1279   1.890   7.958   7.993  0.9263 -0.4042  0.5664
  234SOL    HW1 1280   1.915   7.890   7.930 -1.3935 -3.7456  2.8856
  234SOL    HW2 1281   1.799   7.977   7.971  0.4267 -0.8284  2.1835
  235SOL     OW 1282   9.928   9.728   2.191 -0.3997 -0.2886 -0.5721
  235SOL    HW1 1283   9.937   9.801   2.129 -2.0466  1.2045  0.8466
  235SOL    HW2 1284   9.839   9.695   2.176 -1.2718  0.8394  1.6658
  236SOL     OW 1285   6.992   1.598   7.264 -0.0347 -0.3880  0.5089
  236SOL    HW1 1286   7.037   1.683   7.259  1.2720 -1.1275 -1.6127
  236SOL    HW2 1287   6.914   1.615   7.317 -0.0309  2.2463 -0.1901
  237SOL     OW 1288   0.131   4.894   2.300  0.1124 -0.6747  0.6840
  237SOL    HW1 1289   0.150   4.968   2.243  0.5252 -1.1761  0.1549
  237SOL    HW2 1290   0.209   4.884   2.355 -0.2122 -0.3050  1.2272
  238SOL     OW 1291   5.905   9.042   3.851  0.1793 -0.4406  0.3572
  238SOL    HW1 1292   5.823   9.038   3.902 -0.0729 -0.7388 -0.0616
  238SOL    HW2 1293   5.898   8.968   3.790 -0.3517  0.9260 -1.3443
  239SOL     OW 1294   4.346   3.853   4.556 -0.0169 -0.2100  0.8542
  239SOL    HW1 1295   4.376   3.891   4.639  0.1492 -0.6103  0.9835
  239SOL    HW2 1296   4.370   3.917   4.490  1.7185 -0.7686  0.8828
  240SOL     OW 1297   3.676   1.566   5.203 -0.1694 -0.1491  0.0312
  240SOL    HW1 1298   3.597   1.584   5.151  0.8115  1.7681 -0.9124
  240SOL    HW2 1299   3.681   1.471   5.207 -2.9357 -0.3755  0.8083
  241SOL     OW 1300   6.636   7.487   5.308  0.3533  0.0746  0.3665
  241SOL    HW1 1301   6.646   7.406   5.357 -0.0794 -0.6782 -0.7406
  241SOL    HW2 1302   6.705   7.544   5.340  0.8846 -0.8620  0.9143
  242SOL     OW 1303   9.886   9.821   4.396  0.0082 -0.0824  0.2439
  242SOL    HW1 1304   9.927   9.850   4.314 -2.0743  0.0711 -0.7959
  242SOL    HW2 1305   9.952   9.840   4.463  1.5465  0.3378 -1.2978
  243SOL     OW 1306   4.539   2.424   9.473  0.2807  0.1456  0.4708
  243SOL    HW1 1307   4.580   2.509   9.456 -0.4245  0.6586  1.2048
  243SOL    HW2 1308   4.611   2.362   9.475  0.8411  0.7774  0.1851
  244SOL     OW 1309   6.748   1.778   9.382  0.4866 -0.3380 -0.2326
  244SOL    HW1 1310   6.761   1.684   9.368 -1.6587 -0.7936  0.3288
  244SOL    HW2 1311   6.711   1.783   9.470  0.1303  0.9871 -0.4420
  245SOL     OW 1312   5.599   2.635   1.117 -0.0903  0.2869  0.3825
  245SOL    HW1 1313   5.588   2.540   1.115  1.0318  0.1146 -2.1204
  245SOL    HW2 1314   5.567   2.662   1.203  1.2227 -2.5490  1.8902
  246SOL     OW 1315   7.073   5.541   6.780 -0.3447 -0.2780 -0.0592
  246SOL    HW1 1316   7.120   5.467   6.741 -0.2887  0.2310 -0.9943
  246SOL    HW2 1317   7.113   5.618   6.740 -0.5813  0.2512  0.7021
  247SOL     OW 1318   4.692   4.962   0.482  0.2726 -0.2578 -0.1579
  247SOL    HW1 1319   4.695   4.976   0.576 -0.1013 -0.8224 -0.0616
  247SOL    HW2 1320   4.732   5.041   0.445 -1.3269  0.8706  0.3932
  248SOL     OW 1321   0.497   3.403   3.731 -0.2758 -0.1918 -0.6805
  248SOL    HW1 1322   0.457   3.489   3.740  0.5372  0.1370 -0.0743
  248SOL    HW2 1323   0.434   3.343   3.771  0.0284  0.3820  0.7591
  249SOL     OW 1324   6.140   9.381   0.133  1.0970  1.1436  0.0662
  249SOL    HW1 1325   6.056   9.343   0.158  2.8630 -2.1257  1.7890
  249SOL    HW2 1326   6.155   9.451   0.197 -0.5060  2.1982 -0.6616
  250SOL     OW 1327   7.782   1.566   5.157 -0.0316 -0.3530  0.4238
  250SOL    HW1 1328   7.756   1.554   5.066 -0.7120 -1.0142  0.6969
  250SOL    HW2 1329   7.729   1.504   5.206 -0.9291  1.1507  1.4657
  251SOL     OW 1330   8.462   4.551   6.134  0.2470  0.3468 -0.2659
  251SOL    HW1 1331   8.482   4.507   6.217 -2.1705 -1.4665 -0.5399
  251SOL    HW2 1332   8.442   4.641   6.159 -0.8182 -0.2592  1.2313
  252SOL     OW 1333   4.418   6.890   0.441  0.2061  0.0156  0.1502
  252SOL    HW1 1334   4.421   6.907   0.347 -2.0398  1.5054  0.2714
  252SOL    HW2 1335   4.499   6.842   0.459  1.3961  0.9242 -2.2744
  253SOL     OW 1336   6.104   8.216   5.601 -0.1143  0.0024  0.3520
  253SOL    HW1 1337   6.123   8.219   5.695 -0.7586  0.2006  0.4796
  253SOL    HW2 1338   6.134   8.300   5.567 -1.1010  0.4736  0.6217
  254SOL     OW 1339   8.322   8.119   0.113  0.9478 -0.2045  0.0098
  254SOL    HW1 1340   8.402   8.158   0.146  0.2711  1.6242 -0.3620
  254SOL    HW2 1341   8.276   8.088   0.191  1.0991  0.5798  0.4162
  255SOL     OW 1342   5.819   8.898   1.576  0.7823 -0.4032  0.5388
  255SOL    HW1 1343   5.850   8.933   1.492  1.4203  1.3088  1.4601
  255SOL    HW2 1344   5.863   8.950   1.642  0.0358 -1.5155  1.9694
  256SOL     OW 1345   9.706   8.178   2.742  0.2956  0.2914 -0.2870
  256SOL    HW1 1346   9.736   8.254   2.791  1.4010  0.4191 -1.1335
  256SOL    HW2 1347   9.628   8.209   2.695  0.6177  0.8345 -0.4634
  257SOL     OW 1348   3.326   7.947   5.675  0.9848  0.4374  0.1333
  257SOL    HW1 1349   3.381   8.018   5.708  0.5816  1.3258 -1.0582
  257SOL    HW2 1350   3.258   7.936   5.741  2.2122 -0.2555  1.3262
  258SOL     OW 1351   5.741   1.008   8.589  0.4316  0.6283  0.3671
  258SOL    HW1 1352   5.736   0.925   8.541  0.0010  1.3366 -0.8541
  258SOL    HW2 1353   5.650   1.036   8.598  0.4235  0.0475  2.4804
  259SOL     OW 1354   7.212   7.756   1.641 -0.8203 -0.3700  0.2238
  259SOL    HW1 1355   7.186   7.675   1.685  0.1771 -0.0618  1.4347
  259SOL    HW2 1356   7.253   7.727   1.559 -2.0597 -0.9860 -0.2064
  260SOL     OW 1357   8.900   3.957   1.127 -0.3028 -0.0775 -0.1011
  260SOL    HW1 1358   8.910   4.052   1.123 -0.5028 -0.0975 -1.2426
  260SOL    HW2 1359   8.982   3.926   1.166 -1.2293  0.7185  2.7400
  261SOL     OW 1360   1.691   9.566   4.694 -0.8511 -0.6687 -0.1063
  261SOL    HW1 1361   1.675   9.601   4.607 -0.7828 -2.9373 -1.0902
  261SOL    HW2 1362   1.705   9.644   4.749  2.3807  0.8291 -2.6775
  262SOL     OW 1363   9.639   5.249   0.052 -0.2100 -0.3328 -0.1962
  262SOL    HW1 1364   9.651   5.180   0.117 -1.0150  0.3643  0.7214
  262SOL    HW2 1365   9.613   5.326   0.103  1.1164  0.8019 -1.1380
  263SOL     OW 1366   6.209   5.216   1.990  0.1209  0.5164 -0.4222
  263SOL    HW1 1367   6.135   5.164   2.023  0.2351  1.3084  1.1658
  263SOL    HW2 1368   6.275   5.209   2.058  0.0650  2.9085 -0.0650
  264SOL     OW 1369   8.562   9.081   8.312  0.7889 -0.3054  0.3007
  264SOL    HW1 1370   8.513   9.092   8.394  0.0066  0.9564 -0.3066
  264SOL    HW2 1371   8.524   9.003   8.272  1.4061 -1.1323  1.2786
  265SOL     OW 1372   9.251   3.274   5.510  0.0219  0.3472 -0.9534
  265SOL    HW1 1373   9.158   3.293   5.498 -0.7452 -1.9342  0.5864
  265SOL    HW2 1374   9.268   3.198   5.454  0.6399 -0.0092 -0.3075
  266SOL     OW 1375   4.254   0.875   7.148 -0.6757  0.4517 -0.1042
  266SOL    HW1 1376   4.350   0.871   7.156 -0.4471  2.3896 -1.4009
  266SOL    HW2 1377   4.230   0.790   7.109  0.3740 -0.4585  1.1495
  267SOL     OW 1378   8.045   3.152   2.537  0.6736  0.3281  0.2255
  267SOL    HW1 1379   8.041   3.099   2.616  0.7732 -0.8806 -0.5476
  267SOL    HW2 1380   7.969   3.124   2.485 -0.5536  2.5241  0.7211
  268SOL     OW 1381   4.063   1.008   8.015  0.9087 -0.3461 -0.4509
  268SOL    HW1 1382   4.115   0.953   8.074  1.2736  0.1073 -0.3473
  268SOL    HW2 1383   4.119   1.020   7.938  0.6712 -0.4417 -0.6393
  269SOL     OW 1384   9.226   6.273   1.418  0.0505  0.0843  0.0121
  269SOL    HW1 1385   9.152   6.213   1.421  0.4392 -0.4264 -0.3678
  269SOL    HW2 1386   9.300   6.222   1.452  0.4908  0.1819 -0.7738
  270SOL     OW 1387   5.056   0.885   5.671  0.1758  0.4838 -0.2571
  270SOL    HW1 1388   5.100   0.882   5.756  0.4713  0.2853 -0.4151
  270SOL    HW2 1389   5.056   0.794   5.641 -0.2697  0.4936 -0.2970
  271SOL     OW 1390   6.449   1.078   6.994 -0.2067  0.1731 -0.0383
  271SOL    HW1 1391   6.453   1.146   7.061  1.2407 -0.9421  1.0631
  271SOL    HW2 1392   6.410   1.003   7.038  2.0675 -1.0440  0.0537
  272SOL     OW 1393   1.679   6.509   3.337 -0.7685 -0.6034  0.0808
  272SOL    HW1 1394   1.659   6.583   3.393 -1.9994 -0.1282 -0.9466
  272SOL    HW2 1395   1.654   6.432   3.388  0.6076 -0.3435  1.1879
  273SOL     OW 1396   5.777   8.232   5.064 -0.1311 -0.0240 -0.1304
  273SOL    HW1 1397   5.751   8.197   5.149 -0.8387 -1.7859 -1.0219
  273SOL    HW2 1398   5.782   8.156   5.007 -1.4564  1.2761 -2.1200
  274SOL     OW 1399   1.300   6.349   0.355 -0.1057  0.1997  0.0458
  274SOL    HW1 1400   1.279   6.256   0.350  0.7442  0.0074 -0.0409
  274SOL    HW2 1401   1.321   6.365   0.446 -1.2453  0.5430  0.2697
  275SOL     OW 1402   3.914   2.607   1.492 -0.4365  0.3048 -0.6401
  275SOL    HW1 1403   3.830   2.610   1.446 -0.0507  1.5530 -1.3071
  275SOL    HW2 1404   3.954   2.525   1.462 -0.7713  0.4386 -1.4967
  276SOL     OW 1405   4.570   3.719   7.772 -0.0939  0.2956 -0.2037
  276SOL    HW1 1406   4.630   3.732   7.699  0.7392 -0.3510  0.3512
  276SOL    HW2 1407   4.500   3.664   7.737  1.2357 -1.5668 -0.0633
  277SOL     OW 1408   2.330   0.196   4.590  0.1929 -0.2493 -0.0641
  277SOL    HW1 1409   2.340   0.198   4.685  0.5564 -0.5518 -0.0933
  277SOL    HW2 1410   2.364   0.280   4.560 -2.2748  0.9319  0.2751
  278SOL     OW 1411   8.795   6.839   2.505 -0.1057  0.0191  0.1084
  278SOL    HW1 1412   8.885   6.815   2.483 -0.2035  1.7154 -2.6747
  278SOL    HW2 1413   8.743   6.763   2.477  0.2947 -0.1395 -0.2167
  279SOL     OW 1414   9.802   3.319   6.237 -0.3031 -0.0034  0.3330
  279SOL    HW1 1415   9.711   3.293   6.255  0.4011 -1.4781  2.0574
  279SOL    HW2 1416   9.800   3.353   6.148 -2.7080  0.8112  0.6103
  280SOL     OW 1417   9.776   3.277   4.207  0.3647  0.4810 -0.9485
  280SOL    HW1 1418   9.787   3.206   4.271  2.6258  0.8576 -0.8268
  280SOL    HW2 1419   9.723   3.238   4.137 -1.8411 -0.0594  0.9200
  281SOL     OW 1420   9.670   6.897   0.533  0.5134  0.0022 -0.1340
  281SOL    HW1 1421   9.715   6.813   0.523  1.6221  0.2882  1.7914
  281SOL    HW2 1422   9.672   6.937   0.446  1.1408 -1.3900 -0.7855
  282SOL     OW 1423   4.501   9.619   2.908 -0.6423 -0.2110  0.0942
  282SOL    HW1 1424   4.555   9.539   2.907 -1.0953 -0.5399  0.8841
  282SOL    HW2 1425   4.432   9.601   2.845  0.1805  0.2329 -0.9621
  283SOL     OW 1426   8.075   1.684   9.780  0.0059 -0.0841  0.1041
  283SOL    HW1 1427   8.034   1.743   9.844  0.4018 -0.1965  0.4658
  283SOL    HW2 1428   8.167   1.711   9.778  0.6445 -1.8958  1.7076
  284SOL     OW 1429   8.014   8.722   2.055  0.6329 -0.2997  0.1164
  284SOL    HW1 1430   7.938   8.696   2.004  0.8452 -1.1715  0.2329
  284SOL    HW2 1431   8.085   8.667   2.023  0.7070 -1.0590  1.5155
  285SOL     OW 1432   4.010   8.387   4.618 -0.3997 -0.5371 -0.2162
  285SOL    HW1 1433   4.001   8.399   4.523  1.2758 -1.4051 -0.5317
  285SOL    HW2 1434   4.023   8.292   4.628 -1.8896 -0.6327  1.0280
  286SOL     OW 1435   8.903   9.805   3.907 -0.5599 -0.2325 -0.6165
  286SOL    HW1 1436   8.879   9.897   3.894 -1.2708 -0.4387 -0.8481
  286SOL    HW2 1437   8.914   9.771   3.818  2.0525  0.1957 -0.5158
  287SOL     OW 1438   4.939   6.872   7.599  0.5609  0.3090  0.3357
  287SOL    HW1 1439   4.873   6.803   7.587  0.2745  0.6127  0.1287
  287SOL    HW2 1440   4.989   6.872   7.517 -0.7057  1.6591 -0.4994
  288SOL     OW 1441   8.979   6.584   8.610  0.5859 -0.0926 -0.2362
  288SOL    HW1 1442   8.963   6.490   8.607 -1.6731  0.1804  1.1920
  288SOL    HW2 1443   8.958   6.609   8.700  2.5498  1.5949 -0.1505
  289SOL     OW 1444   1.422   2.929   3.719 -0.0270  0.5554 -0.5495
  289SOL    HW1 1445   1.420   3.002   3.657 -0.7890  0.5174 -0.5815
  289SOL    HW2 1446   1.479   2.960   3.790  0.5948  0.7210 -1.1108
  290SOL     OW 1447   3.790   9.845   5.509  0.1671  0.3760 -0.3834
  290SOL    HW1 1448   3.762   9.769   5.560  0.3008  1.2555  1.0821
  290SOL    HW2 1449   3.848   9.809   5.443  0.3673 -0.7824  0.3817
  291SOL     OW 1450   9.595   8.201   3.168  0.1926 -0.1269  0.3552
  291SOL    HW1 1451   9.626   8.112   3.182  0.8746  0.3670  2.4213
  291SOL    HW2 1452   9.673   8.256   3.182 -0.2195  0.8147 -0.8404
  292SOL     OW 1453   5.381   1.192   2.141  0.0038  0.1396 -0.3504
  292SOL    HW1 1454   5.364   1.098   2.138 -0.3848  0.1570  0.9328
  292SOL    HW2 1455   5.458   1.201   2.196  1.8029  0.3992 -2.7400
  293SOL     OW 1456   0.021   0.851   2.417  0.4532 -0.2166 -0.1149
  293SOL    HW1 1457   0.036   0.785   2.485 -1.8653  2.1373  2.9886
  293SOL    HW2 1458   0.090   0.916   2.431 -0.3224  0.5198  0.4203
  294SOL     OW 1459   5.261   4.818   6.767 -0.1850  0.2345 -0.8957
  294SOL    HW1 1460   5.221   4.732   6.769 -2.3229  1.1731  0.2500
  294SOL    HW2 1461   5.219   4.863   6.693  0.4429  0.5123 -1.0930
  295SOL     OW 1462   8.790   2.250   6.340 -0.0904  0.4657 -0.1164
  295SOL    HW1 1463   8.882   2.249   6.313  0.5307  2.3443  1.7191
  295SOL    HW2 1464   8.775   2.163   6.376  0.4124 -0.4685 -2.0428
  296SOL     OW 1465   8.844   4.891   2.216 -0.0673  0.0607 -0.0717
  296SOL    HW1 1466   8.753   4.869   2.239 -0.3595  1.1087 -0.1781
  296SOL    HW2 1467   8.844   4.894   2.120 -0.3629  1.7750 -0.0441
  297SOL     OW 1468   9.464   8.148   3.545 -0.0701 -0.0360  0.3824
  297SOL    HW1 1469   9.502   8.097   3.474  1.7853  1.6463  0.0801
  297SOL    HW2 1470   9.528   8.218   3.561 -2.8079  2.7095  0.2069
  298SOL     OW 1471   6.139   5.146   3.227 -0.6036 -0.3003 -0.4202
  298SOL    HW1 1472   6.165   5.121   3.138  0.1337  0.1176 -0.3244
  298SOL    HW2 1473   6.132   5.241   3.224  1.5674 -0.0505  0.5081
  299SOL     OW 1474   1.088   9.257   7.186  0.3986  0.2447 -0.5408
  299SOL    HW1 1475   1.168   9.306   7.167  0.0288  1.3363  0.5452
  299SOL    HW2 1476   1.039   9.314   7.245 -0.4750 -1.0756  0.0577
  300SOL     OW 1477   7.277   1.060   4.080 -0.4032 -0.5736  0.5901
  300SOL    HW1 1478   7.304   1.144   4.043 -0.8600 -0.6863 -0.0052
  300SOL    HW2 1479   7.182   1.058   4.068 -0.5747 -0.6245  1.7527
  301SOL     OW 1480   1.640   0.740   1.918  0.0552 -0.3639  0.2120
  301SOL    HW1 1481   1.710   0.765   1.977  0.2917  1.5012 -0.7796
  301SOL    HW2 1482   1.568   0.800   1.939 -0.5616 -0.9966 -0.0617
  302SOL     OW 1483   4.596   6.611   3.997 -0.6082  0.2346 -0.0639
  302SOL    HW1 1484   4.578   6.689   3.944 -0.4484  0.3311  0.0223
  302SOL    HW2 1485   4.570   6.538   3.942 -1.8223  0.3891  0.2691
  303SOL     OW 1486   7.113   3.075   3.904 -0.1379  0.7887 -0.0042
  303SOL    HW1 1487   7.037   3.081   3.846 -1.2356 -0.3699  1.2639
  303SOL    HW2 1488   7.157   2.994   3.877 -1.1996 -0.2878  1.3549
  304SOL     OW 1489   9.922   6.162   7.153 -0.0133 -0.0269  0.3371
  304SOL    HW1 1490   9.984   6.091   7.136 -1.5013 -1.4221  0.4729
  304SOL    HW2 1491   9.873   6.133   7.231 -1.2211  0.7473 -0.1095
  305SOL     OW 1492   8.100   5.786   2.763 -0.2125  0.2031  0.1656
  305SOL    HW1 1493   8.109   5.834   2.846 -1.1411  0.1321  0.3125
  305SOL    HW2 1494   8.186   5.747   2.749 -0.1383 -0.0623  1.2754
  306SOL     OW 1495   3.857   4.938   7.157 -0.1767 -0.0535  0.2536
  306SOL    HW1 1496   3.898   5.020   7.187 -0.5603  0.2685 -0.0865
  306SOL    HW2 1497   3.778   4.967   7.111  1.1071 -0.4006 -2.4008
  307SOL     OW 1498   3.831   0.402   2.346 -0.2367  0.3065  0.7687
  307SOL    HW1 1499   3.913   0.443   2.318 -0.6960  0.2340 -0.7614
  307SOL    HW2 1500   3.787   0.379   2.265 -0.6169 -1.9915  1.5597
  308SOL     OW 1501   9.948   9.511   8.592  0.3987  0.1630 -0.0808
  308SOL    HW1 1502   9.954   9.431   8.539  2.9519 -0.3151  0.7550
  308SOL    HW2 1503   9.973   9.482   8.680 -0.1016  1.6228  0.5604
  309SOL     OW 1504   3.616   1.178   8.382  0.3861 -0.1075 -0.6879
  309SOL    HW1 1505   3.587   1.248   8.440 -0.2018 -0.3626 -0.6568
  309SOL    HW2 1506   3.536   1.150   8.337  0.2150 -2.0322  0.6784
  310SOL     OW 1507   1.969   6.017   1.216  0.1528  0.0202 -0.1066
  310SOL    HW1 1508   1.925   6.084   1.269 -1.6801 -1.7573  0.7866
  310SOL    HW2 1509   2.016   5.963   1.280 -0.3449 -0.9053 -0.5011
  311SOL     OW 1510   5.475   7.493   4.506  0.2458  0.5253 -0.9265
  311SOL    HW1 1511   5.509   7.407   4.482  1.3331  0.6936 -0.0829
  311SOL    HW2 1512   5.549   7.537   4.550 -0.1206  2.0749 -1.7711
  312SOL     OW 1513   6.545   8.767   9.620  0.1737 -0.2315  0.2650
  312SOL    HW1 1514   6.552   8.738   9.529 -0.9284  0.8197 -0.1838
  312SOL    HW2 1515   6.540   8.863   9.613 -2.9110 -0.2352  1.1897
  313SOL     OW 1516   2.465   3.259   8.299 -0.0751 -0.2255  0.4941
  313SOL    HW1 1517   2.488   3.351   8.289  1.7254 -0.4234  2.1777
  313SOL    HW2 1518   2.486   3.220   8.214  1.7720  0.4610  0.5791
  314SOL     OW 1519   7.270   0.047   4.093 -0.0788 -0.0426 -0.6300
  314SOL    HW1 1520   7.189   0.025   4.140  0.0262  0.2228 -0.3285
  314SOL    HW2 1521   7.328  -0.027   4.111 -0.8443 -1.1499 -2.3062
  315SOL     OW 1522   5.093   8.685   9.332 -0.2150  0.2349 -0.4850
  315SOL    HW1 1523   5.012   8.728   9.358  0.7901  1.0268  1.6186
  315SOL    HW2 1524   5.078   8.657   9.242 -2.8087  0.3026 -0.1494
  316SOL     OW 1525   6.030   2.424   9.614  0.6808  0.0229 -0.3547
  316SOL    HW1 1526   6.108   2.455   9.568  1.0195 -0.6907 -0.2749
  316SOL    HW2 1527   5.972   2.392   9.545  0.6299  0.1754 -0.3826
  317SOL     OW 1528   7.398   8.212   4.389 -0.4212 -0.3326 -0.3858
  317SOL    HW1 1529   7.324   8.154   4.372 -1.3379  0.4334  0.7599
  317SOL    HW2 1530   7.383   8.287   4.331 -0.1759 -0.4744 -0.6329
  318SOL     OW 1531   8.929   8.296   1.802 -0.5911 -0.4208 -0.4256
  318SOL    HW1 1532   8.944   8.310   1.896  1.0490 -0.1898 -0.6863
  318SOL    HW2 1533   8.898   8.380   1.770  2.2945  0.6722 -0.6771
  319SOL     OW 1534   6.898   7.596   9.802 -0.4255  0.0006  0.4864
  319SOL    HW1 1535   6.882   7.675   9.855 -0.1758  0.0889  0.4357
  319SOL    HW2 1536   6.962   7.625   9.737 -1.1081  0.0259 -0.1811
  320SOL     OW 1537   9.715   9.706   8.902 -0.4527 -0.4972  0.5378
  320SOL    HW1 1538   9.678   9.703   8.990  0.6830 -1.6233  1.0103
  320SOL    HW2 1539   9.766   9.787   8.901 -1.2794  0.0367  0.5547
  321SOL     OW 1540   1.148   1.468   8.836 -0.4696 -0.1370 -0.1322
  321SOL    HW1 1541   1.144   1.436   8.746  0.9617  1.5640 -0.8735
  321SOL    HW2 1542   1.062   1.449   8.872 -0.5363 -2.3893 -1.2899
  322SOL     OW 1543   6.173   2.844   3.147 -0.2874 -0.0404 -0.6958
  322SOL    HW1 1544   6.223   2.885   3.219 -2.0267  0.6809  0.1583
  322SOL    HW2 1545   6.238   2.792   3.100  0.8679 -0.8309  1.6006
  323SOL     OW 1546   0.245   1.361   8.036  0.1075  0.0063 -0.3585
  323SOL    HW1 1547   0.269   1.296   7.969  0.7678  0.1543 -0.2729
  323SOL    HW2 1548   0.155   1.338   8.060  0.3797 -0.9771 -0.2190
  324SOL     OW 1549   7.414   5.121   9.071  0.3244  0.6167 -0.2718
  324SOL    HW1 1550   7.324   5.095   9.052  0.0793  0.4370  1.0080
  324SOL    HW2 1551   7.450   5.047   9.121  1.2753  0.5738 -0.9926
  325SOL     OW 1552   7.327   2.844   6.966  0.2941  0.8852 -0.1203
  325SOL    HW1 1553   7.380   2.877   6.893  1.9899 -3.1670 -1.0066
  325SOL    HW2 1554   7.258   2.792   6.924  0.4147 -0.3067  1.0895
  326SOL     OW 1555   9.148   8.117   5.256  0.1211 -0.2700  0.5650
  326SOL    HW1 1556   9.204   8.056   5.304 -0.5715  1.3100  3.6323
  326SOL    HW2 1557   9.207   8.190   5.234 -0.2123  0.4532  1.9572
  327SOL     OW 1558   7.943   3.640   0.518  0.0218 -0.2531  0.2837
  327SOL    HW1 1559   8.023   3.636   0.465  0.4030  1.7505  0.6341
  327SOL    HW2 1560   7.886   3.701   0.471 -0.6995 -0.4774  0.8422
  328SOL     OW 1561   8.429   1.303   7.627 -0.2822 -0.7267  0.5751
  328SOL    HW1 1562   8.491   1.259   7.684  0.8725  0.3034  0.1594
  328SOL    HW2 1563   8.411   1.241   7.557  1.0271 -0.6959  0.1916
  329SOL     OW 1564   2.025   2.459   5.187  0.1124 -0.2764  0.0187
  329SOL    HW1 1565   2.066   2.423   5.266 -1.4579  1.0882  1.5555
  329SOL    HW2 1566   1.933   2.472   5.212 -0.2119  1.1482 -1.6935
  330SOL     OW 1567   0.943   3.463   4.751 -0.1641 -0.3383  0.3207
  330SOL    HW1 1568   0.918   3.544   4.796  0.8078 -0.0673  0.3988
  330SOL    HW2 1569   1.034   3.449   4.777 -0.3959 -1.6053  0.5187
  331SOL     OW 1570   8.264   1.968   9.259  0.1283 -0.6993  0.6955
  331SOL    HW1 1571   8.304   2.049   9.226 -0.9621 -1.4262 -2.8329
  331SOL    HW2 1572   8.177   1.994   9.288  0.0063 -0.4893  0.1568
  332SOL     OW 1573   1.826   7.824   2.855 -0.1207  0.0175  0.8452
  332SOL    HW1 1574   1.777   7.783   2.926 -0.5091 -2.4549 -0.7302
  332SOL    HW2 1575   1.917   7.821   2.884 -0.3214 -0.5311  1.4437
  333SOL     OW 1576   8.015   7.826   2.358  0.5766  0.5605  0.4559
  333SOL    HW1 1577   7.967   7.746   2.337 -0.8928  1.5836 -0.2923
  333SOL    HW2 1578   7.959   7.871   2.421  1.1489  1.2191  0.5016
  334SOL     OW 1579   7.424   5.214   9.739 -0.0295  0.2119  0.5763
  334SOL    HW1 1580   7.414   5.305   9.768 -1.3642  1.0686 -2.1674
  334SOL    HW2 1581   7.436   5.221   9.644  2.1548 -2.4080  0.5572
  335SOL     OW 1582   2.448   0.202   2.343  0.5676  0.4615 -0.3894
  335SOL    HW1 1583   2.423   0.291   2.319  0.8369  1.1183  1.6154
  335SOL    HW2 1584   2.379   0.147   2.307 -0.3701  1.6188 -0.4053
  336SOL     OW 1585   1.462   2.999   4.889 -0.2498  0.0253 -0.1698
  336SOL    HW1 1586   1.485   2.980   4.980 -0.2424 -0.6529 -0.3077
  336SOL    HW2 1587   1.481   2.918   4.843 -0.6161  0.2492 -0.7144
  337SOL     OW 1588   6.973   6.911   3.156  0.5327  0.1378  0.0822
  337SOL    HW1 1589   6.927   6.863   3.088 -1.1731 -0.0060  1.2733
  337SOL    HW2 1590   7.019   6.843   3.207  0.7425  0.1110 -0.1422
  338SOL     OW 1591   1.060   8.025   5.472 -0.2874 -0.4702  0.0070
  338SOL    HW1 1592   1.003   7.951   5.493 -0.1318 -0.3939  0.7394
  338SOL    HW2 1593   1.050   8.084   5.547  1.0452 -0.6333  0.3425
  339SOL     OW 1594   2.493   4.590   5.784  0.2029 -0.0070  0.6619
  339SOL    HW1 1595   2.417   4.618   5.835  0.2117  0.9718  0.1740
  339SOL    HW2 1596   2.456   4.553   5.704  0.2150 -0.6906  0.9654
  340SOL     OW 1597   5.840   7.095   8.789  0.2068 -0.1182 -0.3433
  340SOL    HW1 1598   5.782   7.157   8.745  2.2297  0.8543 -1.7642
  340SOL    HW2 1599   5.803   7.009   8.766 -0.0226  0.4286 -2.2418
  341SOL     OW 1600   1.451   7.143   1.149 -0.4052  0.1193  0.8368
  341SOL    HW1 1601   1.516   7.206   1.178 -0.0392 -0.3924  1.1335
  341SOL    HW2 1602   1.371   7.195   1.137  0.0304  0.7309  0.5450
  342SOL     OW 1603   0.242   1.759   2.729  0.2149  0.3126  0.0543
  342SOL    HW1 1604   0.336   1.742   2.738  0.6848  2.4736 -0.1740
  342SOL    HW2 1605   0.205   1.730   2.812  1.1939  0.0549  0.4215
  343SOL     OW 1606   2.213   9.245   6.424  0.2331  0.0859 -0.1016
  343SOL    HW1 1607   2.134   9.194   6.406  0.9034 -0.8075 -0.5652
  343SOL    HW2 1608   2.185   9.311   6.488 -0.5814 -1.0195  0.7074
  344SOL     OW 1609   4.127   0.415   7.278  0.4332  0.0235  0.2024
  344SOL    HW1 1610   4.043   0.430   7.322 -0.0612 -0.3561 -0.5960
  344SOL    HW2 1611   4.192   0.442   7.343 -0.2702 -0.7378  1.2684
  345SOL     OW 1612   7.394   8.594   0.009  0.1295  0.6298  0.1693
  345SOL    HW1 1613   7.354   8.663   0.063  0.3137  0.5866  0.3618
  345SOL    HW2 1614   7.434   8.535   0.072  2.0004  1.5766 -0.0601
  346SOL     OW 1615   0.532   6.457   3.473 -0.4352  0.3247 -0.4594
  346SOL    HW1 1616   0.603   6.507   3.515 -1.1032  2.9907 -2.2307
  346SOL    HW2 1617   0.453   6.506   3.497 -1.6555 -2.0516  0.6936
  347SOL     OW 1618   2.432   8.997   2.605  0.7604 -0.0782  0.2694
  347SOL    HW1 1619   2.384   8.996   2.688  1.6441  1.0450  0.8264
  347SOL    HW2 1620   2.460   8.906   2.591 -1.0390 -0.6585  0.1876
  348SOL     OW 1621   1.774   4.234   7.076 -0.2983 -0.2672 -0.2392
  348SOL    HW1 1622   1.851   4.259   7.025 -0.2091 -0.2843 -0.1153
  348SOL    HW2 1623   1.708   4.301   7.056  0.3389  0.8003  1.0364
  349SOL     OW 1624   7.028   6.198   5.209 -0.2291 -0.1992 -0.8294
  349SOL    HW1 1625   7.045   6.283   5.168 -1.0229 -0.1876 -1.1493
  349SOL    HW2 1626   6.991   6.219   5.295  2.3434 -0.2083  0.3887
  350SOL     OW 1627   8.256   1.872   6.484 -0.4359  0.1953  0.0323
  350SOL    HW1 1628   8.290   1.952   6.523 -1.4519  0.0692  1.2669
  350SOL    HW2 1629   8.279   1.803   6.546 -1.8518 -0.0524  0.3305
  351SOL     OW 1630   0.600   6.562   5.047  0.4836  0.1754  0.2218
  351SOL    HW1 1631   0.636   6.577   4.960  0.5281  2.4532  0.5552
  351SOL    HW2 1632   0.520   6.511   5.032  1.9177 -1.8469 -0.8464
  352SOL     OW 1633   5.402   2.809   0.967  0.5052  0.2600  0.4297
  352SOL    HW1 1634   5.463   2.747   1.006  0.5138 -0.9933 -1.4387
  352SOL    HW2 1635   5.377   2.867   1.039 -0.1992 -2.4442  2.5554
  353SOL     OW 1636   2.771   4.319   8.421 -0.6530 -0.6201  0.0862
  353SOL    HW1 1637   2.679   4.346   8.426 -0.9976 -1.7669  0.0872
  353SOL    HW2 1638   2.772   4.231   8.457  0.1024 -1.4325 -1.7985
  354SOL     OW 1639   3.614   3.376   5.747  0.1294 -0.4811  0.4073
  354SOL    HW1 1640   3.633   3.426   5.668 -1.7625  0.2001  0.3234
  354SOL    HW2 1641   3.691   3.321   5.760  0.7793 -0.1057 -1.5116
  355SOL     OW 1642   6.380   0.392   8.888 -0.0738  0.4834  0.1421
  355SOL    HW1 1643   6.304   0.335   8.900 -0.0702  0.1192 -1.3626
  355SOL    HW2 1644   6.357   0.474   8.931 -1.4948  0.5046 -0.6168
  356SOL     OW 1645   2.826   4.765   1.800  0.1097 -0.1488 -0.4306
  356SOL    HW1 1646   2.911   4.731   1.829 -0.1578 -0.6666 -0.2419
  356SOL    HW2 1647   2.789   4.695   1.747 -0.3181 -0.0329 -0.2863
  357SOL     OW 1648   8.775   8.950   5.313 -0.7505  0.5276  0.6139
  357SOL    HW1 1649   8.702   8.912   5.264 -0.1546  1.2099 -0.8623
  357SOL    HW2 1650   8.760   9.045   5.310 -0.1908  0.6346  0.9348
  358SOL     OW 1651   0.230   6.956   0.970  0.0710  0.6077 -0.3681
  358SOL    HW1 1652   0.188   6.983   1.052 -0.2904  0.3857 -0.4773
  358SOL    HW2 1653   0.280   7.033   0.942 -0.7176  1.0785 -0.5268
  359SOL     OW 1654   2.303   0.710   8.272  0.4212  0.6412 -0.1990
  359SOL    HW1 1655   2.251   0.644   8.319 -0.2692  0.6105 -0.9751
  359SOL    HW2 1656   2.392   0.676   8.273  0.3227  0.3838  0.6149
  360SOL     OW 1657   0.208   0.226   2.798  0.6573  0.4879 -0.5194
  360SOL    HW1 1658   0.128   0.263   2.762  1.4160  1.7104 -1.0156
  360SOL    HW2 1659   0.194   0.227   2.893  0.1453  0.8565 -0.5935
  361SOL     OW 1660   8.873   3.210   2.106  0.1651 -0.5434 -0.6890
  361SOL    HW1 1661   8.833   3.229   2.190  1.7577  0.6267 -0.1277
  361SOL    HW2 1662   8.872   3.294   2.060 -0.5975 -1.1456 -1.8139
  362SOL     OW 1663   7.544   2.339   3.478  0.7112  0.0375 -0.2516
  362SOL    HW1 1664   7.637   2.362   3.484  1.0078 -1.3951  1.3714
  362SOL    HW2 1665   7.527   2.287   3.557 -1.0744 -1.1477 -1.3600
  363SOL     OW 1666   2.972   7.080   9.784  0.3687 -0.2427  0.1864
  363SOL    HW1 1667   3.052   7.119   9.748  1.0777 -0.2194  1.7357
  363SOL    HW2 1668   2.901   7.133   9.746  1.0717 -0.1255 -1.0316
  364SOL     OW 1669   5.875   8.310   8.567  0.5524 -0.1778 -0.5978
  364SOL    HW1 1670   5.832   8.225   8.569 -1.1555  0.4503 -3.6220
  364SOL    HW2 1671   5.963   8.292   8.536  0.2015 -0.8958 -1.2256
  365SOL     OW 1672   0.535   2.509   4.515  0.7726  0.2783  0.1234
  365SOL    HW1 1673   0.597   2.556   4.459  1.2668 -1.7223 -1.1180
  365SOL    HW2 1674   0.555   2.417   4.500 -2.5108 -0.4821 -0.3303
  366SOL     OW 1675   1.045   2.777   7.248 -0.4945 -0.1344  0.3058
  366SOL    HW1 1676   1.114   2.830   7.290 -0.6199  0.0890  0.2299
  366SOL    HW2 1677   0.992   2.746   7.321 -1.6183  1.5082  0.2339
  367SOL     OW 1678   4.451   9.184   0.484  0.2321 -0.5788  1.0193
  367SOL    HW1 1679   4.535   9.148   0.514  0.3079 -1.6412 -0.3718
  367SOL    HW2 1680   4.396   9.107   0.468 -0.0572 -0.0487 -0.7548
  368SOL     OW 1681   1.332   4.009   9.026  0.4700 -0.4641  0.4701
  368SOL    HW1 1682   1.414   3.965   9.003  1.5802  1.3494  0.7662
  368SOL    HW2 1683   1.296   4.039   8.942  1.1776  0.5137  0.5077
  369SOL     OW 1684   9.375   0.967   7.477 -0.0819  0.4605  0.1318
  369SOL    HW1 1685   9.356   0.877   7.503 -0.4266 -0.0915 -1.8897
  369SOL    HW2 1686   9.444   0.995   7.537 -0.4345 -0.8987  1.2224
  370SOL     OW 1687   0.030   4.135   3.891 -0.7604 -0.0357 -0.3695
  370SOL    HW1 1688   0.037   4.066   3.956 -0.1640 -0.8304 -1.2459
  370SOL    HW2 1689   0.121   4.154   3.867 -0.9384  0.7967 -0.4057
  371SOL     OW 1690   8.099   0.316   1.718 -0.5021 -0.3994 -0.0803
  371SOL    HW1 1691   8.147   0.386   1.763 -0.2179 -1.5271  1.4485
  371SOL    HW2 1692   8.163   0.280   1.656  0.0165 -0.6092  0.5606
  372SOL     OW 1693   7.401   3.574   5.937 -0.6855  0.2012 -0.0081
  372SOL    HW1 1694   7.359   3.493   5.966  0.0106  0.0944  0.7429
  372SOL    HW2 1695   7.371   3.641   5.999 -1.2589  0.5227 -0.6262
  373SOL     OW 1696   7.008   6.938   7.302 -0.0972 -0.1733 -0.3052
  373SOL    HW1 1697   6.943   6.882   7.258 -0.6233 -0.5313  0.8800
  373SOL    HW2 1698   7.004   6.911   7.394  0.5948  0.9143  0.0591
  374SOL     OW 1699   8.755   0.894   3.822 -0.0525 -0.3181 -0.0376
  374SOL    HW1 1700   8.729   0.936   3.740  0.5309  1.1805  0.5129
  374SOL    HW2 1701   8.695   0.930   3.887  0.9036  0.2192  0.5708
  375SOL     OW 1702   0.946   8.170   7.350 -0.5928 -0.7039 -0.2679
  375SOL    HW1 1703   0.982   8.120   7.423 -0.3742  2.0031  1.6178
  375SOL    HW2 1704   0.958   8.114   7.274  2.4101 -2.2463  1.1981
  376SOL     OW 1705   1.919   2.833   3.766  0.2294  0.3113 -0.2395
  376SOL    HW1 1706   1.959   2.862   3.849  0.5162 -1.0796  0.1386
  376SOL    HW2 1707   1.852   2.770   3.793  0.7013 -0.5727 -1.0946
  377SOL     OW 1708   9.334   0.362   9.796 -0.6289  0.2159  0.0508
  377SOL    HW1 1709   9.290   0.307   9.731  0.4898  0.6966 -1.1638
  377SOL    HW2 1710   9.263   0.405   9.843 -1.5271  1.9115 -2.6356
  378SOL     OW 1711   8.757   6.374   8.153 -0.2695  0.2945 -0.6908
  378SOL    HW1 1712   8.725   6.447   8.100  0.6052  1.1579 -0.0414
  378SOL    HW2 1713   8.704   6.377   8.233 -1.7405 -1.1409 -1.5397
  379SOL     OW 1714   0.342   4.585   6.727 -0.1031 -0.0619  1.2591
  379SOL    HW1 1715   0.313   4.593   6.637  0.0962  0.2353  1.2203
  379SOL    HW2 1716   0.391   4.666   6.744  0.1319 -0.2570  1.5290
  380SOL     OW 1717   3.675   7.847   3.032  0.4470  0.1804 -0.3954
  380SOL    HW1 1718   3.595   7.899   3.047  1.7560  1.5262  2.8107
  380SOL    HW2 1719   3.741   7.912   3.010  1.8959 -0.0511  2.7377
  381SOL     OW 1720   8.690   9.728   8.152  0.1383  0.1252  0.6754
  381SOL    HW1 1721   8.681   9.654   8.212  3.1956  0.1604  1.3402
  381SOL    HW2 1722   8.700   9.688   8.065 -0.9879 -0.0629  0.6131
  382SOL     OW 1723   2.083   6.338   4.153  0.2929 -0.9484 -0.0432
  382SOL    HW1 1724   2.166   6.363   4.195 -0.8860  0.1115  1.7999
  382SOL    HW2 1725   2.046   6.272   4.212 -0.4191 -1.0264 -0.5742
  383SOL     OW 1726   7.233   3.852   1.842 -0.0853  0.6631 -0.0793
  383SOL    HW1 1727   7.288   3.910   1.895  0.3333  0.1271  0.0878
  383SOL    HW2 1728   7.289   3.826   1.769 -0.0168 -0.0902  0.2292
  384SOL     OW 1729   6.194   0.839   5.111  0.3803 -0.1546 -0.3994
  384SOL    HW1 1730   6.282   0.803   5.122  1.0841  1.8185  1.0249
  384SOL    HW2 1731   6.202   0.898   5.037  0.3206  0.1961 -0.1278
  385SOL     OW 1732   4.034   9.301   8.513  0.1934 -0.0767  0.0928
  385SOL    HW1 1733   3.986   9.249   8.449  0.5143  1.3918 -1.4287
  385SOL    HW2 1734   4.006   9.391   8.495  1.2643  0.4914  1.1800
  386SOL     OW 1735   1.723   5.065   8.575 -0.4102 -0.1254  0.0653
  386SOL    HW1 1736   1.809   5.043   8.540  0.3507 -0.9369  2.2781
  386SOL    HW2 1737   1.739   5.143   8.629 -1.0056 -0.4537  0.7227
  387SOL     OW 1738   6.599   9.519   7.180  0.5193 -0.3979 -0.2596
  387SOL    HW1 1739   6.599   9.570   7.261  0.0407  0.3496 -0.7225
  387SOL    HW2 1740   6.662   9.564   7.123  0.6384 -0.7509 -0.4136
  388SOL     OW 1741   5.155   3.232   1.086  0.0937 -0.1298  0.2491
  388SOL    HW1 1742   5.218   3.169   1.120 -0.6551 -0.6388  0.7139
  388SOL    HW2 1743   5.187   3.317   1.117  0.8840 -0.3156 -0.0384
  389SOL     OW 1744   3.421   3.628   8.163  0.8139  0.6911  0.6818
  389SOL    HW1 1745   3.431   3.593   8.074  0.2887  1.3186  0.3671
  389SOL    HW2 1746   3.509   3.622   8.201  0.6859 -1.2175  0.7482
  390SOL     OW 1747   1.507   3.323   2.234 -0.2994 -0.3945 -0.0830
  390SOL    HW1 1748   1.490   3.255   2.300  1.7561  0.0785  1.0370
  390SOL    HW2 1749   1.527   3.275   2.154  0.6587 -1.1458  0.5763
  391SOL     OW 1750   4.437   8.558   1.674  0.3347 -0.3869  0.7266
  391SOL    HW1 1751   4.478   8.499   1.737  2.2708  1.0279  0.9049
  391SOL    HW2 1752   4.397   8.627   1.727  0.6957  0.0239  0.4818
  392SOL     OW 1753   3.442   1.217   1.855  0.1447  0.4663 -0.4766
  392SOL    HW1 1754   3.389   1.228   1.933 -0.2269 -0.9319 -0.5173
  392SOL    HW2 1755   3.381   1.233   1.782 -0.5505 -2.1116 -0.5533
  393SOL     OW 1756   2.175   8.631   5.446 -0.2871  0.1124 -0.1455
  393SOL    HW1 1757   2.193   8.597   5.534 -0.2962 -1.4467 -0.7053
  393SOL    HW2 1758   2.100   8.689   5.458 -0.8403 -0.7548  0.7501
  394SOL     OW 1759   5.218   0.196   1.331 -0.3949 -0.1128  0.2250
  394SOL    HW1 1760   5.175   0.256   1.270 -1.8476 -0.7766  0.5491
  394SOL    HW2 1761   5.300   0.240   1.355 -2.2901  2.7124  2.0214
  395SOL     OW 1762   9.662   2.761   1.101 -0.3942  0.6313  0.0228
  395SOL    HW1 1763   9.647   2.798   1.188 -2.5359  1.2229 -0.5456
  395SOL    HW2 1764   9.753   2.783   1.081 -0.0005  0.8892  1.8948
  396SOL     OW 1765   5.647   2.950   1.669 -0.0962  0.2981  0.0848
  396SOL    HW1 1766   5.608   2.868   1.640 -0.8811 -0.6271  3.3389
  396SOL    HW2 1767   5.741   2.935   1.664 -0.1224  0.5605 -2.6398
  397SOL     OW 1768   9.405   8.674   7.641  0.1967 -0.3564 -0.1058
  397SOL    HW1 1769   9.327   8.623   7.662 -0.0247 -0.0409 -0.1494
  397SOL    HW2 1770   9.386   8.715   7.557 -0.5502  1.5739  0.9453
  398SOL     OW 1771   0.691   5.029   8.699 -0.5691 -0.4842 -0.0325
  398SOL    HW1 1772   0.645   4.977   8.765  1.8189 -0.8761  1.4311
  398SOL    HW2 1773   0.735   4.965   8.644  0.3975 -0.1053  0.2733
  399SOL     OW 1774   2.418   9.793   5.902 -0.5458 -0.0911 -0.2211
  399SOL    HW1 1775   2.328   9.765   5.891 -0.4761 -0.1428 -0.6995
  399SOL    HW2 1776   2.438   9.776   5.994 -1.6356  1.7191  0.4047
  400SOL     OW 1777   7.299   7.612   8.612  0.5637 -0.0457 -0.3427
  400SOL    HW1 1778   7.253   7.692   8.586  1.6194  0.9418  0.6824
  400SOL    HW2 1779   7.243   7.541   8.582 -1.3392  1.0799  0.3784
  401SOL     OW 1780   7.562   0.078   6.250  0.4197  0.0599 -0.7692
  401SOL    HW1 1781   7.604  -0.005   6.274 -1.6605 -1.1544 -1.1184
  401SOL    HW2 1782   7.545   0.069   6.156  2.0792  1.8233 -1.3073
  402SOL     OW 1783   1.432   1.536   8.525  0.5992 -0.1085 -0.2239
  402SOL    HW1 1784   1.521   1.571   8.520  0.5099  0.2476  0.5142
  402SOL    HW2 1785   1.377   1.612   8.541  0.4655 -0.6018  2.0103
  403SOL     OW 1786   0.412   2.773   4.537  0.0175  0.2613  0.0066
  403SOL    HW1 1787   0.320   2.775   4.563  0.2208  0.9876  0.7334
  403SOL    HW2 1788   0.440   2.684   4.555 -1.1299 -0.6738 -2.4509
  404SOL     OW 1789   6.039   3.212   5.271  0.3073 -0.3422 -0.1526
  404SOL    HW1 1790   5.968   3.243   5.326  0.8310 -0.1704  0.4360
  404SOL    HW2 1791   6.029   3.117   5.270 -0.3865 -0.2691 -0.7080
  405SOL     OW 1792   8.482   8.999   0.713 -0.1311 -0.2239  0.1062
  405SOL    HW1 1793   8.434   9.082   0.707  2.1787  1.1643 -0.4787
  405SOL    HW2 1794   8.497   8.974   0.622  1.9289  0.4663  0.2051
  406SOL     OW 1795   7.708   1.913   5.783 -0.3785  0.1426  0.2158
  406SOL    HW1 1796   7.679   1.861   5.709  0.6459 -0.2021  0.0365
  406SOL    HW2 1797   7.684   1.862   5.860  0.6198 -0.6187  0.0410
  407SOL     OW 1798   4.879   7.128   7.689 -0.0865  0.2784 -0.5337
  407SOL    HW1 1799   4.892   7.035   7.677  1.1299  0.3237  0.2434
  407SOL    HW2 1800   4.876   7.165   7.601 -1.1722 -0.5543 -0.8567
  408SOL     OW 1801   1.587   5.534   7.940  0.4820  0.1347  0.2052
  408SOL    HW1 1802   1.617   5.456   7.987 -0.0727  0.0107  0.3609
  408SOL    HW2 1803   1.593   5.605   8.004  1.5975  0.3493 -0.1265
  409SOL     OW 1804   1.999   6.022   5.773  0.0432 -0.2178  0.2049
  409SOL    HW1 1805   1.996   6.117   5.768 -0.5335 -0.2865 -0.9432
  409SOL    HW2 1806   2.088   6.002   5.801  0.0761  0.6618  0.7493
  410SOL     OW 1807   2.821   7.600   6.763 -0.7655 -0.0813 -0.3040
  410SOL    HW1 1808   2.890   7.534   6.766 -1.0029 -0.3060  0.5882
  410SOL    HW2 1809   2.811   7.629   6.854 -0.3018  1.5744 -0.7399
  411SOL     OW 1810   5.571   0.351   5.332  0.3929  0.4923  0.3810
  411SOL    HW1 1811   5.608   0.403   5.262  0.6308 -0.6395 -0.3474
  411SOL    HW2 1812   5.484   0.325   5.300 -0.5810  2.0697  1.5559
  412SOL     OW 1813   2.063   6.461   0.916 -0.2624  0.1622 -0.0874
  412SOL    HW1 1814   2.113   6.422   0.845  1.0042  0.0441  0.8236
  412SOL    HW2 1815   1.972   6.461   0.885  0.4096  1.3967 -2.2622
  413SOL     OW 1816   4.542   5.485   6.398  0.4485  1.1999 -0.1080
  413SOL    HW1 1817   4.624   5.481   6.349  0.2122  1.7361 -0.5607
  413SOL    HW2 1818   4.494   5.407   6.369  0.2568  1.5773 -0.8370
  414SOL     OW 1819   9.413   0.937   0.664 -0.6836 -0.3414 -0.1655
  414SOL    HW1 1820   9.418   0.851   0.622 -1.7559 -0.3960 -0.1879
  414SOL    HW2 1821   9.330   0.974   0.635 -0.1174  0.8251 -0.3655
  415SOL     OW 1822   4.664   9.870   2.200  0.4148  1.0220  0.9526
  415SOL    HW1 1823   4.751   9.892   2.231 -0.4019  1.0181  3.4363
  415SOL    HW2 1824   4.618   9.954   2.194  0.1791  0.8979  0.9967
  416SOL     OW 1825   4.372   2.486   0.932 -0.4442  0.0202 -0.7122
  416SOL    HW1 1826   4.356   2.546   0.859  1.5855 -0.1990 -1.3840
  416SOL    HW2 1827   4.426   2.535   0.994 -1.2179 -0.1691  0.1393
  417SOL     OW 1828   0.235   9.564   5.118 -0.8104  0.2804 -0.3002
  417SOL    HW1 1829   0.321   9.565   5.075 -1.0735  2.7423 -0.9421
  417SOL    HW2 1830   0.254   9.547   5.210  0.2585 -0.2800 -0.6080
  418SOL     OW 1831   7.082   5.661   3.700  0.1257 -0.2468 -0.1555
  418SOL    HW1 1832   7.018   5.679   3.768 -1.0886 -1.6802 -0.8445
  418SOL    HW2 1833   7.148   5.606   3.743  0.6478  0.7969  0.4210
  419SOL     OW 1834   2.434   5.815   4.698 -0.0081  0.0778 -0.3167
  419SOL    HW1 1835   2.488   5.821   4.777  0.1503  1.0345 -0.4901
  419SOL    HW2 1836   2.395   5.902   4.688 -0.2321 -0.1069 -1.1533
  420SOL     OW 1837   8.408   8.141   6.448 -0.1058  0.2037  0.1172
  420SOL    HW1 1838   8.450   8.078   6.506 -0.6749 -0.4618 -0.1883
  420SOL    HW2 1839   8.481   8.194   6.415  0.2802  0.2761  1.0399
  421SOL     OW 1840   2.803   6.346   0.828 -0.0403  0.2702  0.8601
  421SOL    HW1 1841   2.804   6.254   0.855 -0.7910 -0.1771 -0.5793
  421SOL    HW2 1842   2.722   6.381   0.863 -0.3978  0.0225  0.2955
  422SOL     OW 1843   3.679   3.201   1.845  0.1189 -0.4621 -0.6900
  422SOL    HW1 1844   3.619   3.126   1.838 -1.2581  0.4345  0.8699
  422SOL    HW2 1845   3.721   3.190   1.930 -0.6773  0.9111 -0.0854
  423SOL     OW 1846   8.514   5.112   3.537  0.1202  0.2510 -0.0835
  423SOL    HW1 1847   8.527   5.018   3.537 -1.8675 -0.0715  1.0045
  423SOL    HW2 1848   8.602   5.148   3.549  0.8670 -1.4564 -0.1775
  424SOL     OW 1849   6.872   7.913   2.308 -0.1106 -0.2576 -0.4358
  424SOL    HW1 1850   6.910   7.826   2.301 -0.7245 -0.7205  1.3275
  424SOL    HW2 1851   6.789   7.899   2.354 -0.9505  1.0837 -1.4753
  425SOL     OW 1852   9.014   8.050   1.078 -0.1262  0.3017  0.5408
  425SOL    HW1 1853   9.066   8.021   1.153  2.5723  2.8447 -0.1363
  425SOL    HW2 1854   8.980   8.135   1.105 -1.6835 -0.0919 -0.0931
  426SOL     OW 1855   7.274   3.217   7.706  0.2190  0.5157  0.2806
  426SOL    HW1 1856   7.200   3.206   7.646  0.8743 -2.1340 -0.1570
  426SOL    HW2 1857   7.351   3.205   7.651  0.8608 -0.4652  1.3595
  427SOL     OW 1858   1.738   9.881   8.915  0.5501  0.2848  0.0644
  427SOL    HW1 1859   1.796   9.887   8.839  0.4001  0.5797 -0.0254
  427SOL    HW2 1860   1.732   9.970   8.948  1.0935  0.0623  0.7841
  428SOL     OW 1861   0.997   4.329   5.968  0.2213  0.2093  0.3293
  428SOL    HW1 1862   0.936   4.255   5.971 -0.4486  0.7823  1.6045
  428SOL    HW2 1863   0.943   4.404   5.942  0.5199  0.5980  0.8107
  429SOL     OW 1864   3.906   5.252   9.135 -0.5231  0.3074 -0.6296
  429SOL    HW1 1865   3.959   5.298   9.200  0.8228  0.5444 -1.8486
  429SOL    HW2 1866   3.818   5.288   9.145 -0.5927 -0.3154  1.6583
  430SOL     OW 1867   5.570   2.579   9.233 -0.2106  0.6048 -0.3012
  430SOL    HW1 1868   5.509   2.653   9.234 -1.7417 -0.5945 -0.8086
  430SOL    HW2 1869   5.519   2.507   9.196  0.5143 -1.3066  2.1626
  431SOL     OW 1870   5.366   2.073   6.354  0.0540 -0.8309  0.1250
  431SOL    HW1 1871   5.287   2.021   6.341 -0.1411 -0.6616  0.5765
  431SOL    HW2 1872   5.333   2.159   6.382  0.3585 -0.3880 -0.8258
  432SOL     OW 1873   1.625   7.844   3.371  0.1241 -0.5893  0.3221
  432SOL    HW1 1874   1.679   7.789   3.427 -0.6636 -2.2726 -0.4901
  432SOL    HW2 1875   1.563   7.885   3.431  1.1205 -0.0792  1.0231
  433SOL     OW 1876   4.882   5.373   2.628 -0.0667 -0.3886  0.1093
  433SOL    HW1 1877   4.790   5.359   2.651 -0.2067  1.0360  0.5154
  433SOL    HW2 1878   4.895   5.322   2.548 -1.3983 -0.0218 -0.3589
  434SOL     OW 1879   5.872   7.209   5.204  0.0075  0.2233 -0.2944
  434SOL    HW1 1880   5.908   7.294   5.231 -2.2644  1.2048 -0.0709
  434SOL    HW2 1881   5.937   7.145   5.233  0.2245  1.6202  2.7649
  435SOL     OW 1882   1.206   6.035   8.111 -0.1317 -0.2447 -0.3121
  435SOL    HW1 1883   1.255   5.964   8.070  0.8209  0.2157 -0.0057
  435SOL    HW2 1884   1.240   6.115   8.069  1.8559  0.3757  2.1998
  436SOL     OW 1885   5.794   8.781   8.622  0.3778  0.4732 -0.3391
  436SOL    HW1 1886   5.741   8.860   8.622 -0.7110 -0.2060 -1.7026
  436SOL    HW2 1887   5.831   8.776   8.534  1.8931  0.3756  0.2686
  437SOL     OW 1888   9.808   7.258   2.140  0.2414  0.0754  0.2217
  437SOL    HW1 1889   9.867   7.333   2.139 -0.6273  0.7734 -0.4495
  437SOL    HW2 1890   9.828   7.211   2.059 -1.0928  1.1233 -0.7602
  438SOL     OW 1891   1.391   0.605   8.939 -0.1290  0.0037 -0.0413
  438SOL    HW1 1892   1.399   0.648   8.853  1.5613  2.7318  1.3357
  438SOL    HW2 1893   1.301   0.622   8.965  0.0331  1.3464 -0.2632
  439SOL     OW 1894   1.404   8.347   7.159  0.2712  0.1401  0.1670
  439SOL    HW1 1895   1.467   8.411   7.127  1.1310  0.0182  1.5332
  439SOL    HW2 1896   1.399   8.281   7.091 -0.7166  1.6764 -1.3419
  440SOL     OW 1897   1.004   0.415   8.044 -0.5772 -0.3687  0.1314
  440SOL    HW1 1898   0.978   0.323   8.036 -3.7608  0.0806  3.2055
  440SOL    HW2 1899   1.060   0.430   7.968 -1.5483 -4.2759 -1.6144
  441SOL     OW 1900   6.739   7.273   3.647  0.2743 -0.0942 -0.3421
  441SOL    HW1 1901   6.699   7.304   3.566  1.0297  1.9526  0.0275
  441SOL    HW2 1902   6.833   7.276   3.630  0.4287 -0.0353  0.4891
  442SOL     OW 1903   9.503   3.183   3.349 -0.3148 -0.2495 -0.6145
  442SOL    HW1 1904   9.422   3.225   3.322  0.4111  1.9684  0.4582
  442SOL    HW2 1905   9.505   3.192   3.444  1.0364 -0.5208 -0.5977
  443SOL     OW 1906   9.274   9.701   1.327  0.4020 -0.2950  0.3538
  443SOL    HW1 1907   9.327   9.637   1.373 -0.3778  0.1697  1.9804
  443SOL    HW2 1908   9.327   9.781   1.325  0.3444 -0.2501  0.6474
  444SOL     OW 1909   2.013   3.494   3.090  0.1918  1.2064  0.7155
  444SOL    HW1 1910   2.094   3.453   3.121  0.1758 -0.5454 -1.3247
  444SOL    HW2 1911   2.025   3.500   2.995 -2.1666  0.6376  0.3403
  445SOL     OW 1912   1.371   2.628   3.082 -0.3135  0.3854 -0.6368
  445SOL    HW1 1913   1.383   2.533   3.085  0.0363  0.4575  1.0252
  445SOL    HW2 1914   1.304   2.641   3.015 -0.6540 -1.0599 -0.6214
  446SOL     OW 1915   0.346   2.518   1.712 -0.2257 -0.0472  0.3661
  446SOL    HW1 1916   0.262   2.549   1.748 -1.3451 -1.1340 -1.1663
  446SOL    HW2 1917   0.412   2.557   1.769 -1.8133 -0.6251  2.7615
  447SOL     OW 1918   6.273   8.970   6.115  0.2055  0.4740 -0.2351
  447SOL    HW1 1919   6.352   8.968   6.061  0.6820 -1.0351  0.4495
  447SOL    HW2 1920   6.201   8.980   6.053  0.8391  0.3951 -0.9976
  448SOL     OW 1921   7.546   7.092   1.617  0.2333 -0.4704  0.2595
  448SOL    HW1 1922   7.451   7.102   1.604  0.5155  1.6306 -0.5314
  448SOL    HW2 1923   7.577   7.180   1.635  2.0208 -1.1807  0.8313
  449SOL     OW 1924   9.253   4.929   0.368 -0.1273  0.3448  0.2280
  449SOL    HW1 1925   9.285   4.861   0.308  0.2104  1.6500 -1.1470
  449SOL    HW2 1926   9.295   4.909   0.451  1.0662 -0.3359 -0.4977
  450SOL     OW 1927   0.170   8.089   9.308 -0.0627 -0.2507  0.2149
  450SOL    HW1 1928   0.197   8.110   9.218  1.6208  1.1284  0.9867
  450SOL    HW2 1929   0.074   8.091   9.305 -0.0337  0.1545 -1.4643
  451SOL     OW 1930   4.336   9.933   2.015  0.8689  0.1309  0.5760
  451SOL    HW1 1931   4.386   9.957   1.937  0.8104  0.4597  0.6375
  451SOL    HW2 1932   4.366   9.845   2.036  1.3810  0.2995  0.5762
  452SOL     OW 1933   4.670   8.643   5.031 -0.2128 -0.3088  0.2067
  452SOL    HW1 1934   4.743   8.668   4.975 -0.1096 -0.7330  0.1442
  452SOL    HW2 1935   4.652   8.720   5.084  0.4626 -0.2915  0.4208
  453SOL     OW 1936   3.444   3.377   8.420 -0.0097 -0.0745  0.4750
  453SOL    HW1 1937   3.494   3.458   8.405  0.0264 -0.1785  0.0187
  453SOL    HW2 1938   3.483   3.314   8.359  0.4388 -0.6372  1.3368
  454SOL     OW 1939   8.885   1.078   4.024  0.2889 -0.1361  0.7519
  454SOL    HW1 1940   8.938   1.091   3.945 -0.5082  1.4293  0.4355
  454SOL    HW2 1941   8.939   1.114   4.095  1.0724 -1.6864  0.9891
  455SOL     OW 1942   3.948   7.406   8.304  0.1937  0.4222 -0.3265
  455SOL    HW1 1943   3.923   7.471   8.369 -0.6738 -0.9492  0.7627
  455SOL    HW2 1944   4.038   7.428   8.281  0.2110  1.4671  0.6651
  456SOL     OW 1945   5.303   0.527   4.045 -0.6339  0.1268 -0.4469
  456SOL    HW1 1946   5.241   0.529   4.119  0.2384 -4.6982  0.7700
  456SOL    HW2 1947   5.387   0.504   4.085  0.4887  0.0479 -2.7084
  457SOL     OW 1948   8.632   6.313   2.968 -0.9633  0.1612  0.3768
  457SOL    HW1 1949   8.675   6.366   2.900 -0.8339  2.3944  2.0554
  457SOL    HW2 1950   8.676   6.229   2.965 -0.8818  0.2296 -2.1814
  458SOL     OW 1951   0.912   4.130   3.352  0.7368  0.0428  0.0637
  458SOL    HW1 1952   0.926   4.195   3.284 -0.5368 -0.5331 -0.7993
  458SOL    HW2 1953   0.905   4.047   3.305 -0.5839 -0.3171  0.8348
  459SOL     OW 1954   8.445   5.998   8.606 -0.0705 -0.3842  0.0521
  459SOL    HW1 1955   8.448   6.038   8.519 -0.6161  0.1100  0.2564
  459SOL    HW2 1956   8.455   5.904   8.589  2.1369 -0.1340 -0.3726
  460SOL     OW 1957   8.141   4.421   2.043  0.3559 -0.5402  0.2298
  460SOL    HW1 1958   8.230   4.437   2.075  0.7260  1.6665 -1.6262
  460SOL    HW2 1959   8.152   4.357   1.973  0.4350 -0.4805  0.1877
  461SOL     OW 1960   1.827   1.209   7.586  0.3643 -0.1161  0.4148
  461SOL    HW1 1961   1.774   1.146   7.635 -1.1480  0.4700 -0.4064
  461SOL    HW2 1962   1.887   1.156   7.534 -0.6745 -0.8741 -0.0263
  462SOL     OW 1963   9.586   7.596   6.990  0.2301  0.4421  0.4456
  462SOL    HW1 1964   9.505   7.606   7.041  0.0800  1.9517 -0.0227
  462SOL    HW2 1965   9.643   7.665   7.023 -0.1064  1.9073 -1.8171
  463SOL     OW 1966   3.164   3.699   1.607  0.4030 -0.4625 -0.8966
  463SOL    HW1 1967   3.237   3.641   1.586 -0.0414 -0.5081 -2.4704
  463SOL    HW2 1968   3.091   3.663   1.557 -0.1212  0.8850 -1.1181
  464SOL     OW 1969   9.812   3.515   5.064  0.1319 -0.8980 -0.4245
  464SOL    HW1 1970   9.738   3.475   5.016 -0.4835  1.4376 -1.5645
  464SOL    HW2 1971   9.781   3.522   5.154 -1.3993  0.6574 -1.0040
  465SOL     OW 1972   6.246   2.969   8.987 -0.1576  0.5876  0.3118
  465SOL    HW1 1973   6.227   3.019   8.908  0.4657  1.3497  0.6221
  465SOL    HW2 1974   6.220   2.880   8.967  0.7143  0.6115 -1.0348
  466SOL     OW 1975   2.782   0.320   0.189  0.2778 -0.3015  0.4890
  466SOL    HW1 1976   2.713   0.253   0.190 -0.2364  0.0488 -2.3912
  466SOL    HW2 1977   2.756   0.383   0.256 -2.2383 -0.1930 -0.4970
  467SOL     OW 1978   8.970   7.651   6.864 -0.1336 -0.1767  0.0748
  467SOL    HW1 1979   9.040   7.716   6.863  0.2224 -0.4980  1.9975
  467SOL    HW2 1980   8.968   7.617   6.953 -2.3855 -0.5741 -0.0531
  468SOL     OW 1981   5.278   4.175   8.821 -0.3979 -0.1434 -0.7917
  468SOL    HW1 1982   5.356   4.174   8.876  0.3734 -0.2072 -1.8584
  468SOL    HW2 1983   5.293   4.108   8.755 -1.1561  0.1456 -1.2844
  469SOL     OW 1984   4.294   5.697   5.415  0.5035  0.2174  0.4058
  469SOL    HW1 1985   4.244   5.655   5.345  0.0710  1.6826 -0.2060
  469SOL    HW2 1986   4.257   5.662   5.495 -0.6332  0.2708 -0.0710
  470SOL     OW 1987   7.284   6.854   3.946  0.5952  0.2287 -0.3114
  470SOL    HW1 1988   7.212   6.882   3.890  1.4002 -0.1519 -1.5725
  470SOL    HW2 1989   7.361   6.898   3.911  1.1905 -0.3515  0.2306
  471SOL     OW 1990   6.071   8.694   2.577  0.2447 -0.0247  0.1751
  471SOL    HW1 1991   6.129   8.729   2.509  0.8164  0.8997  1.1142
  471SOL    HW2 1992   6.035   8.614   2.538 -0.0911  0.9094 -1.5400
  472SOL     OW 1993   1.664   8.197   3.845 -0.7784  0.1575 -0.0274
  472SOL    HW1 1994   1.750   8.171   3.879  0.0500  0.1018 -1.9929
  472SOL    HW2 1995   1.618   8.233   3.920  0.7515 -0.3572  1.2102
  473SOL     OW 1996   0.392   5.021   1.460  0.0531  0.0894 -0.2801
  473SOL    HW1 1997   0.351   5.035   1.374 -2.1943 -0.6006  0.6122
  473SOL    HW2 1998   0.411   5.109   1.492 -1.2890  0.4818 -0.5046
  474SOL     OW 1999   5.097   9.341   5.654  0.0981 -0.3462  0.1785
  474SOL    HW1 2000   5.118   9.352   5.747  0.2572 -0.1768  0.1236
  474SOL    HW2 2001   5.018   9.287   5.653 -0.2736  0.1946  0.4308
  475SOL     OW 2002   4.727   2.458   4.408 -0.0826 -0.4487 -0.1892
  475SOL    HW1 2003   4.748   2.392   4.474  1.1582 -0.4129 -0.5155
  475SOL    HW2 2004   4.775   2.431   4.330  0.0614  0.5575 -0.4732
  476SOL     OW 2005   6.806   3.047   4.942  0.4364 -0.6228 -0.9034
  476SOL    HW1 2006   6.771   3.122   4.895  1.9704  1.9311  1.7078
  476SOL    HW2 2007   6.898   3.068   4.957  0.4134 -1.9545  1.8033
  477SOL     OW 2008   4.076   0.251   3.697  0.4059 -0.0072 -0.7633
  477SOL    HW1 2009   4.158   0.206   3.719  0.4561  0.7918  0.8297
  477SOL    HW2 2010   4.079   0.331   3.749 -1.6762 -0.2499 -0.2134
  478SOL     OW 2011   2.164   7.216   3.217 -0.5983  0.2411  0.0503
  478SOL    HW1 2012   2.187   7.290   3.160 -0.6639 -0.2989 -0.6969
  478SOL    HW2 2013   2.161   7.141   3.158 -1.3087 -0.2253  0.6686
  479SOL     OW 2014   7.104   8.351   0.835  0.0112 -0.3842 -0.3040
  479SOL    HW1 2015   7.153   8.329   0.756 -1.9588 -1.9326 -1.1770
  479SOL    HW2 2016   7.111   8.272   0.890 -0.6618 -0.2477 -0.0094
  480SOL     OW 2017   7.250   9.420   7.095  0.5211 -0.0017 -0.0624
  480SOL    HW1 2018   7.237   9.459   7.181  1.5946  1.5740 -0.5809
  480SOL    HW2 2019   7.334   9.375   7.101  1.0014  0.8227 -0.5217
  481SOL     OW 2020   2.086   7.629   9.505 -0.1395  0.2198  0.2633
  481SOL    HW1 2021   2.001   7.618   9.549  0.6851 -0.6391  1.7527
  481SOL    HW2 2022   2.150   7.602   9.571  1.2384 -0.1940 -1.1847
  482SOL     OW 2023   8.701   3.975   3.180 -0.1880 -0.0014 -0.2659
  482SOL    HW1 2024   8.753   3.960   3.259 -0.5807 -0.0153 -0.0099
  482SOL    HW2 2025   8.614   3.999   3.212  0.1388  1.8161 -0.6772
  483SOL     OW 2026   5.135   1.930   6.254  0.2145 -0.2029 -0.0011
  483SOL    HW1 2027   5.062   1.877   6.220 -0.3864  0.0396  0.8812
  483SOL    HW2 2028   5.213   1.893   6.213 -0.2011 -1.7312  0.5314
  484SOL     OW 2029   0.836   5.605   7.596 -0.5425  0.4032  0.1878
  484SOL    HW1 2030   0.753   5.616   7.549 -0.9590 -0.3897  0.7158
  484SOL    HW2 2031   0.902   5.609   7.527 -0.9176  2.0002 -0.1424
  485SOL     OW 2032   7.652   2.357   0.495  0.4733 -0.5647  0.3057
  485SOL    HW1 2033   7.710   2.295   0.451 -1.5375 -0.9746 -1.9669
  485SOL    HW2 2034   7.568   2.312   0.497 -0.8390  1.7273 -0.6531
  486SOL     OW 2035   9.279   2.300   3.771 -0.3310  0.3856  0.5084
  486SOL    HW1 2036   9.339   2.365   3.807 -0.3098  0.4835  0.3008
  486SOL    HW2 2037   9.285   2.226   3.830  0.7571 -0.0007 -0.0621
  487SOL     OW 2038   2.182   5.519   2.084  0.1111 -0.0815 -0.0304
  487SOL    HW1 2039   2.094   5.557   2.082 -0.5552 -1.3703  1.8961
  487SOL    HW2 2040   2.234   5.580   2.135  0.7154  1.2750 -2.1365
  488SOL     OW 2041   9.645   1.863   8.583 -0.2553 -0.0889 -0.3414
  488SOL    HW1 2042   9.728   1.829   8.549 -0.3181 -2.0697  1.2956
  488SOL    HW2 2043   9.599   1.895   8.506  1.9996  1.0765 -1.2975
  489SOL     OW 2044   1.970   3.870   3.181 -0.4856 -0.0252 -0.1269
  489SOL    HW1 2045   1.952   3.963   3.166 -0.5779  0.1419  0.9801
  489SOL    HW2 2046   1.990   3.835   3.094  2.3169  1.6339 -0.2806
  490SOL     OW 2047   9.756   1.863   5.558 -0.5911 -0.3183  0.3948
  490SOL    HW1 2048   9.726   1.807   5.630  1.8447  0.1327  1.8910
  490SOL    HW2 2049   9.734   1.952   5.586  1.2983 -0.0438  1.2019
  491SOL     OW 2050   7.665   3.445   9.927  0.0784  0.4544  0.1666
  491SOL    HW1 2051   7.640   3.442   9.835  0.3581  1.9047  0.0179
  491SOL    HW2 2052   7.614   3.375   9.968 -1.0372  0.6312 -0.8632
  492SOL     OW 2053   8.845   3.267   9.599 -0.1702 -0.0464  0.6121
  492SOL    HW1 2054   8.930   3.282   9.641  1.4279 -1.0681 -2.0145
  492SOL    HW2 2055   8.862   3.200   9.533 -2.9286  0.1215 -0.4161
  493SOL     OW 2056   1.206   0.412   1.257 -0.3681 -0.5700  0.4087
  493SOL    HW1 2057   1.186   0.492   1.307  1.7372  0.6083 -0.5252
  493SOL    HW2 2058   1.238   0.444   1.173  0.8241 -2.3968  0.1242
  494SOL     OW 2059   9.696   7.225   5.386  0.0175  0.0305 -0.5989
  494SOL    HW1 2060   9.745   7.162   5.333 -3.3879 -1.2683 -2.5233
  494SOL    HW2 2061   9.727   7.311   5.356  1.8269 -0.6712 -0.8906
  495SOL     OW 2062   5.018   9.497   8.603  0.4147  0.9267 -0.7353
  495SOL    HW1 2063   4.974   9.514   8.519  1.0084  2.8673 -0.6804
  495SOL    HW2 2064   4.989   9.567   8.660  0.7324  0.1303  0.4359
  496SOL     OW 2065   5.231   4.165   7.999  0.1276  0.1741 -0.3744
  496SOL    HW1 2066   5.259   4.242   7.950  0.0310  0.3509 -0.1532
  496SOL    HW2 2067   5.292   4.158   8.072 -0.9531  1.1210  0.6518
  497SOL     OW 2068   4.556   6.193   8.210 -1.0740 -0.0306  0.0512
  497SOL    HW1 2069   4.593   6.268   8.164  0.6798 -1.1023 -0.3398
  497SOL    HW2 2070   4.538   6.129   8.142 -0.4768 -0.8060  0.6112
  498SOL     OW 2071   6.692   8.417   3.227 -0.5605 -0.2413 -0.0028
  498SOL    HW1 2072   6.787   8.416   3.243 -0.7012  0.0753  0.9183
  498SOL    HW2 2073   6.674   8.332   3.188  0.0449 -0.4814  0.2166
  499SOL     OW 2074   7.360   6.599   1.984 -0.1281  0.1273 -0.2929
  499SOL    HW1 2075   7.371   6.680   2.034 -0.1729 -0.2625  0.3610
  499SOL    HW2 2076   7.270   6.571   2.002  0.2162 -0.6225  0.3488
  500SOL     OW 2077   2.527   9.482   3.812  0.2233 -0.5996  0.5206
  500SOL    HW1 2078   2.618   9.452   3.806  0.0521 -1.4985  1.9652
  500SOL    HW2 2079   2.490   9.432   3.885 -1.0869  0.6403  0.7451
  501SOL     OW 2080   2.527   6.280   5.901  0.0342  0.0098  0.1000
  501SOL    HW1 2081   2.508   6.325   5.819  0.7927  0.3623  0.1127
  501SOL    HW2 2082   2.595   6.217   5.879 -0.0511 -0.1825  0.3771
  502SOL     OW 2083   2.616   4.561   8.123 -0.0995 -0.2685  0.3719
  502SOL    HW1 2084   2.588   4.480   8.167  0.0751 -1.0461 -0.9137
  502SOL    HW2 2085   2.638   4.620   8.195  1.1223 -1.8329  1.3614
  503SOL     OW 2086   3.344   4.186   8.884 -0.6175 -0.8550 -0.0480
  503SOL    HW1 2087   3.344   4.234   8.801 -3.7335  1.0525  0.8736
  503SOL    HW2 2088   3.414   4.225   8.935  0.9905 -1.6886 -1.4964
  504SOL     OW 2089   4.532   0.807   2.300  0.1179 -0.3333  0.2516
  504SOL    HW1 2090   4.513   0.777   2.389 -0.8055 -1.1140 -0.1922
  504SOL    HW2 2091   4.450   0.848   2.271  0.6135  0.4858 -0.0136
  505SOL     OW 2092   8.793   1.345   1.851 -0.0771  0.6561  0.5643
  505SOL    HW1 2093   8.875   1.313   1.813 -0.1582  0.8738  0.2021
  505SOL    HW2 2094   8.765   1.275   1.911 -0.6431 -0.2953 -0.7656
  506SOL     OW 2095   7.800   8.490   3.256 -0.6243 -0.1112 -0.3066
  506SOL    HW1 2096   7.830   8.490   3.347 -0.3487  1.6040 -0.3703
  506SOL    HW2 2097   7.707   8.469   3.262 -0.3123 -1.4734  0.2239
  507SOL     OW 2098   4.913   1.170   9.838 -0.3014 -0.0630 -0.5063
  507SOL    HW1 2099   4.929   1.264   9.844  0.3236 -0.2699  2.6879
  507SOL    HW2 2100   4.826   1.158   9.876 -0.0738 -0.8521 -0.2120
  508SOL     OW 2101   9.481   5.877   2.700 -0.0826 -0.1496  0.4232
  508SOL    HW1 2102   9.541   5.845   2.768  1.3939  1.1871 -0.1717
  508SOL    HW2 2103   9.403   5.905   2.747  0.2265 -0.8512  1.3707
  509SOL     OW 2104   9.375   2.570   1.831  0.3545  0.1910  0.0984
  509SOL    HW1 2105   9.392   2.484   1.794 -1.0029 -0.8905  1.8149
  509SOL    HW2 2106   9.433   2.629   1.784  1.0229 -1.5907 -1.4069
  510SOL     OW 2107   0.325   0.026   2.669 -0.1162  0.0053  0.3238
  510SOL    HW1 2108   0.298   0.099   2.725 -1.4394  0.3286 -0.6747
  510SOL    HW2 2109   0.402   0.058   2.623  0.7102 -0.0984  1.5723
  511SOL     OW 2110   2.898   7.246   5.045  0.6767  0.2327  0.0673
  511SOL    HW1 2111   2.895   7.338   5.020 -0.8624  0.4875  1.0570
  511SOL    HW2 2112   2.991   7.224   5.046  1.1320  2.0368  0.7078
  512SOL     OW 2113   6.095   4.620   3.178  0.3466  0.9782 -0.1496
  512SOL    HW1 2114   6.128   4.533   3.154 -0.5696  0.2133  1.1892
  512SOL    HW2 2115   6.015   4.631   3.126  0.7111  1.2187 -0.6584
  513SOL     OW 2116   1.439   9.472   2.785  0.0905  0.4838 -0.1064
  513SOL    HW1 2117   1.396   9.521   2.856  1.4506  0.6784  0.6253
  513SOL    HW2 2118   1.502   9.416   2.830  3.1937  2.8099 -1.2673
  514SOL     OW 2119   3.816   0.618   5.182  0.0386 -0.2107  0.1115
  514SOL    HW1 2120   3.870   0.544   5.156 -1.2485 -1.3077  0.4982
  514SOL    HW2 2121   3.804   0.608   5.276  1.6041  1.7106  0.6004
  515SOL     OW 2122   7.865   2.971   5.652 -0.2119  0.1486  0.0774
  515SOL    HW1 2123   7.776   2.992   5.682 -0.4915 -2.0088  0.9804
  515SOL    HW2 2124   7.921   2.992   5.726 -0.3301 -0.8879  0.4841
  516SOL     OW 2125   5.219   0.859   4.180 -0.5585  0.2381 -0.3805
  516SOL    HW1 2126   5.310   0.872   4.206 -1.0491  0.3252  1.4215
  516SOL    HW2 2127   5.223   0.850   4.085  1.1590  1.7697 -0.5290
  517SOL     OW 2128   7.816   9.777   1.228 -0.6083 -0.0245 -0.3262
  517SOL    HW1 2129   7.828   9.870   1.211  1.0573 -0.4756 -1.9918
  517SOL    HW2 2130   7.843   9.766   1.319  0.5088  0.9320 -0.5186
  518SOL     OW 2131   2.023   8.866   7.406 -0.3972  0.1181 -0.0548
  518SOL    HW1 2132   2.084   8.928   7.365 -1.6798  0.5587 -1.3465
  518SOL    HW2 2133   1.959   8.921   7.451 -0.5351 -0.3144  0.2858
  519SOL     OW 2134   7.898   4.407   6.261  0.2496 -0.3112 -0.0230
  519SOL    HW1 2135   7.988   4.436   6.275  0.6428 -1.8532  0.9352
  519SOL    HW2 2136   7.864   4.464   6.192  2.3794 -0.5667 -1.3638
  520SOL     OW 2137   2.395   0.830   2.834 -0.4462 -1.3200  0.3640
  520SOL    HW1 2138   2.302   0.805   2.838 -0.3967 -1.3409  1.6154
  520SOL    HW2 2139   2.438   0.756   2.791 -0.8252 -1.8512  0.8845
  521SOL     OW 2140   4.499   8.909   3.795 -0.4169 -0.2926 -0.9297
  521SOL    HW1 2141   4.552   8.963   3.852 -0.8168 -1.0179  0.1636
  521SOL    HW2 2142   4.511   8.820   3.828 -0.5862 -0.7462 -2.0333
  522SOL     OW 2143   9.195   0.781   1.344  0.1176 -0.1510 -0.1852
  522SOL    HW1 2144   9.164   0.737   1.265  3.0885 -0.6260 -1.2181
  522SOL    HW2 2145   9.152   0.866   1.343 -0.1065 -0.2366 -2.2214
  523SOL     OW 2146   4.123   9.437   9.611  0.4587 -0.2930 -0.4345
  523SOL    HW1 2147   4.188   9.464   9.675 -0.0683 -0.4716  0.1830
  523SOL    HW2 2148   4.143   9.346   9.592  0.2312 -0.4293 -0.0384
  524SOL     OW 2149   9.931   0.267   0.719 -0.2741 -0.3970 -0.2027
  524SOL    HW1 2150   9.944   0.345   0.665  1.2410 -1.5958 -1.6733
  524SOL    HW2 2151   9.991   0.279   0.793 -0.2862 -0.0256 -0.2521
  525SOL     OW 2152   5.632   0.018   1.411  0.0353  0.3828  0.1285
  525SOL    HW1 2153   5.640   0.063   1.495  1.8845  0.0167  0.1812
  525SOL    HW2 2154   5.637  -0.075   1.433  0.4468  0.2826 -0.3691
  526SOL     OW 2155   5.860   7.705   5.967 -0.3258  0.1387 -0.1667
  526SOL    HW1 2156   5.924   7.686   5.898  2.6896  0.7301  2.2854
  526SOL    HW2 2157   5.795   7.635   5.959  0.2910 -0.2596 -3.0368
  527SOL     OW 2158   8.773   2.232   6.708  0.0007  0.2602 -0.2510
  527SOL    HW1 2159   8.768   2.327   6.706 -0.2495  0.2359 -1.1383
  527SOL    HW2 2160   8.851   2.210   6.656  0.5722  0.0068  0.6839
  528SOL     OW 2161   7.474   6.987   8.646 -0.2900 -0.3956  0.2645
  528SOL    HW1 2162   7.548   6.926   8.648  1.5344  1.6621 -0.4161
  528SOL    HW2 2163   7.444   6.985   8.555 -3.1464 -3.3955  1.0820
  529SOL     OW 2164   8.529   8.272   7.347 -0.2208  0.5526  0.5370
  529SOL    HW1 2165   8.565   8.184   7.358 -0.8028  0.1110 -0.8816
  529SOL    HW2 2166   8.581   8.326   7.406  0.4058 -0.6609  1.1535
  530SOL     OW 2167   8.383   4.621   0.967 -0.0934  0.2886  0.1569
  530SOL    HW1 2168   8.325   4.632   0.892  0.7993 -0.3140 -0.6366
  530SOL    HW2 2169   8.462   4.581   0.931 -0.1017 -1.1140  1.6033
  531SOL     OW 2170   0.135   9.821   1.581  0.0027  0.1605 -0.7937
  531SOL    HW1 2171   0.159   9.913   1.564  2.2927 -0.5163 -1.6556
  531SOL    HW2 2172   0.125   9.817   1.676  0.2399  1.2396 -0.6991
  532SOL     OW 2173   7.055   6.317   4.677  0.0084  0.0788 -0.2440
  532SOL    HW1 2174   7.138   6.272   4.694 -0.7819 -0.8351  1.5305
  532SOL    HW2 2175   7.071   6.408   4.701  1.2224  0.4968 -2.4769
  533SOL     OW 2176   0.454   9.446   3.934 -0.1992  0.2657  0.5933
  533SOL    HW1 2177   0.459   9.460   4.029  1.8762  0.0649  0.5554
  533SOL    HW2 2178   0.459   9.351   3.924 -0.5423  0.2801  0.2759
  534SOL     OW 2179   3.370   6.051   1.325 -0.0573 -0.4328 -0.3181
  534SOL    HW1 2180   3.419   6.004   1.258 -0.9077 -1.0625 -0.5202
  534SOL    HW2 2181   3.379   5.997   1.404 -1.3275 -1.1766 -0.6383
  535SOL     OW 2182   0.810   1.410   8.479  0.3270 -0.1477  0.0662
  535SOL    HW1 2183   0.846   1.343   8.422  0.7303 -0.4562  0.6837
  535SOL    HW2 2184   0.804   1.369   8.565 -0.2656  0.3177  0.2560
  536SOL     OW 2185   1.861   5.164   0.541  0.0414  0.2563  0.1234
  536SOL    HW1 2186   1.923   5.236   0.544 -0.4270  0.7866 -1.6456
  536SOL    HW2 2187   1.913   5.088   0.514 -0.3009  1.1660 -3.7155
  537SOL     OW 2188   3.226   8.729   7.102 -0.1436 -0.5978 -0.0630
  537SOL    HW1 2189   3.217   8.758   7.011  0.2005  0.4422  0.2230
  537SOL    HW2 2190   3.260   8.640   7.096  1.1965 -0.0429 -0.9389
  538SOL     OW 2191   9.735   7.644   2.867 -0.8240 -0.5181 -0.0129
  538SOL    HW1 2192   9.745   7.739   2.868 -1.4229 -0.4281  2.2879
  538SOL    HW2 2193   9.823   7.612   2.844 -0.9502  0.5544 -2.2559
  539SOL     OW 2194   3.557   0.743   0.366 -0.0005 -0.9035 -0.5903
  539SOL    HW1 2195   3.529   0.670   0.421 -0.1554 -0.2869  0.1740
  539SOL    HW2 2196   3.515   0.820   0.406 -2.1073 -0.6935 -2.9372
  540SOL     OW 2197   5.709   8.688   4.011 -0.1814 -0.0133 -0.1309
  540SOL    HW1 2198   5.744   8.599   4.006  0.0788  0.1333 -1.3115
  540SOL    HW2 2199   5.785   8.743   4.028 -0.0750  0.1367 -1.0354
  541SOL     OW 2200   8.281   5.668   7.544 -0.7934 -0.0141 -0.4579
  541SOL    HW1 2201   8.211   5.732   7.532 -1.2647 -0.6809 -1.3953
  541SOL    HW2 2202   8.314   5.685   7.632 -1.7468  0.6916 -0.2166
  542SOL     OW 2203   6.220   4.118   5.891  0.4434 -0.2683  0.7382
  542SOL    HW1 2204   6.160   4.068   5.945  0.0628 -1.9585 -1.1032
  542SOL    HW2 2205   6.196   4.209   5.904 -2.6921 -0.8754 -0.0458
  543SOL     OW 2206   4.344   7.549   4.844  0.1313 -0.3756 -0.4896
  543SOL    HW1 2207   4.347   7.469   4.896 -0.7678  1.6160  2.9566
  543SOL    HW2 2208   4.422   7.597   4.871 -1.1450  1.3733  0.3019
  544SOL     OW 2209   8.457   8.449   1.110 -0.0531  0.3690 -0.1193
  544SOL    HW1 2210   8.494   8.369   1.073  2.1665  0.6266  1.3174
  544SOL    HW2 2211   8.434   8.502   1.034  0.4949 -0.7367 -1.0976
  545SOL     OW 2212   3.073   9.363   3.130 -0.4861  0.2603  0.5685
  545SOL    HW1 2213   3.045   9.283   3.176 -0.6282 -0.1644 -0.2367
  545SOL    HW2 2214   3.169   9.358   3.129 -0.4770  0.3088  0.8641
  546SOL     OW 2215   6.121   7.914   7.817 -0.0167 -0.3774 -0.3385
  546SOL    HW1 2216   6.076   7.915   7.901 -0.0256 -1.0209 -0.3316
  546SOL    HW2 2217   6.090   7.834   7.774 -1.2887  0.7667 -1.6497
  547SOL     OW 2218   3.356   6.737   1.835 -0.1560  0.5322 -0.1389
  547SOL    HW1 2219   3.414   6.800   1.879  0.3765  0.7647 -1.1341
  547SOL    HW2 2220   3.391   6.651   1.858 -0.6268  0.5882  0.8743
  548SOL     OW 2221   3.052   2.364   0.544 -0.0734  0.6871  0.4648
  548SOL    HW1 2222   3.046   2.414   0.463  1.0209 -0.5067 -0.3851
  548SOL    HW2 2223   3.096   2.424   0.606 -2.6095  2.3013  0.8307
  549SOL     OW 2224   5.795   6.282   8.776  0.0199  0.0299 -0.0391
  549SOL    HW1 2225   5.718   6.256   8.826  0.5855 -2.3549 -0.2575
  549SOL    HW2 2226   5.769   6.362   8.731 -1.7292  0.2137  1.1973
  550SOL     OW 2227   7.119   8.782   9.528 -0.3595  0.3522 -0.2654
  550SOL    HW1 2228   7.167   8.865   9.529 -1.5151  1.0743  1.2834
  550SOL    HW2 2229   7.029   8.807   9.510 -0.3653 -0.8721 -2.1713
  551SOL     OW 2230   2.407   9.185   6.218 -0.4829 -0.4680  0.0680
  551SOL    HW1 2231   2.343   9.197   6.289 -0.5925  1.8222 -0.3410
  551SOL    HW2 2232   2.353   9.174   6.140 -0.4635  1.2342 -0.2412
  552SOL     OW 2233   1.000   3.170   8.421 -0.6165 -0.5796  0.2946
  552SOL    HW1 2234   1.014   3.171   8.516 -1.6444 -1.0219  0.4617
  552SOL    HW2 2235   1.039   3.088   8.391 -2.1586 -1.4847  0.6612
  553SOL     OW 2236   0.673   9.209   9.572  0.2105  0.1750  0.0155
  553SOL    HW1 2237   0.767   9.192   9.583  0.5804  1.5866 -0.8351
  553SOL    HW2 2238   0.639   9.129   9.531  0.9857 -0.4167  0.4850
  554SOL     OW 2239   0.909   7.167   4.271 -0.0557  0.4689  0.0553
  554SOL    HW1 2240   0.821   7.133   4.283 -0.0833  0.8541  1.0317
  554SOL    HW2 2241   0.898   7.262   4.268  0.5109  0.6457  2.2118
  555SOL     OW 2242   1.204   5.454   1.926 -0.7371  0.3973 -0.8160
  555SOL    HW1 2243   1.164   5.411   1.851  0.2126 -2.0097 -0.0344
  555SOL    HW2 2244   1.207   5.387   1.994  0.8517  1.6900  0.4976
  556SOL     OW 2245   0.926   6.653   2.537 -0.2842 -0.3865  0.5212
  556SOL    HW1 2246   0.856   6.588   2.549 -0.7626 -0.0125 -0.1860
  556SOL    HW2 2247   0.976   6.649   2.619 -0.7002 -1.1765  0.7460
  557SOL     OW 2248   9.843   1.992   4.564  0.6891  0.1650 -1.1777
  557SOL    HW1 2249   9.862   1.994   4.658  2.6863 -1.1531 -1.4946
  557SOL    HW2 2250   9.864   1.903   4.537 -1.5068 -0.0071 -2.6120
  558SOL     OW 2251   4.027   8.067   8.111 -0.4440  0.3392  0.2895
  558SOL    HW1 2252   4.044   7.973   8.106 -0.8257  0.1663  1.7131
  558SOL    HW2 2253   3.933   8.076   8.098 -0.6492  0.3571  1.6806
  559SOL     OW 2254   7.201   8.731   8.375 -0.2308  0.4461 -0.1111
  559SOL    HW1 2255   7.262   8.733   8.301  0.7423 -0.1588  0.6483
  559SOL    HW2 2256   7.235   8.797   8.435  0.9453 -1.3047  1.2535
  560SOL     OW 2257   0.598   2.328   4.074 -0.0138 -0.2818  0.4393
  560SOL    HW1 2258   0.538   2.283   4.014 -1.6673 -0.5397  2.1882
  560SOL    HW2 2259   0.610   2.415   4.035 -0.6313 -0.6060 -0.5093
  561SOL     OW 2260   7.008   2.894   4.436 -0.0571 -0.1422  0.0477
  561SOL    HW1 2261   6.946   2.853   4.375 -0.7154 -1.7610  1.6864
  561SOL    HW2 2262   7.085   2.837   4.434  0.5116  0.6247 -0.3381
  562SOL     OW 2263   0.898   9.379   2.529  0.3980 -0.0942 -0.1491
  562SOL    HW1 2264   0.884   9.386   2.434 -0.4606  0.0260 -0.0217
  562SOL    HW2 2265   0.837   9.441   2.567 -0.2135 -1.0915  0.5424
  563SOL     OW 2266   1.962   7.091   5.475  0.4409 -0.2334 -0.0040
  563SOL    HW1 2267   1.899   7.077   5.404  0.6384 -2.0812  0.1282
  563SOL    HW2 2268   2.043   7.114   5.431  0.1748  0.2032 -0.2773
  564SOL     OW 2269   5.131   0.451   6.223 -0.0031 -0.4539  0.1119
  564SOL    HW1 2270   5.226   0.442   6.216  0.0797  0.3020  0.1442
  564SOL    HW2 2271   5.106   0.395   6.297  0.5784  0.2802  0.8807
  565SOL     OW 2272   9.895   2.036   6.382  0.0439  0.8810  0.0262
  565SOL    HW1 2273   9.864   2.122   6.355 -2.4550 -0.2334 -0.9728
  565SOL    HW2 2274   9.899   2.040   6.478 -1.3469  1.7033  0.0645
  566SOL     OW 2275   2.178   7.828   3.202 -0.1539  0.5702 -0.2683
  566SOL    HW1 2276   2.107   7.801   3.260 -0.4803  1.0492 -0.4369
  566SOL    HW2 2277   2.174   7.923   3.201  1.9563  0.7662  1.5343
  567SOL     OW 2278   1.550   1.049   4.288  0.3713 -0.2156  0.0987
  567SOL    HW1 2279   1.575   0.998   4.211 -0.3391 -0.7813  0.2194
  567SOL    HW2 2280   1.473   1.003   4.322  0.3533  0.3399  0.8323
  568SOL     OW 2281   5.671   1.592   6.617  0.2508 -0.1811 -0.2594
  568SOL    HW1 2282   5.695   1.683   6.599 -0.3933  0.3111  1.2172
  568SOL    HW2 2283   5.658   1.553   6.531 -0.1395  1.3127 -0.9035
  569SOL     OW 2284   5.944   1.301   0.402 -0.6179  0.0799 -0.3093
  569SOL    HW1 2285   6.020   1.305   0.459  0.0871  0.9307 -1.2756
  569SOL    HW2 2286   5.962   1.364   0.333 -1.3595 -1.0528 -1.5850
  570SOL     OW 2287   9.959   6.686   8.403  0.0238 -0.2226  0.2548
  570SOL    HW1 2288   9.972   6.709   8.311 -0.8602 -1.5149 -0.2286
  570SOL    HW2 2289   9.982   6.765   8.452  0.1277  0.6100 -1.0991
  571SOL     OW 2290   6.859   9.587   2.477  0.2410 -0.1529  0.0951
  571SOL    HW1 2291   6.903   9.503   2.472  1.1600  0.2577  1.0528
  571SOL    HW2 2292   6.795   9.577   2.548 -1.4160 -0.8073 -1.4056
  572SOL     OW 2293   6.626   1.571   6.503  0.0417  0.0197  0.2148
  572SOL    HW1 2294   6.660   1.485   6.530 -2.5619 -0.5355  2.2103
  572SOL    HW2 2295   6.638   1.627   6.580  0.5261  1.0897 -0.6139
  573SOL     OW 2296   4.824   1.776   9.163  0.4520  0.4443  0.8459
  573SOL    HW1 2297   4.898   1.836   9.160  0.6017  0.2283 -0.8226
  573SOL    HW2 2298   4.850   1.702   9.109 -1.3394  0.8432 -0.6937
  574SOL     OW 2299   4.942   2.029   1.822 -0.3487  0.2925 -0.2965
  574SOL    HW1 2300   4.949   2.041   1.917 -1.9871 -1.5823  0.1301
  574SOL    HW2 2301   4.852   2.055   1.802  0.2297  1.4747 -1.5176
  575SOL     OW 2302   8.369   1.976   6.859 -0.3939  0.1135  0.1943
  575SOL    HW1 2303   8.324   1.900   6.895 -0.4148  0.8300  1.7548
  575SOL    HW2 2304   8.301   2.043   6.852 -0.4241 -0.0467 -1.3762
  576SOL     OW 2305   5.642   3.522   9.813 -0.2279  0.1603 -0.1223
  576SOL    HW1 2306   5.645   3.442   9.761 -0.9776  0.3155 -0.4125
  576SOL    HW2 2307   5.589   3.582   9.761 -1.7557  0.0328  1.2175
  577SOL     OW 2308   9.551   6.773   4.875  0.0849  0.0001 -0.8787
  577SOL    HW1 2309   9.582   6.690   4.839 -1.7268 -1.7894  1.3252
  577SOL    HW2 2310   9.460   6.778   4.846  0.4592  1.7947 -1.8458
  578SOL     OW 2311   6.330   4.674   4.918 -0.0402 -0.0839 -0.3827
  578SOL    HW1 2312   6.269   4.672   4.991  0.7409 -0.1627  0.2826
  578SOL    HW2 2313   6.397   4.609   4.941 -0.8869 -1.6893 -2.1625
  579SOL     OW 2314   1.316   3.247   8.792 -0.3474  0.0552  0.4818
  579SOL    HW1 2315   1.392   3.190   8.779 -0.6731 -0.1706 -0.4599
  579SOL    HW2 2316   1.311   3.258   8.887  0.1496 -0.8985  0.6289
  580SOL     OW 2317   7.842   0.053   9.262  0.2171  0.5952  0.4111
  580SOL    HW1 2318   7.752   0.083   9.250  0.1531  0.3675  0.3114
  580SOL    HW2 2319   7.848  -0.026   9.208  1.1662  1.9014 -1.5135
  581SOL     OW 2320   8.056   0.543   0.237 -0.3725 -0.2518 -0.0618
  581SOL    HW1 2321   7.980   0.596   0.213 -0.2924  0.8963  1.9618
  581SOL    HW2 2322   8.018   0.463   0.275 -0.6012  0.2703  0.8407
  582SOL     OW 2323   5.638   2.522   8.477 -0.3875 -0.0780  0.7672
  582SOL    HW1 2324   5.725   2.516   8.439 -0.6712  1.0610 -0.1391
  582SOL    HW2 2325   5.653   2.535   8.570  0.4757  1.6287  0.4285
  583SOL     OW 2326   7.060   1.916   4.748  0.0836  0.5976 -1.3499
  583SOL    HW1 2327   6.965   1.926   4.744 -0.2667 -1.8089 -0.8979
  583SOL    HW2 2328   7.085   1.952   4.833 -0.8265 -0.9611 -0.3809
  584SOL     OW 2329   2.168   0.327   7.548  0.4939 -0.0924  0.2955
  584SOL    HW1 2330   2.205   0.245   7.580 -1.2031 -1.6905 -1.5592
  584SOL    HW2 2331   2.241   0.389   7.549  1.8081 -1.5858  1.7728
  585SOL     OW 2332   9.014   3.427   5.417  0.2286 -0.2732  0.0402
  585SOL    HW1 2333   9.000   3.451   5.325 -0.6481 -0.9987 -0.0365
  585SOL    HW2 2334   8.926   3.406   5.449  0.3581  1.1701  1.4072
  586SOL     OW 2335   0.119   6.317   5.579  0.0631 -0.1112 -0.1320
  586SOL    HW1 2336   0.102   6.339   5.671  0.3393 -0.0702 -0.0891
  586SOL    HW2 2337   0.173   6.238   5.583  0.6838  0.2947 -0.2347
  587SOL     OW 2338   2.059   6.474   2.175  0.0313  0.4167  0.0320
  587SOL    HW1 2339   2.057   6.503   2.267  0.3516 -1.9363  0.8428
  587SOL    HW2 2340   2.132   6.522   2.137  0.2209  1.0527  1.1462
  588SOL     OW 2341   7.418   9.616   2.816  0.1139  0.2778 -0.2741
  588SOL    HW1 2342   7.482   9.682   2.842 -1.3864  0.9804  2.0045
  588SOL    HW2 2343   7.364   9.660   2.751 -0.8663  1.4039  1.2179
  589SOL     OW 2344   0.627   3.401   9.904 -0.3442  0.2081  0.9297
  589SOL    HW1 2345   0.597   3.323   9.858  1.7961  0.1826 -0.6129
  589SOL    HW2 2346   0.549   3.435   9.948 -1.7955 -1.5930 -0.1017
  590SOL     OW 2347   3.729   8.251   4.392  0.2802 -0.4873 -0.0006
  590SOL    HW1 2348   3.793   8.314   4.360  2.6432 -1.6509  2.0351
  590SOL    HW2 2349   3.669   8.302   4.445  0.7794  0.3730 -0.2403
  591SOL     OW 2350   9.974   5.113   8.156  0.4479 -0.0757 -0.1687
  591SOL    HW1 2351   9.982   5.030   8.203 -0.2927  0.8034  1.6121
  591SOL    HW2 2352   9.977   5.180   8.225  1.3899  1.4128 -1.5893
  592SOL     OW 2353   2.100   5.044   1.490  0.3321 -0.3799 -0.1204
  592SOL    HW1 2354   2.045   5.026   1.414  0.3799 -1.6372  0.1219
  592SOL    HW2 2355   2.187   5.014   1.464 -0.0195 -2.6587  1.0577
  593SOL     OW 2356   4.046   1.778   4.529  0.1595  0.3674 -0.5648
  593SOL    HW1 2357   3.984   1.791   4.457 -0.1834  0.9490 -0.1744
  593SOL    HW2 2358   4.042   1.860   4.579 -0.7002 -0.5529  0.9460
  594SOL     OW 2359   7.626   5.647   1.522  0.2535  0.2294 -0.0040
  594SOL    HW1 2360   7.706   5.698   1.512  0.3784 -0.2686 -1.8975
  594SOL    HW2 2361   7.564   5.686   1.461  0.0144 -1.1896 -0.7237
  595SOL     OW 2362   3.772   5.959   0.245  0.3001  0.1316 -0.1145
  595SOL    HW1 2363   3.705   6.020   0.274  1.0460  1.5581 -1.2407
  595SOL    HW2 2364   3.849   5.982   0.297  0.3968 -0.3607 -0.0329
  596SOL     OW 2365   6.255   9.402   9.329 -0.5653 -0.0430  0.0168
  596SOL    HW1 2366   6.232   9.495   9.327 -0.4977 -0.0144  0.5369
  596SOL    HW2 2367   6.320   9.392   9.260 -1.2610  0.1073 -0.6764
  597SOL     OW 2368   9.468   2.325   1.722  0.7582 -0.0017 -0.4415
  597SOL    HW1 2369   9.470   2.287   1.634  1.2620 -1.3888  0.1466
  597SOL    HW2 2370   9.559   2.346   1.741  0.9860 -1.6894  0.5464
  598SOL     OW 2371   2.262   3.832   9.158 -0.0911  0.1971  0.1653
  598SOL    HW1 2372   2.296   3.881   9.232  0.3779  1.3577 -0.7933
  598SOL    HW2 2373   2.338   3.786   9.123 -0.0455  0.6869 -0.3806
  599SOL     OW 2374   4.513   4.378   9.821 -0.3272  0.3639  0.1276
  599SOL    HW1 2375   4.448   4.372   9.891 -1.3011  0.6155 -0.7394
  599SOL    HW2 2376   4.464   4.362   9.741  0.8820 -0.4792 -0.4743
  600SOL     OW 2377   5.776   3.993   6.858 -0.2344 -0.4425 -0.1647
  600SOL    HW1 2378   5.871   3.998   6.874  0.4632 -0.4411 -3.5189
  600SOL    HW2 2379   5.757   3.900   6.853  0.6178 -0.5834 -3.6974
  601SOL     OW 2380   2.447   4.348   7.064  0.5250  0.3293 -0.2079
  601SOL    HW1 2381   2.502   4.352   6.986 -1.8363 -0.0614 -2.0298
  601SOL    HW2 2382   2.358   4.359   7.031 -0.6221 -0.1996  2.4168
  602SOL     OW 2383   5.485   5.942   8.534 -0.1465 -0.4446  0.1733
  602SOL    HW1 2384   5.562   5.927   8.589  1.3362 -0.2918 -1.7771
  602SOL    HW2 2385   5.413   5.901   8.582  0.5902  1.5240  3.3074
  603SOL     OW 2386   5.209   7.259   1.627  0.3757  0.5830 -1.0408
  603SOL    HW1 2387   5.155   7.336   1.642 -0.3620  0.0896 -1.1047
  603SOL    HW2 2388   5.270   7.257   1.701 -0.2460  0.6883 -0.5191
  604SOL     OW 2389   9.282   5.221   2.964 -0.1209 -0.4614  0.1485
  604SOL    HW1 2390   9.374   5.199   2.955 -0.1618 -0.7014  0.3025
  604SOL    HW2 2391   9.254   5.244   2.876  0.4251  0.9861  0.3268
  605SOL     OW 2392   9.211   6.950   7.268  0.6311  0.1444 -0.3880
  605SOL    HW1 2393   9.203   6.979   7.358  0.0300 -3.8814  1.0430
  605SOL    HW2 2394   9.288   6.893   7.267 -0.2089 -1.0602 -2.0360
  606SOL     OW 2395   9.452   0.614   9.700  0.5133 -0.2382 -0.3714
  606SOL    HW1 2396   9.393   0.539   9.712 -1.4339  0.9695 -1.8472
  606SOL    HW2 2397   9.540   0.576   9.702 -0.2646 -2.1490  1.6681
  607SOL     OW 2398   5.206   4.728   8.956  0.3303  0.2324  0.8689
  607SOL    HW1 2399   5.287   4.738   8.906  0.0299 -0.9102  0.1355
  607SOL    HW2 2400   5.231   4.746   9.046  1.3877 -0.0417  0.6390
  608SOL     OW 2401   5.030   2.756   3.876 -0.0493 -0.5788 -0.4360
  608SOL    HW1 2402   5.094   2.686   3.861 -1.0133 -1.2823 -1.3712
  608SOL    HW2 2403   5.065   2.831   3.828  1.6033  0.0182  1.5338
  609SOL     OW 2404   3.620   0.817   6.013 -0.1153  0.4899  0.1828
  609SOL    HW1 2405   3.557   0.782   5.950  1.1713 -2.2944  0.2601
  609SOL    HW2 2406   3.576   0.808   6.098  0.4135 -1.8739  0.2894
  610SOL     OW 2407   5.808   7.115   2.014  0.4159 -0.0051  0.3698
  610SOL    HW1 2408   5.766   7.128   1.929 -1.0762 -0.2732  1.0407
  610SOL    HW2 2409   5.836   7.024   2.014  1.5052  0.3170 -0.2860
  611SOL     OW 2410   5.759   1.235   5.978  0.0496 -0.2211 -0.3772
  611SOL    HW1 2411   5.758   1.143   6.002 -0.2971 -0.2376 -0.4480
  611SOL    HW2 2412   5.690   1.244   5.912  0.4400 -0.0172 -0.7665
  612SOL     OW 2413   1.519   1.623   9.879 -0.0915  0.4186 -0.3117
  612SOL    HW1 2414   1.432   1.654   9.901  0.5428  1.3884  0.9816
  612SOL    HW2 2415   1.524   1.536   9.918 -0.3956  0.4530 -0.1929
  613SOL     OW 2416   0.214   7.335   9.362  0.2970 -0.5113  0.0836
  613SOL    HW1 2417   0.284   7.295   9.311 -1.7107 -4.1744 -0.1658
  613SOL    HW2 2418   0.235   7.315   9.453  1.9166  2.7191  0.5762
  614SOL     OW 2419   1.889   5.702   8.792  0.3488  0.4539 -0.3919
  614SOL    HW1 2420   1.799   5.680   8.772 -0.2407  1.6434  0.8150
  614SOL    HW2 2421   1.920   5.749   8.715 -0.0701  0.0767 -0.7938
  615SOL     OW 2422   8.691   3.760   4.994  0.4088 -0.7389 -0.2707
  615SOL    HW1 2423   8.666   3.670   5.014  2.4348 -1.3420 -0.2416
  615SOL    HW2 2424   8.734   3.754   4.908 -0.6465  0.4572 -0.9227
  616SOL     OW 2425   4.727   2.543   0.705  0.3287 -0.3965  0.4579
  616SOL    HW1 2426   4.793   2.596   0.750  1.2803 -1.1774  0.0198
  616SOL    HW2 2427   4.676   2.606   0.655 -0.2915  0.4092  2.0487
  617SOL     OW 2428   5.046   2.218   2.686 -0.1887 -0.1097 -0.3985
  617SOL    HW1 2429   5.045   2.290   2.749  1.5721 -1.1535  0.9054
  617SOL    HW2 2430   5.066   2.260   2.602  0.2008  0.9729  0.2180
  618SOL     OW 2431   6.875   1.499   9.958  0.6099 -0.0350  0.2412
  618SOL    HW1 2432   6.799   1.477   9.904  1.3225  0.0654 -0.8556
  618SOL    HW2 2433   6.843   1.495  10.048 -0.9783  1.1304 -0.2253
  619SOL     OW 2434   9.850   5.795   0.746  0.5061  0.1067  0.2260
  619SOL    HW1 2435   9.820   5.713   0.707  0.9499 -0.0745  0.2555
  619SOL    HW2 2436   9.772   5.850   0.750 -0.0003 -0.6400  1.0465
  620SOL     OW 2437   4.624   7.918   7.025  0.2987  0.1867 -0.1138
  620SOL    HW1 2438   4.643   8.011   7.035 -0.6589  0.3748 -0.0062
  620SOL    HW2 2439   4.681   7.875   7.089  1.0096  0.6666 -0.4204
  621SOL     OW 2440   4.596   0.408   7.928 -0.2312  0.0011  0.2576
  621SOL    HW1 2441   4.577   0.463   7.853 -0.1758 -0.9203 -0.4537
  621SOL    HW2 2442   4.689   0.386   7.919 -0.5493 -1.2490 -0.1989
  622SOL     OW 2443   4.698   1.511   8.331  0.6866  0.1547 -0.1258
  622SOL    HW1 2444   4.708   1.440   8.394 -1.5062  2.6067  3.3328
  622SOL    HW2 2445   4.765   1.574   8.355  0.0811  0.9582 -0.5107
  623SOL     OW 2446   2.770   7.266   3.077  0.6250 -0.5783 -0.2306
  623SOL    HW1 2447   2.679   7.247   3.055 -0.2082  1.1585  1.3854
  623SOL    HW2 2448   2.797   7.333   3.014 -0.3444  1.2436  1.1655
  624SOL     OW 2449   1.901   4.766   5.915  0.4093  0.0718  0.6808
  624SOL    HW1 2450   1.915   4.698   5.981 -1.3934  0.0858  1.1096
  624SOL    HW2 2451   1.847   4.832   5.958 -1.3196 -0.1918 -0.9383
  625SOL     OW 2452   5.512   1.885   4.172 -0.3222 -0.0997  0.0393
  625SOL    HW1 2453   5.608   1.889   4.162 -0.5015  0.0028 -2.1568
  625SOL    HW2 2454   5.488   1.972   4.202  0.3407 -0.4502  1.7081
  626SOL     OW 2455   9.785   0.427   6.126 -0.3744 -0.3697 -0.0607
  626SOL    HW1 2456   9.801   0.444   6.034 -1.0297  5.0898  0.5226
  626SOL    HW2 2457   9.873   0.414   6.164  0.0335 -0.7365 -1.1000
  627SOL     OW 2458   0.831   6.858   9.428  0.0752 -0.1465 -0.4791
  627SOL    HW1 2459   0.872   6.943   9.443 -0.6533 -0.0646  1.2448
  627SOL    HW2 2460   0.897   6.794   9.457  1.3955 -0.3280 -3.5484
  628SOL     OW 2461   4.983   4.780   1.309  0.2598 -0.2840 -0.0531
  628SOL    HW1 2462   4.976   4.844   1.239  0.1230 -1.6778 -1.3641
  628SOL    HW2 2463   4.906   4.795   1.363  1.0222  1.6559  0.6074
  629SOL     OW 2464   0.454   9.180   3.822  0.4383  0.0535 -0.2762
  629SOL    HW1 2465   0.509   9.164   3.746  0.1132 -2.6155 -0.0669
  629SOL    HW2 2466   0.487   9.119   3.888 -1.8288 -0.6221  0.3264
  630SOL     OW 2467   6.312   4.569   4.524  0.0474  0.1784  0.2178
  630SOL    HW1 2468   6.393   4.618   4.539 -0.6938  1.6285 -0.3542
  630SOL    HW2 2469   6.340   4.494   4.471  1.2673 -0.2757  1.4497
  631SOL     OW 2470   4.493   0.203   4.431 -0.2521  0.0885  0.6058
  631SOL    HW1 2471   4.403   0.176   4.417  0.6075 -1.8829 -1.7134
  631SOL    HW2 2472   4.529   0.138   4.491 -0.0831  0.2721  0.7085
  632SOL     OW 2473   6.361   7.804   8.564 -0.0222 -0.2708  0.1818
  632SOL    HW1 2474   6.293   7.808   8.632 -0.3229  1.6187 -0.1963
  632SOL    HW2 2475   6.438   7.771   8.610 -1.0321 -2.0188  0.7191
  633SOL     OW 2476   6.801   0.888   6.851  0.1504 -0.0413  0.1638
  633SOL    HW1 2477   6.852   0.842   6.785 -0.4163 -0.3080 -0.1010
  633SOL    HW2 2478   6.720   0.912   6.806  0.7213  1.8775  0.0732
  634SOL     OW 2479   7.374   3.020   6.774  0.3632  0.1296  0.4456
  634SOL    HW1 2480   7.372   2.985   6.685 -1.4187  0.7186  0.2147
  634SOL    HW2 2481   7.381   3.115   6.762  2.9243  0.0772  1.0254
  635SOL     OW 2482   6.530   5.826   0.462 -0.2459  0.4007  0.8989
  635SOL    HW1 2483   6.591   5.891   0.427  0.2053 -0.5918 -0.2613
  635SOL    HW2 2484   6.448   5.874   0.475 -0.0711  1.1137 -0.4251
  636SOL     OW 2485   6.612   6.173   6.440 -0.4156  0.6511 -0.0153
  636SOL    HW1 2486   6.602   6.089   6.395 -1.8271  0.6804  0.1865
  636SOL    HW2 2487   6.576   6.237   6.378  1.1088  1.1994 -0.3774
  637SOL     OW 2488   9.132   1.618   2.820 -0.4982  0.5385 -0.5685
  637SOL    HW1 2489   9.075   1.585   2.890  0.9378  1.0618  0.9113
  637SOL    HW2 2490   9.154   1.707   2.846  1.3816  0.1870 -0.8104
  638SOL     OW 2491   8.182   7.816   2.147 -0.8740 -0.2563 -0.1703
  638SOL    HW1 2492   8.259   7.761   2.163  0.0050  0.8576 -0.4765
  638SOL    HW2 2493   8.133   7.813   2.229  0.0532 -0.1152  0.4017
  639SOL     OW 2494   3.443   1.463   6.084 -0.2081 -0.0466  0.0151
  639SOL    HW1 2495   3.443   1.370   6.063 -1.1323  0.2707 -1.5706
  639SOL    HW2 2496   3.501   1.502   6.019  1.9524  0.2898  1.9974
  640SOL     OW 2497   8.094   4.068   4.323 -0.2563  0.7932 -0.1314
  640SOL    HW1 2498   8.176   4.020   4.311  0.4643  2.0093 -0.1379
  640SOL    HW2 2499   8.035   4.032   4.256  0.5592  0.5523 -0.7252
  641SOL     OW 2500   3.603   7.128   3.503 -0.0141  0.0278 -0.3556
  641SOL    HW1 2501   3.538   7.181   3.458  0.0526  0.0941 -0.3733
  641SOL    HW2 2502   3.559   7.100   3.584 -1.3463 -2.8214 -1.9171
  642SOL     OW 2503   0.930   6.755   1.838  0.1785  0.1826 -0.2645
  642SOL    HW1 2504   0.970   6.783   1.756  1.4630  0.0108  0.2838
  642SOL    HW2 2505   0.837   6.778   1.828 -0.0817 -1.4281 -2.4672
  643SOL     OW 2506   4.282   0.257   8.262 -0.2264 -0.0614  0.1028
  643SOL    HW1 2507   4.343   0.330   8.255 -0.2093  0.1560  2.0296
  643SOL    HW2 2508   4.328   0.183   8.223  0.8009  0.3718  0.4726
  644SOL     OW 2509   5.587   6.279   6.083  0.0009 -0.5522 -0.5019
  644SOL    HW1 2510   5.526   6.316   6.146  0.7858 -1.9971  1.1803
  644SOL    HW2 2511   5.531   6.239   6.016 -0.8960 -1.0986  0.5527
  645SOL     OW 2512   3.649   1.250   8.700 -0.3028 -0.2722  0.5204
  645SOL    HW1 2513   3.589   1.189   8.742 -0.4881 -0.7506 -0.4118
  645SOL    HW2 2514   3.736   1.212   8.713 -0.2684  0.0168  1.1856
  646SOL     OW 2515   8.392   5.281   9.670 -0.1586  0.0112  0.7941
  646SOL    HW1 2516   8.386   5.197   9.624  0.9990  0.2724  0.1270
  646SOL    HW2 2517   8.302   5.313   9.673 -0.2551  0.1941 -1.7413
  647SOL     OW 2518   0.897   1.266   2.317 -0.4782 -0.3863 -0.6278
  647SOL    HW1 2519   0.882   1.318   2.238 -1.0637  1.3764  0.6016
  647SOL    HW2 2520   0.989   1.240   2.311  0.1103  1.5893 -0.8566
  648SOL     OW 2521   2.014   3.323   0.679  0.4811 -1.0692  0.0835
  648SOL    HW1 2522   1.987   3.255   0.740  0.8284 -0.4056  1.0034
  648SOL    HW2 2523   2.105   3.342   0.704  0.6576 -0.8394 -0.6993
  649SOL     OW 2524   1.137   9.045   8.672  0.2562 -0.0776  0.0762
  649SOL    HW1 2525   1.148   9.121   8.730 -1.7299  0.2038  0.1781
  649SOL    HW2 2526   1.118   9.084   8.586  1.5254 -0.4932 -0.4125
  650SOL     OW 2527   0.945   0.362   1.552 -0.4639 -0.2805 -0.4059
  650SOL    HW1 2528   0.906   0.430   1.497  0.2757  1.6075  1.2866
  650SOL    HW2 2529   0.965   0.291   1.491 -3.9345 -0.2682 -1.7738
  651SOL     OW 2530   7.048   1.342   5.345  0.1918 -0.3120  0.4270
  651SOL    HW1 2531   6.987   1.399   5.300 -1.2775 -0.6812  1.8567
  651SOL    HW2 2532   7.057   1.380   5.432  0.7149 -1.1701  0.7658
  652SOL     OW 2533   2.013   4.475   3.487 -1.0644 -0.5754  0.1927
  652SOL    HW1 2534   2.054   4.544   3.434 -1.3097 -0.1800  0.5067
  652SOL    HW2 2535   2.062   4.475   3.569 -1.3985 -0.4146  0.3933
  653SOL     OW 2536   2.636   0.662   7.497  0.3663  0.4992  0.4700
  653SOL    HW1 2537   2.648   0.692   7.407 -0.5573  1.6811  0.7104
  653SOL    HW2 2538   2.723   0.633   7.525  0.6377  0.0176 -0.8248
  654SOL     OW 2539   9.506   9.763   4.250 -0.1319  0.1206  0.1506
  654SOL    HW1 2540   9.554   9.845   4.263 -0.0774  0.1988 -0.4983
  654SOL    HW2 2541   9.425   9.789   4.206  0.2737 -0.2601 -0.8506
  655SOL     OW 2542   8.297   4.840   4.149 -0.2443  0.4936 -0.4089
  655SOL    HW1 2543   8.360   4.909   4.173  1.1962 -0.7390 -0.4708
  655SOL    HW2 2544   8.243   4.881   4.081 -0.3219  1.9797  0.4865
  656SOL     OW 2545   7.780   3.643   8.174  0.2363  1.0334 -0.4849
  656SOL    HW1 2546   7.838   3.668   8.246 -0.7274 -0.5361  0.9102
  656SOL    HW2 2547   7.817   3.561   8.141 -1.0078  0.1296  0.2815
  657SOL     OW 2548   4.138   9.312   7.730  0.0970 -0.4425 -0.3373
  657SOL    HW1 2549   4.220   9.346   7.765 -0.5855 -0.1788  1.0735
  657SOL    HW2 2550   4.165   9.255   7.657  1.4283  0.6940 -0.7828
  658SOL     OW 2551   6.393   0.808   7.056  0.2421  0.7432 -0.4387
  658SOL    HW1 2552   6.367   0.716   7.052 -1.6528  1.1336  1.4578
  658SOL    HW2 2553   6.487   0.805   7.074  0.6499 -0.7542 -2.4339
  659SOL     OW 2554   0.713   2.630   6.737  0.2094  0.0014 -0.0272
  659SOL    HW1 2555   0.652   2.668   6.673  0.4155  0.9174  0.2974
  659SOL    HW2 2556   0.788   2.603   6.685  0.0208 -0.0406 -0.2818
  660SOL     OW 2557   8.665   8.665   5.487  0.1780 -0.3325  0.1829
  660SOL    HW1 2558   8.689   8.606   5.558  1.8081 -0.4828 -0.4418
  660SOL    HW2 2559   8.680   8.615   5.407 -0.8002  0.1176 -0.3068
  661SOL     OW 2560   2.750   8.182   2.329 -0.0556  0.0828 -0.7872
  661SOL    HW1 2561   2.747   8.144   2.241  0.6837 -0.3699 -0.6231
  661SOL    HW2 2562   2.672   8.147   2.372 -0.9726  1.1142 -1.5739
  662SOL     OW 2563   7.614   5.905   1.285  0.0160 -0.2469  0.1941
  662SOL    HW1 2564   7.668   5.880   1.209 -0.4973  1.6363 -0.8415
  662SOL    HW2 2565   7.671   5.960   1.338 -0.2036 -0.0784  0.2558
  663SOL     OW 2566   0.911   7.243   6.343  0.3316  0.2232 -0.1958
  663SOL    HW1 2567   1.005   7.230   6.329  0.4355  0.9172 -0.1711
  663SOL    HW2 2568   0.879   7.157   6.370  1.2219  0.3084  1.2289
  664SOL     OW 2569   3.881   6.601   7.982  1.1388 -0.4753 -0.2757
  664SOL    HW1 2570   3.889   6.695   7.973 -1.0992  0.0842  2.2612
  664SOL    HW2 2571   3.972   6.570   7.989  1.9403  1.3531 -1.7094
  665SOL     OW 2572   6.406   4.605   5.659  0.0868 -0.3374  0.3588
  665SOL    HW1 2573   6.328   4.576   5.706 -0.0741  1.5920  1.3934
  665SOL    HW2 2574   6.428   4.532   5.600 -1.0789 -1.8740  1.7531
  666SOL     OW 2575   1.048   4.888   4.915 -0.6879  0.8125  0.1540
  666SOL    HW1 2576   1.091   4.812   4.875 -0.1981 -0.3126  2.6544
  666SOL    HW2 2577   0.977   4.910   4.854  0.8628  0.1541 -2.0321
  667SOL     OW 2578   4.025   0.975   0.252  0.1702 -0.0055 -0.4968
  667SOL    HW1 2579   3.949   0.918   0.249 -0.0030  0.1566  0.4302
  667SOL    HW2 2580   4.037   0.994   0.345  0.6435  0.9048 -0.7279
  668SOL     OW 2581   8.832   9.661   4.289 -0.3561  0.0418 -0.2522
  668SOL    HW1 2582   8.743   9.639   4.263 -0.8109  1.9060 -0.3867
  668SOL    HW2 2583   8.857   9.591   4.350 -2.2379 -0.0260  0.5043
  669SOL     OW 2584   3.522   3.637   6.739  0.2313 -0.6716  0.1016
  669SOL    HW1 2585   3.509   3.723   6.699  0.9448 -0.7822 -0.3887
  669SOL    HW2 2586   3.435   3.598   6.739  0.4544 -1.4920 -3.3079
  670SOL     OW 2587   1.515   5.556   9.984 -0.6455  0.1735  0.3775
  670SOL    HW1 2588   1.598   5.561   9.937 -0.6628 -0.4310  0.2772
  670SOL    HW2 2589   1.494   5.463   9.985 -1.3779  0.3356  0.3062
  671SOL     OW 2590   8.436   1.964   8.630  0.4349 -0.0620 -0.3765
  671SOL    HW1 2591   8.449   2.053   8.596 -0.1389 -0.2240 -1.0397
  671SOL    HW2 2592   8.342   1.959   8.646  0.4668 -0.5504 -0.3497
  672SOL     OW 2593   6.500   6.715   1.319  0.0892 -0.0152  0.4343
  672SOL    HW1 2594   6.467   6.790   1.271 -0.2899 -0.8982 -0.7311
  672SOL    HW2 2595   6.428   6.689   1.376 -0.0877 -0.0134  0.2132
  673SOL     OW 2596   1.854   4.909   3.555  0.1514 -0.0381  0.4808
  673SOL    HW1 2597   1.798   4.883   3.481  1.2094  2.3134 -1.3049
  673SOL    HW2 2598   1.937   4.864   3.539  0.4268  0.5820  0.1095
  674SOL     OW 2599   7.844   2.190   2.567 -0.0231 -0.3961  0.8655
  674SOL    HW1 2600   7.833   2.220   2.477 -1.6999  1.9728  1.7422
  674SOL    HW2 2601   7.927   2.227   2.595  0.0235 -0.2881  0.5855
  675SOL     OW 2602   5.931   4.456   5.028 -0.0854  0.0730  0.2026
  675SOL    HW1 2603   5.860   4.409   5.072 -1.0525  0.6580 -0.6789
  675SOL    HW2 2604   6.005   4.449   5.088 -0.8962 -0.5191  1.1735
  676SOL     OW 2605   8.564   0.002   6.316 -0.0629 -0.3303 -0.0866
  676SOL    HW1 2606   8.483   0.036   6.278 -0.7515 -1.1875  0.5515
  676SOL    HW2 2607   8.623   0.077   6.321 -0.5751  0.1589 -1.1974
  677SOL     OW 2608   4.937   9.751   9.600  0.3486  0.3629 -0.4074
  677SOL    HW1 2609   4.982   9.805   9.665  2.3481 -1.4025 -0.2514
  677SOL    HW2 2610   4.878   9.695   9.651  1.5364 -0.6582 -0.1196
  678SOL     OW 2611   3.982   4.476   8.781 -0.3017 -0.8411  0.4301
  678SOL    HW1 2612   4.035   4.556   8.775  2.1349 -2.2325  1.6874
  678SOL    HW2 2613   3.970   4.449   8.690  1.9529 -0.8932  0.0942
  679SOL     OW 2614   8.803   9.270   2.895  0.3226  0.1656 -0.3891
  679SOL    HW1 2615   8.804   9.179   2.866 -1.3545 -0.3227  0.9232
  679SOL    HW2 2616   8.840   9.319   2.822  0.1779 -1.4418 -1.5934
  680SOL     OW 2617   1.150   8.183   2.613  0.2118 -0.3633 -0.1134
  680SOL    HW1 2618   1.186   8.213   2.696 -1.2849  2.0239 -0.2407
  680SOL    HW2 2619   1.219   8.128   2.575  2.2623  1.1755  1.1949
  681SOL     OW 2620   1.305   5.692   4.803 -0.1846 -0.1542  0.5532
  681SOL    HW1 2621   1.272   5.746   4.731 -0.1939 -0.4348  0.3475
  681SOL    HW2 2622   1.350   5.620   4.760  1.7099  0.8100  0.8224
  682SOL     OW 2623   3.816   7.775   4.609 -0.0823  0.5514 -0.2109
  682SOL    HW1 2624   3.861   7.785   4.525 -2.4440  0.3307 -1.5606
  682SOL    HW2 2625   3.755   7.848   4.613 -0.9507 -0.2019  0.7079
  683SOL     OW 2626   4.302   6.528   0.631 -0.6151  0.0149 -0.0539
  683SOL    HW1 2627   4.260   6.526   0.545 -1.6927 -1.7070  0.4682
  683SOL    HW2 2628   4.266   6.605   0.674 -0.5071  0.5585 -0.9034
  684SOL     OW 2629   1.137   4.752   2.167 -0.5227  0.4754 -0.1784
  684SOL    HW1 2630   1.068   4.686   2.165 -0.7376  0.7078 -0.9416
  684SOL    HW2 2631   1.219   4.703   2.163 -0.6851  0.2520 -1.2038
  685SOL     OW 2632   1.633   7.011   4.553  0.0135 -0.5770 -0.1503
  685SOL    HW1 2633   1.664   7.083   4.608  0.7200 -1.5887  0.8499
  685SOL    HW2 2634   1.639   7.044   4.464  0.4578  0.5468  0.2767
  686SOL     OW 2635   0.732   4.402   7.395 -0.2586 -0.0348  0.5567
  686SOL    HW1 2636   0.697   4.417   7.307 -0.0651 -2.1057  0.0840
  686SOL    HW2 2637   0.820   4.442   7.392  0.4040 -1.4650 -0.7584
  687SOL     OW 2638   3.809   0.258   3.209  0.1511  0.1842 -0.4947
  687SOL    HW1 2639   3.873   0.329   3.206 -0.3107  0.6309  0.1109
  687SOL    HW2 2640   3.853   0.185   3.165 -0.1724  1.4716 -3.1371
  688SOL     OW 2641   5.653   1.977   3.276 -0.0356  0.0118 -0.1438
  688SOL    HW1 2642   5.703   1.982   3.194 -0.4270  1.5789 -0.3083
  688SOL    HW2 2643   5.690   2.047   3.330  0.8266 -1.5586  1.3916
  689SOL     OW 2644   8.260   0.485   1.854  0.3578  0.0674  0.4382
  689SOL    HW1 2645   8.339   0.436   1.878 -0.7821 -1.3323  1.5162
  689SOL    HW2 2646   8.293   0.571   1.827  2.1639  0.0018  2.1555
  690SOL     OW 2647   6.667   1.055   3.784  0.1910 -0.3356 -0.2291
  690SOL    HW1 2648   6.646   1.108   3.860  0.9845  0.0143 -0.2402
  690SOL    HW2 2649   6.703   0.974   3.820  1.6048  0.2693 -0.2161
  691SOL     OW 2650   0.207   1.916   5.903 -0.2663 -0.0706  0.5419
  691SOL    HW1 2651   0.283   1.877   5.947 -1.4795 -2.3856  0.7021
  691SOL    HW2 2652   0.181   1.988   5.961  0.7699 -0.3205  1.3571
  692SOL     OW 2653   6.429   9.608   0.197  0.4608 -0.1623 -0.0668
  692SOL    HW1 2654   6.418   9.578   0.288 -0.7504  2.3161  0.7115
  692SOL    HW2 2655   6.340   9.611   0.163  1.0474 -3.4314 -2.2974
  693SOL     OW 2656   5.427   3.371   0.629  0.0362 -0.4137  0.3517
  693SOL    HW1 2657   5.401   3.288   0.588 -1.1119 -0.0821  0.3892
  693SOL    HW2 2658   5.421   3.354   0.723  0.7353 -0.5702  0.3729
  694SOL     OW 2659   0.908   3.727   3.093 -0.2321  0.8607 -0.0592
  694SOL    HW1 2660   0.858   3.775   3.160  0.3804  0.6845  0.5355
  694SOL    HW2 2661   0.869   3.755   3.010 -0.2196  2.0000  0.2995
  695SOL     OW 2662   8.667   7.820   6.419 -0.1752 -0.0926  0.1211
  695SOL    HW1 2663   8.746   7.788   6.463 -0.1188  2.4128  2.1145
  695SOL    HW2 2664   8.613   7.855   6.490 -2.7198 -0.9198 -1.2983
  696SOL     OW 2665   7.884   0.027   6.948 -0.2514  0.0456  0.5035
  696SOL    HW1 2666   7.952   0.053   7.010  0.0526  1.1455 -0.2670
  696SOL    HW2 2667   7.802   0.048   6.992 -0.0468  3.3646 -0.4047
  697SOL     OW 2668   9.638   5.802   2.901  0.0220  0.0031 -0.0587
  697SOL    HW1 2669   9.682   5.884   2.922  2.5485 -1.4247  0.5774
  697SOL    HW2 2670   9.598   5.775   2.984 -1.0861  0.6910 -0.3436
  698SOL     OW 2671   2.996   7.819   4.578 -0.2030  0.2752 -0.0077
  698SOL    HW1 2672   3.084   7.858   4.581  0.4137 -0.9830 -1.0633
  698SOL    HW2 2673   3.006   7.734   4.621 -0.9896  0.2681  0.1743
  699SOL     OW 2674   5.006   9.768   4.200  0.4792 -0.0476  0.1997
  699SOL    HW1 2675   5.004   9.780   4.105  1.1270 -1.5433 -0.0439
  699SOL    HW2 2676   5.043   9.849   4.234 -1.8618  1.4380 -0.5910
  700SOL     OW 2677   1.734   6.637   9.167  0.2235  0.0299 -0.1023
  700SOL    HW1 2678   1.656   6.596   9.205 -0.0998 -0.8712 -1.6550
  700SOL    HW2 2679   1.708   6.728   9.153  0.2042  0.2781  1.3556
  701SOL     OW 2680   4.599   3.004   7.061 -0.8834  0.2052  0.7678
  701SOL    HW1 2681   4.538   2.975   6.993  0.5807 -0.2399 -0.4034
  701SOL    HW2 2682   4.543   3.034   7.132 -2.4626 -1.2376  0.1937
  702SOL     OW 2683   9.108   0.236   7.391  0.2506 -0.2067 -0.0454
  702SOL    HW1 2684   9.050   0.282   7.451 -1.4015  1.7198 -2.8835
  702SOL    HW2 2685   9.190   0.286   7.394 -0.2926  0.7215 -0.3946
  703SOL     OW 2686   5.544   1.161   0.786  0.4105 -0.0591  0.5421
  703SOL    HW1 2687   5.461   1.126   0.752  1.1702 -2.3580  0.8865
  703SOL    HW2 2688   5.524   1.189   0.875 -0.0499 -0.4685  0.5711
  704SOL     OW 2689   2.145   1.334   1.696  0.2740 -0.0631 -0.3557
  704SOL    HW1 2690   2.188   1.417   1.676 -0.3656  0.1918 -0.6744
  704SOL    HW2 2691   2.197   1.297   1.768  0.6096  0.5677 -0.2696
  705SOL     OW 2692   7.308   9.656   8.758 -0.1919 -0.0185 -0.1087
  705SOL    HW1 2693   7.313   9.688   8.848  0.9071  1.0877 -0.5298
  705SOL    HW2 2694   7.386   9.601   8.748 -0.2913 -0.1080 -0.3895
  706SOL     OW 2695   1.284   0.727   3.091 -0.6342 -0.3351  0.2433
  706SOL    HW1 2696   1.303   0.634   3.106 -0.0491 -0.4594 -1.0828
  706SOL    HW2 2697   1.230   0.753   3.166  0.1262 -1.4491  1.2137
  707SOL     OW 2698   1.977   1.977   1.913  0.1894 -0.3276  0.9609
  707SOL    HW1 2699   1.912   1.909   1.895 -0.0955 -0.4002  2.1710
  707SOL    HW2 2700   1.947   2.053   1.863  1.0779 -1.3571 -1.2550
  708SOL     OW 2701   9.869   3.998   7.698  0.4045  0.7155  0.0160
  708SOL    HW1 2702   9.885   3.903   7.698 -0.3096  0.5870  0.3483
  708SOL    HW2 2703   9.835   4.016   7.611 -1.5841  0.2694  0.6534
  709SOL     OW 2704   2.591   1.702   9.145  0.1193  0.1043  0.1186
  709SOL    HW1 2705   2.548   1.671   9.225  1.0511  0.9269  0.9598
  709SOL    HW2 2706   2.646   1.774   9.174 -0.2741  1.0688 -1.4360
  710SOL     OW 2707   3.457   5.958   8.242 -0.2826 -0.0639  0.2697
  710SOL    HW1 2708   3.455   6.048   8.212 -0.7918  0.0535  0.6326
  710SOL    HW2 2709   3.546   5.944   8.273  0.3122 -0.2488 -1.4347
  711SOL     OW 2710   2.899   5.026   5.687  0.1927  0.0733 -0.6435
  711SOL    HW1 2711   2.830   4.966   5.715 -0.1917  0.9675  0.4290
  711SOL    HW2 2712   2.941   5.053   5.769  0.8729  0.6405 -1.1691
  712SOL     OW 2713   5.067   3.777   2.975 -0.3370 -0.2407 -0.2866
  712SOL    HW1 2714   5.146   3.769   2.921 -1.2053  0.8756 -1.7891
  712SOL    HW2 2715   5.018   3.697   2.959 -0.2746 -0.2070 -0.6464
  713SOL     OW 2716   0.326   8.757   1.343 -0.0588  0.2979  0.1556
  713SOL    HW1 2717   0.320   8.706   1.424  0.0080 -0.5898 -0.3879
  713SOL    HW2 2718   0.333   8.847   1.372  1.1573 -0.0983  1.1707
  714SOL     OW 2719   4.097   3.010   4.923  0.9443  0.2170  0.4044
  714SOL    HW1 2720   4.123   3.100   4.904  1.2876 -0.0505 -0.4616
  714SOL    HW2 2721   4.050   3.015   5.006  1.7790  1.0538  0.8438
  715SOL     OW 2722   9.111   2.154   6.321  0.3618  0.4939  0.0091
  715SOL    HW1 2723   9.181   2.107   6.366  0.4104  2.1798  1.8368
  715SOL    HW2 2724   9.092   2.100   6.244  2.2963 -1.0170  0.4920
  716SOL     OW 2725   4.570   1.607   4.005 -0.5760  0.2481  0.4111
  716SOL    HW1 2726   4.500   1.585   3.943  0.4485 -0.2871 -0.6113
  716SOL    HW2 2727   4.647   1.561   3.970 -0.0271 -0.3058  2.2588
  717SOL     OW 2728   7.911   5.119   7.010 -0.0886  0.5871 -0.1696
  717SOL    HW1 2729   7.930   5.027   7.026 -2.3315  0.3838  1.8761
  717SOL    HW2 2730   7.909   5.159   7.096 -0.9630  2.1414 -0.8642
  718SOL     OW 2731   8.520   9.680   2.602  0.3111 -0.6155 -0.2914
  718SOL    HW1 2732   8.525   9.704   2.694  1.6905  0.1493 -0.5471
  718SOL    HW2 2733   8.593   9.726   2.560 -0.2972 -0.9200 -1.7754
  719SOL     OW 2734   1.247   8.939   1.897  0.6352 -0.3116 -0.1296
  719SOL    HW1 2735   1.188   8.961   1.970  0.1598 -0.5399 -0.4400
  719SOL    HW2 2736   1.190   8.937   1.821  1.0255 -0.6866 -0.4133
  720SOL     OW 2737   7.946   1.282   4.984 -0.0430  0.3360  0.1609
  720SOL    HW1 2738   8.034   1.245   4.978 -0.3754 -0.4000 -0.4496
  720SOL    HW2 2739   7.956   1.359   5.039  0.6336 -0.8395  1.7688
  721SOL     OW 2740   7.278   0.592   2.217 -0.2369 -0.5883  0.0063
  721SOL    HW1 2741   7.342   0.633   2.159  1.4315 -0.5473  1.7877
  721SOL    HW2 2742   7.218   0.663   2.240  0.2039 -0.1548 -0.1620
  722SOL     OW 2743   3.533   9.909   7.442 -0.0963 -0.3174 -0.4025
  722SOL    HW1 2744   3.610   9.918   7.386  0.8626  0.6708  1.0106
  722SOL    HW2 2745   3.544   9.824   7.485  0.1031 -0.2638 -0.3499
  723SOL     OW 2746   2.637   2.599   2.153 -0.1142 -0.3915 -0.0638
  723SOL    HW1 2747   2.614   2.509   2.132 -1.4779  0.1814 -1.2044
  723SOL    HW2 2748   2.674   2.594   2.241 -0.5426 -1.9976  0.0589
  724SOL     OW 2749   2.650   6.125   7.175 -0.3748  0.3685 -0.0992
  724SOL    HW1 2750   2.663   6.186   7.102 -0.8340  1.1839  0.4882
  724SOL    HW2 2751   2.661   6.039   7.135  1.7202  0.8253 -0.6684
  725SOL     OW 2752   4.199   4.245   8.205 -0.1807 -0.5628 -0.0162
  725SOL    HW1 2753   4.142   4.262   8.129 -0.0836  0.8983  0.2036
  725SOL    HW2 2754   4.287   4.259   8.172 -0.2118  1.7781  0.7189
  726SOL     OW 2755   2.765   7.715   0.988  0.2974  0.3876 -0.2901
  726SOL    HW1 2756   2.836   7.681   0.934  1.5043  2.5549 -0.1783
  726SOL    HW2 2757   2.806   7.735   1.073 -0.7852  0.2767  0.2817
  727SOL     OW 2758   7.061   3.216   8.942  0.2970  0.2895  0.0293
  727SOL    HW1 2759   7.086   3.173   8.860 -1.0376 -0.4572 -0.0107
  727SOL    HW2 2760   7.141   3.261   8.971  0.3110  2.3006 -2.7278
  728SOL     OW 2761   7.893   2.213   3.659 -0.2253 -0.1322  0.7709
  728SOL    HW1 2762   7.901   2.118   3.653 -0.7379 -0.1459  0.2606
  728SOL    HW2 2763   7.956   2.238   3.727  0.3671 -0.7670  0.4646
  729SOL     OW 2764   5.083   4.148   2.210 -0.6454 -0.1743  0.2364
  729SOL    HW1 2765   5.058   4.119   2.122 -0.0436 -0.4867  0.1610
  729SOL    HW2 2766   5.178   4.136   2.213 -0.0931  2.9973 -0.2693
  730SOL     OW 2767   1.354   0.528   9.717 -0.4965  0.9877 -0.1855
  730SOL    HW1 2768   1.360   0.479   9.635  4.4870 -1.6049  1.3264
  730SOL    HW2 2769   1.292   0.478   9.770  0.0779 -0.3227 -0.7008
  731SOL     OW 2770   5.590   8.232   1.082 -0.2909 -0.0866  0.2816
  731SOL    HW1 2771   5.516   8.241   1.022 -0.0396 -0.8024 -0.1485
  731SOL    HW2 2772   5.550   8.213   1.167 -0.6478  0.8755  0.3352
  732SOL     OW 2773   1.932   8.291   3.266  0.0848  0.2989 -0.3567
  732SOL    HW1 2774   1.860   8.255   3.318 -0.7482  1.8050 -0.4120
  732SOL    HW2 2775   2.007   8.235   3.288 -0.9301 -0.9117  0.1890
  733SOL     OW 2776   6.180   4.845   1.550 -0.0058  0.4972 -0.1156
  733SOL    HW1 2777   6.190   4.786   1.625  0.2496  0.1034 -0.4545
  733SOL    HW2 2778   6.106   4.810   1.501  0.5579  0.0615 -0.6723
  734SOL     OW 2779   3.017   8.086   5.603  0.4518  0.7913  0.1495
  734SOL    HW1 2780   3.041   8.092   5.511  0.2936  2.5680  0.1965
  734SOL    HW2 2781   3.080   8.024   5.640  0.8762  0.4897 -1.0277
  735SOL     OW 2782   2.830   2.148   4.194  0.3418  0.5605  0.2059
  735SOL    HW1 2783   2.833   2.241   4.216 -0.8557  1.1005 -1.6789
  735SOL    HW2 2784   2.737   2.126   4.197  0.6235 -0.6072  0.7284
  736SOL     OW 2785   3.145   5.320   0.648 -0.0744  0.2213  0.1333
  736SOL    HW1 2786   3.184   5.381   0.584 -1.1603 -0.9141 -1.7031
  736SOL    HW2 2787   3.220   5.270   0.681  0.6424  1.5334  0.5854
  737SOL     OW 2788   0.757   5.842   9.247  0.0235  0.4902 -0.0861
  737SOL    HW1 2789   0.752   5.866   9.154 -1.0611  0.5145 -0.0385
  737SOL    HW2 2790   0.847   5.815   9.260  0.2006  0.5242 -1.1477
  738SOL     OW 2791   2.656   1.912   5.452  0.2129  0.7376  0.2133
  738SOL    HW1 2792   2.595   1.985   5.459  0.4576  1.0315 -0.6590
  738SOL    HW2 2793   2.688   1.915   5.362 -0.5870 -1.1081 -0.1684
  739SOL     OW 2794   4.918   3.293   9.043  0.3977 -0.0760 -0.2189
  739SOL    HW1 2795   4.912   3.217   8.985 -1.0418 -0.4956  0.4394
  739SOL    HW2 2796   4.864   3.360   9.000 -0.3352 -0.2533  0.3920
  740SOL     OW 2797   7.118   2.210   9.236 -0.3717 -0.0249 -0.1170
  740SOL    HW1 2798   7.042   2.212   9.177 -0.8806 -0.3231  0.5097
  740SOL    HW2 2799   7.103   2.282   9.297  0.9792  1.3340 -1.3189
  741SOL     OW 2800   5.447   0.746   0.037 -0.6287  0.3461  0.2161
  741SOL    HW1 2801   5.473   0.692   0.111 -2.7396 -2.1104 -0.6508
  741SOL    HW2 2802   5.441   0.684  -0.036  0.0461  2.4179 -1.7000
  742SOL     OW 2803   6.606   4.728   3.402  0.3760  0.3413  0.2892
  742SOL    HW1 2804   6.514   4.706   3.421  0.0805 -0.7034 -2.0669
  742SOL    HW2 2805   6.603   4.773   3.318  1.9166  1.7781  0.9414
  743SOL     OW 2806   5.930   5.160   0.808  0.0933  0.0184 -0.3301
  743SOL    HW1 2807   5.932   5.090   0.743 -0.0056  1.7228 -2.2797
  743SOL    HW2 2808   5.837   5.178   0.821  0.1143 -0.3361  0.2871
  744SOL     OW 2809   3.729   2.519   4.666  0.2767 -0.0411  0.5314
  744SOL    HW1 2810   3.758   2.488   4.581  0.0065 -0.5529  0.6176
  744SOL    HW2 2811   3.656   2.461   4.689 -0.8206  1.1891  0.3143
  745SOL     OW 2812   6.047   8.459   7.962 -0.2987 -0.1262 -0.2932
  745SOL    HW1 2813   6.106   8.387   7.983 -0.0592 -0.0901 -0.8539
  745SOL    HW2 2814   5.960   8.420   7.964 -0.2359 -0.2527  0.1854
  746SOL     OW 2815   0.102   5.488   4.485  0.6334  0.7064  0.8081
  746SOL    HW1 2816   0.011   5.475   4.512 -0.0412 -1.7679 -2.1628
  746SOL    HW2 2817   0.096   5.538   4.404  2.1662  2.4213  1.6632
  747SOL     OW 2818   5.663   9.363   5.731  0.2434 -0.5172  1.0639
  747SOL    HW1 2819   5.570   9.374   5.714  0.7279  1.5557 -0.6890
  747SOL    HW2 2820   5.682   9.421   5.804  0.4684  0.5102  0.2074
  748SOL     OW 2821   1.409   8.484   1.187  0.2964 -0.4980 -0.5805
  748SOL    HW1 2822   1.375   8.556   1.239  0.1468  0.2680 -1.6911
  748SOL    HW2 2823   1.486   8.453   1.235 -0.0728 -0.0954  0.2832
  749SOL     OW 2824   5.159   3.734   4.665  0.3034 -0.0311  0.3699
  749SOL    HW1 2825   5.207   3.790   4.726  0.2431  0.6456 -0.1871
  749SOL    HW2 2826   5.217   3.660   4.650  0.3863 -0.1289  1.1198
  750SOL     OW 2827   6.392   3.754   8.627 -0.4082  0.4250 -0.5350
  750SOL    HW1 2828   6.359   3.812   8.696  1.8572  1.6355 -0.3899
  750SOL    HW2 2829   6.360   3.793   8.546 -0.6561  0.6646 -0.3251
  751SOL     OW 2830   1.328   4.369   9.755 -0.3560  1.0962  0.3855
  751SOL    HW1 2831   1.387   4.398   9.686  0.7522 -0.3745  0.6766
  751SOL    HW2 2832   1.241   4.380   9.718  0.2173 -0.6447 -1.6721
  752SOL     OW 2833   9.245   1.959   0.911 -0.0171 -0.4979 -0.5016
  752SOL    HW1 2834   9.204   2.045   0.917 -0.6573 -0.7962 -0.4656
  752SOL    HW2 2835   9.303   1.954   0.987 -1.0966 -0.6698  0.3304
  753SOL     OW 2836   7.435   2.199   3.708 -0.3889 -0.3530  0.4409
  753SOL    HW1 2837   7.346   2.173   3.683  0.0820 -1.2133 -0.4038
  753SOL    HW2 2838   7.423   2.252   3.787 -1.8581  1.6304 -0.9974
  754SOL     OW 2839   4.940   3.155   8.045 -0.1486  0.7052  0.8890
  754SOL    HW1 2840   4.980   3.092   8.104 -1.3241  0.8287  1.8515
  754SOL    HW2 2841   5.010   3.218   8.025  1.2330 -1.1846 -0.5814
  755SOL     OW 2842   4.892   2.367   6.689 -0.7665  0.6026 -0.2828
  755SOL    HW1 2843   4.805   2.328   6.695 -1.6089  2.5055  1.1390
  755SOL    HW2 2844   4.936   2.342   6.771  0.1064 -0.4560 -1.0466
  756SOL     OW 2845   7.848   4.001   8.252  0.0619 -0.3158  0.1832
  756SOL    HW1 2846   7.831   3.916   8.293  1.0513 -1.4950 -1.6791
  756SOL    HW2 2847   7.769   4.020   8.202  0.7742 -1.4865 -1.4811
  757SOL     OW 2848   1.445   7.485   7.244 -0.1734  0.1250 -0.1173
  757SOL    HW1 2849   1.525   7.447   7.279 -0.7708  0.8605  2.1946
  757SOL    HW2 2850   1.460   7.488   7.149  0.8572 -3.4680 -0.2174
  758SOL     OW 2851   0.938   5.575   8.789 -0.5357 -0.1696 -0.0923
  758SOL    HW1 2852   0.892   5.554   8.708 -1.1202 -1.1665  0.4704
  758SOL    HW2 2853   1.012   5.514   8.791  1.9512  2.5477 -1.8344
  759SOL     OW 2854   9.801   4.224   1.138 -0.5811 -0.3091  0.2743
  759SOL    HW1 2855   9.786   4.130   1.128  0.2542 -0.5737  1.3632
  759SOL    HW2 2856   9.857   4.248   1.064 -0.3341 -0.7787  0.3104
  760SOL     OW 2857   3.111   1.276   8.547 -0.2545 -0.3730  0.5217
  760SOL    HW1 2858   3.091   1.185   8.529 -0.5052 -0.6689  2.1679
  760SOL    HW2 2859   3.028   1.314   8.577  0.4035 -0.2629  2.2794
  761SOL     OW 2860   3.537   6.062   3.662 -0.1780  0.0074 -0.2107
  761SOL    HW1 2861   3.496   6.038   3.745 -0.6031  0.0626 -0.4050
  761SOL    HW2 2862   3.525   6.157   3.657  0.7368  0.1587  0.1424
  762SOL     OW 2863   1.426   4.630   8.633  0.3896 -0.3933  0.0559
  762SOL    HW1 2864   1.331   4.620   8.625  0.1662  0.3828  1.4536
  762SOL    HW2 2865   1.443   4.722   8.616  0.9725 -0.6357 -0.7363
  763SOL     OW 2866   7.978   9.120   8.794 -0.2327  0.3571 -0.6376
  763SOL    HW1 2867   7.978   9.181   8.720  1.6274  1.8164  0.4583
  763SOL    HW2 2868   7.963   9.176   8.870  0.5080 -0.7223  0.3302
  764SOL     OW 2869   1.270   9.024   6.194  0.5315 -0.2420  0.2839
  764SOL    HW1 2870   1.225   8.945   6.164  1.2615 -0.8516  0.7506
  764SOL    HW2 2871   1.204   9.093   6.188 -0.1148 -0.8794 -0.1459
  765SOL     OW 2872   8.538   9.675   7.578  0.5428 -0.6945  0.0786
  765SOL    HW1 2873   8.625   9.715   7.580 -0.1289  0.8524  0.6618
  765SOL    HW2 2874   8.549   9.591   7.623  1.5779 -0.1457  0.9099
  766SOL     OW 2875   3.351   1.667   3.857  0.5799  0.6065 -0.3857
  766SOL    HW1 2876   3.295   1.598   3.822 -0.7397  1.4299  0.0461
  766SOL    HW2 2877   3.440   1.633   3.846 -0.0252 -1.1758 -0.1604
  767SOL     OW 2878   8.459   4.959   4.397 -0.4997  0.6239 -0.3155
  767SOL    HW1 2879   8.398   5.015   4.445 -0.2543  0.6296 -0.0065
  767SOL    HW2 2880   8.475   5.005   4.315  0.3100  1.4042  0.2573
  768SOL     OW 2881   5.616   9.620   6.723  0.3974 -0.2044 -0.1607
  768SOL    HW1 2882   5.637   9.697   6.670  0.0485  0.0042  0.0019
  768SOL    HW2 2883   5.578   9.558   6.661  0.2883 -0.0833 -0.2154
  769SOL     OW 2884   8.682   7.336   1.626 -0.3475 -0.1912  0.3572
  769SOL    HW1 2885   8.708   7.429   1.626  0.7883 -0.4831 -0.0017
  769SOL    HW2 2886   8.753   7.292   1.578 -0.5268 -1.3375  1.1009
  770SOL     OW 2887   8.967   8.406   8.806 -0.6839  0.3838 -0.5960
  770SOL    HW1 2888   9.013   8.344   8.749  0.5814  1.2399 -0.5549
  770SOL    HW2 2889   9.037   8.446   8.859 -1.7081  0.3698  0.8089
  771SOL     OW 2890   8.001   2.974   7.118 -0.1628  0.6322 -0.1444
  771SOL    HW1 2891   8.047   2.941   7.195 -0.2642  1.0806  0.1138
  771SOL    HW2 2892   8.016   3.069   7.121  2.2279  0.4240 -2.2269
  772SOL     OW 2893   1.392   1.291   1.108 -0.4051  0.1111 -0.2798
  772SOL    HW1 2894   1.348   1.332   1.034  1.2375  0.7495 -0.9491
  772SOL    HW2 2895   1.407   1.364   1.169 -1.8077 -0.4191  0.7575
  773SOL     OW 2896   1.121   5.720   0.116 -0.0602 -0.6216 -0.1733
  773SOL    HW1 2897   1.194   5.781   0.121  0.8578 -1.7478  0.5692
  773SOL    HW2 2898   1.059   5.762   0.055  1.0890  0.4500 -0.6457
  774SOL     OW 2899   1.424   7.555   9.461 -0.0653  0.1093 -0.5607
  774SOL    HW1 2900   1.468   7.581   9.380  0.8734 -0.6004 -0.2936
  774SOL    HW2 2901   1.355   7.495   9.432  1.3592 -1.5242 -0.7300
  775SOL     OW 2902   7.963   8.522   9.711  0.5455  0.2399  0.0230
  775SOL    HW1 2903   8.031   8.512   9.644  0.5938 -1.2568  0.2601
  775SOL    HW2 2904   8.007   8.567   9.783  1.0429  0.0966 -0.1841
  776SOL     OW 2905   6.080   7.815   8.305  0.4192 -0.0987 -0.0221
  776SOL    HW1 2906   6.123   7.861   8.232  0.9942 -0.9250 -0.2226
  776SOL    HW2 2907   6.062   7.727   8.270 -0.0480 -0.2422  0.5682
  777SOL     OW 2908   4.105   4.282   4.945  0.2361  0.1118  0.3752
  777SOL    HW1 2909   4.187   4.295   4.899  0.5016 -0.4888  0.6735
  777SOL    HW2 2910   4.130   4.248   5.031 -0.3791 -1.6403 -0.0970
  778SOL     OW 2911   4.477   1.546   7.041 -0.3564  0.2231 -0.1345
  778SOL    HW1 2912   4.474   1.619   7.103 -0.0977  0.4744 -0.4106
  778SOL    HW2 2913   4.563   1.507   7.053  0.4637  1.4360 -1.6180
  779SOL     OW 2914   4.775   8.227   8.103 -0.0155  0.3033 -0.4225
  779SOL    HW1 2915   4.753   8.193   8.190  1.1428  1.7846  0.5145
  779SOL    HW2 2916   4.699   8.207   8.049 -1.8879  1.5464  1.5721
  780SOL     OW 2917   2.349   7.392   7.931 -0.1292  0.2808  0.7473
  780SOL    HW1 2918   2.398   7.352   8.002 -0.5394 -0.1126  0.8126
  780SOL    HW2 2919   2.355   7.486   7.948 -0.0100  0.2006  1.1588
  781SOL     OW 2920   2.836   2.562   7.810 -0.2070  0.4009 -0.5087
  781SOL    HW1 2921   2.794   2.547   7.895  0.8286  0.9850  0.1276
  781SOL    HW2 2922   2.816   2.484   7.759 -1.0019  0.1251  0.2108
  782SOL     OW 2923   4.449   1.679   9.948  0.3538 -0.3739  0.5669
  782SOL    HW1 2924   4.460   1.722  10.034  2.2924  2.0970 -0.7702
  782SOL    HW2 2925   4.419   1.749   9.891 -0.7879 -1.9580 -0.8627
  783SOL     OW 2926   5.866   0.009   4.400  0.0433  0.1728  0.3202
  783SOL    HW1 2927   5.901   0.005   4.489  0.3676 -1.1182  0.1567
  783SOL    HW2 2928   5.778   0.046   4.410 -0.1553 -0.5099  1.2600
  784SOL     OW 2929   9.842   4.962   7.002 -0.3616 -0.7251 -0.3686
  784SOL    HW1 2930   9.825   5.050   7.037  1.1572 -1.3956  2.3284
  784SOL    HW2 2931   9.756   4.926   6.984 -1.0422  1.0571 -0.9553
  785SOL     OW 2932   3.223   7.883   9.664  0.3294  0.6084 -0.2012
  785SOL    HW1 2933   3.222   7.978   9.657  1.2878  0.6676  0.3354
  785SOL    HW2 2934   3.295   7.864   9.724  0.4456 -0.4787 -0.6656
  786SOL     OW 2935   7.429   1.475   6.892 -0.1487 -0.9682  0.0491
  786SOL    HW1 2936   7.428   1.500   6.985  0.6562  1.7982 -0.6025
  786SOL    HW2 2937   7.519   1.492   6.864 -0.2385 -2.2846 -1.1365
  787SOL     OW 2938   4.484   2.202   8.986  0.4208 -0.2192 -0.2185
  787SOL    HW1 2939   4.530   2.276   9.025 -0.7353 -0.3702  1.5811
  787SOL    HW2 2940   4.536   2.126   9.009  1.3628 -0.0443 -1.6696
  788SOL     OW 2941   4.282   6.433   8.580  0.4440  0.2702  0.4762
  788SOL    HW1 2942   4.209   6.489   8.551  0.0257 -0.2481  0.5078
  788SOL    HW2 2943   4.332   6.489   8.640  0.3760  0.8066  0.0420
  789SOL     OW 2944   4.099   4.880   6.621  0.2786 -0.3883  0.0327
  789SOL    HW1 2945   4.194   4.887   6.611  0.2395  0.0505 -0.0601
  789SOL    HW2 2946   4.066   4.877   6.531  0.3358 -2.7085  0.0120
  790SOL     OW 2947   1.256   8.774   8.062  0.3736  0.5890 -0.9556
  790SOL    HW1 2948   1.319   8.768   7.990 -0.3423 -2.3191 -1.4349
  790SOL    HW2 2949   1.193   8.704   8.046 -0.3777  0.4538  1.9940
  791SOL     OW 2950   5.874   8.410   6.923 -0.2356  0.3686  0.4549
  791SOL    HW1 2951   5.897   8.491   6.878  0.4357 -0.3936 -0.6449
  791SOL    HW2 2952   5.957   8.380   6.961 -0.6865  0.7098  1.7582
  792SOL     OW 2953   7.051   5.801   5.081  0.1587  0.4919 -0.5331
  792SOL    HW1 2954   7.087   5.874   5.030  0.1004 -0.1391 -1.5004
  792SOL    HW2 2955   6.991   5.757   5.021  0.3845 -0.5018 -0.0565
  793SOL     OW 2956   4.239   5.763   2.351  0.2715 -0.0256  0.1798
  793SOL    HW1 2957   4.247   5.826   2.422  1.3715 -1.0568  0.9963
  793SOL    HW2 2958   4.320   5.773   2.301  0.3114 -0.5823  0.1354
  794SOL     OW 2959   6.913   0.503   0.897 -0.1798  0.8393 -0.6507
  794SOL    HW1 2960   6.929   0.429   0.957 -2.1564 -0.1534 -1.2562
  794SOL    HW2 2961   6.962   0.576   0.935 -0.0259 -0.1960  1.2591
  795SOL     OW 2962   2.441   0.148   8.060  0.1792  0.5135  0.7491
  795SOL    HW1 2963   2.426   0.178   8.150 -0.3920 -0.2156  0.9033
  795SOL    HW2 2964   2.398   0.062   8.056 -0.8237  1.0461 -0.5571
  796SOL     OW 2965   3.765   4.012   7.241 -0.1123 -0.4360 -0.5162
  796SOL    HW1 2966   3.781   4.085   7.181 -0.2881 -0.9666 -1.2239
  796SOL    HW2 2967   3.848   3.964   7.245 -0.3517 -0.9024 -1.0345
  797SOL     OW 2968   2.799   1.778   4.339 -0.0695 -0.4633 -0.1614
  797SOL    HW1 2969   2.775   1.775   4.247 -0.5577 -0.9363 -0.0263
  797SOL    HW2 2970   2.894   1.782   4.339 -0.0398 -0.9813 -0.6857
  798SOL     OW 2971   5.046   7.399   2.368  0.4302 -0.1739  0.4239
  798SOL    HW1 2972   5.097   7.477   2.393  0.2312  0.0173  0.2386
  798SOL    HW2 2973   5.033   7.352   2.451  0.5232  0.0080  0.5444
  799SOL     OW 2974   5.251   0.128   8.660  0.1607 -0.8232  0.0499
  799SOL    HW1 2975   5.291   0.214   8.643  0.7871 -1.0447  0.3788
  799SOL    HW2 2976   5.179   0.146   8.719 -2.7409  0.1410 -3.4114
  800SOL     OW 2977   7.068   5.456   5.528 -0.0099  0.2369  0.4212
  800SOL    HW1 2978   7.065   5.443   5.433  2.2544  1.0940  0.1720
  800SOL    HW2 2979   6.995   5.515   5.546 -2.7130 -2.6482 -0.1904
  801SOL     OW 2980   2.541   5.495   0.601 -0.6685  0.7296 -0.2062
  801SOL    HW1 2981   2.621   5.541   0.575 -0.8608  1.3617  0.2943
  801SOL    HW2 2982   2.471   5.537   0.551 -0.9474  1.4974  0.8066
  802SOL     OW 2983   1.167   3.732   8.704 -0.2987  0.8336  0.5668
  802SOL    HW1 2984   1.214   3.651   8.721 -0.5183  0.2865 -1.2274
  802SOL    HW2 2985   1.234   3.800   8.703  0.2234  0.3165 -0.2326
  803SOL     OW 2986   4.046   8.686   1.666  0.1575 -0.0653  0.2529
  803SOL    HW1 2987   4.025   8.609   1.613  0.1400  0.7324 -0.9617
  803SOL    HW2 2988   4.107   8.655   1.732  0.2763 -1.0829 -0.3180
  804SOL     OW 2989   4.107   0.386   7.723 -0.4224  0.2417 -0.3610
  804SOL    HW1 2990   4.134   0.476   7.703 -0.3404  0.5293  0.9618
  804SOL    HW2 2991   4.112   0.380   7.819 -0.8990 -1.0271 -0.3981
  805SOL     OW 2992   0.692   2.725   3.737 -0.6398 -0.2656  0.0653
  805SOL    HW1 2993   0.706   2.635   3.708 -0.1205 -0.2475  0.2437
  805SOL    HW2 2994   0.780   2.762   3.741 -0.9521  0.7152 -1.4796
  806SOL     OW 2995   8.048   1.710   4.057  0.9529  0.3594 -0.4684
  806SOL    HW1 2996   8.073   1.799   4.034  1.5456  0.0924 -0.8738
  806SOL    HW2 2997   7.974   1.721   4.117  0.4616  1.0999 -1.1913
  807SOL     OW 2998   6.650   6.251   5.525 -0.0462  0.1046 -0.3583
  807SOL    HW1 2999   6.666   6.334   5.570 -1.1912  1.1622 -1.7849
  807SOL    HW2 3000   6.566   6.221   5.558 -0.2655  0.2079 -0.8123
  808SOL     OW 3001   8.331   2.198   9.840 -0.2434 -0.1682  0.3210
  808SOL    HW1 3002   8.342   2.229   9.750  0.1347 -2.3507 -0.4390
  808SOL    HW2 3003   8.418   2.170   9.866 -0.9062 -2.6241  0.1187
  809SOL     OW 3004   9.467   8.398   9.485  0.0751 -0.3413  0.3473
  809SOL    HW1 3005   9.445   8.373   9.396 -1.4063 -0.3094  0.6757
  809SOL    HW2 3006   9.563   8.392   9.489  0.1635 -0.3330 -1.2269
  810SOL     OW 3007   5.877   0.003   5.485  0.4110 -0.0625 -0.4294
  810SOL    HW1 3008   5.947   0.059   5.453 -0.0470 -0.5619 -2.4303
  810SOL    HW2 3009   5.800   0.060   5.489  0.2065 -0.2537 -1.3773
  811SOL     OW 3010   8.522   1.101   9.123  0.1862 -0.1857 -0.1441
  811SOL    HW1 3011   8.591   1.047   9.162  0.3386  0.3354  0.3300
  811SOL    HW2 3012   8.540   1.189   9.156 -0.3642  0.0597 -0.4897
  812SOL     OW 3013   4.998   4.070   6.853 -0.3783  0.4438  0.2734
  812SOL    HW1 3014   4.905   4.081   6.870 -0.2423  0.3124  1.1685
  812SOL    HW2 3015   5.029   4.012   6.923  0.5140  1.0768  0.4312
  813SOL     OW 3016   3.134   8.676   5.753 -0.4317  0.4638 -0.3508
  813SOL    HW1 3017   3.143   8.690   5.659  1.2085 -0.1051 -0.3175
  813SOL    HW2 3018   3.056   8.725   5.778 -0.6618  0.9465 -1.9340
  814SOL     OW 3019   1.077   9.365   3.041  0.5496  0.0278  0.4886
  814SOL    HW1 3020   1.124   9.350   2.958  0.1970  0.2455  0.2484
  814SOL    HW2 3021   0.997   9.409   3.015  1.3273  1.8891  1.1198
  815SOL     OW 3022   6.665   1.091   4.471  0.4154  0.1245 -0.0904
  815SOL    HW1 3023   6.628   1.167   4.516 -0.9831 -1.4297  1.5613
  815SOL    HW2 3024   6.759   1.105   4.474  0.2470  3.4758 -3.0720
  816SOL     OW 3025   8.772   2.370   5.042  0.5513  0.6116 -0.5484
  816SOL    HW1 3026   8.686   2.359   5.000 -1.1549  0.4975  2.7074
  816SOL    HW2 3027   8.798   2.281   5.066  0.7672  0.8150 -0.0204
  817SOL     OW 3028   3.043   4.934   7.076 -0.5340 -0.4780  0.2365
  817SOL    HW1 3029   3.042   4.856   7.131 -1.4608 -0.5744  0.0925
  817SOL    HW2 3030   3.070   4.902   6.990 -0.9743 -0.6510  0.1620
  818SOL     OW 3031   1.576   3.454   3.514 -0.6391 -0.5037  0.2615
  818SOL    HW1 3032   1.646   3.391   3.496 -1.1352 -0.8074 -0.7107
  818SOL    HW2 3033   1.539   3.426   3.597  0.6478 -0.0948  0.9897
  819SOL     OW 3034   7.955   4.032   8.856  0.2364  0.5772 -0.2610
  819SOL    HW1 3035   7.999   4.113   8.883  0.3470  0.7779 -1.0065
  819SOL    HW2 3036   7.939   3.985   8.937 -0.6550  1.7617  0.2687
  820SOL     OW 3037   2.965   3.292   0.051 -0.3255 -0.7266  0.0799
  820SOL    HW1 3038   3.047   3.248   0.029 -0.4636 -0.4458 -1.0855
  820SOL    HW2 3039   2.970   3.376   0.006 -1.5223 -0.9806 -0.5800
  821SOL     OW 3040   3.214   5.048   8.663 -0.3291 -0.5609 -0.0642
  821SOL    HW1 3041   3.258   5.075   8.582 -2.3000  0.3034 -0.8976
  821SOL    HW2 3042   3.210   5.128   8.716 -0.1944 -0.8235  0.3455
  822SOL     OW 3043   3.245   4.090   0.366 -0.1888  0.0885  0.1606
  822SOL    HW1 3044   3.272   3.999   0.371 -1.6892 -0.3727  0.1137
  822SOL    HW2 3045   3.322   4.139   0.394  1.1880 -1.0927 -1.3646
  823SOL     OW 3046   6.721   6.820   6.219  0.4955 -0.0095  0.2972
  823SOL    HW1 3047   6.756   6.851   6.135 -1.3941  1.0600 -0.1596
  823SOL    HW2 3048   6.680   6.736   6.198  3.4367 -1.7553  1.0276
  824SOL     OW 3049   9.058   2.872   1.892  0.2098 -0.3629  0.0674
  824SOL    HW1 3050   9.047   2.857   1.798 -0.0094 -0.0572  0.0421
  824SOL    HW2 3051   9.152   2.883   1.903  0.1701  0.3571 -0.2385
  825SOL     OW 3052   9.125   2.605   8.874  0.2795  0.6819 -0.5315
  825SOL    HW1 3053   9.097   2.662   8.945 -0.0275 -0.0991 -0.0055
  825SOL    HW2 3054   9.051   2.546   8.860  0.4455  0.6534 -1.3151
  826SOL     OW 3055   9.064   7.860   2.184 -0.2596 -0.8129 -0.1394
  826SOL    HW1 3056   8.980   7.828   2.152  0.8252 -2.1577 -1.8820
  826SOL    HW2 3057   9.099   7.787   2.236 -0.2576 -0.1828  0.7542
  827SOL     OW 3058   7.399   5.612   0.698  0.1994 -0.0180  0.3017
  827SOL    HW1 3059   7.442   5.660   0.627 -0.4886  2.2964  1.3667
  827SOL    HW2 3060   7.437   5.646   0.778 -0.4128 -1.1991  1.1362
  828SOL     OW 3061   4.414   1.159   9.660  0.1443  0.3100 -0.1350
  828SOL    HW1 3062   4.377   1.245   9.683  0.8086  0.3747  0.7527
  828SOL    HW2 3063   4.506   1.177   9.640  0.7766 -0.3981  1.8359
  829SOL     OW 3064   1.991   0.035   1.481  0.2910  0.0643 -0.4292
  829SOL    HW1 3065   1.987  -0.047   1.432  1.3200 -0.3174  0.1105
  829SOL    HW2 3066   1.919   0.088   1.445  0.2575 -0.6757 -1.4826
  830SOL     OW 3067   0.918   2.886   6.621  0.4711 -0.2368  0.4558
  830SOL    HW1 3068   0.852   2.817   6.633 -0.0667  0.0937 -0.5060
  830SOL    HW2 3069   0.871   2.957   6.578  1.3941  0.1204  0.0106
  831SOL     OW 3070   3.561   3.322   2.935 -0.0818 -0.5143  0.0587
  831SOL    HW1 3071   3.475   3.321   2.976  0.4757  0.1056  1.3057
  831SOL    HW2 3072   3.572   3.413   2.906 -0.1705 -0.7819 -0.8520
  832SOL     OW 3073   2.026   5.766   7.802  0.0127 -0.2956  0.2681
  832SOL    HW1 3074   2.072   5.791   7.881  1.5035  0.6487 -0.8457
  832SOL    HW2 3075   2.093   5.728   7.745 -0.7161  0.3827 -1.0989
  833SOL     OW 3076   4.169   7.713   5.923 -0.3968 -0.1163  0.8573
  833SOL    HW1 3077   4.169   7.650   5.851  1.1873 -0.1422  0.8526
  833SOL    HW2 3078   4.257   7.750   5.923 -1.0440  1.5436  1.3563
  834SOL     OW 3079   5.003   8.521   6.942 -0.3882  0.1804  0.5264
  834SOL    HW1 3080   5.045   8.605   6.924 -1.4615  0.7416  0.5823
  834SOL    HW2 3081   4.945   8.507   6.867 -0.9501 -0.0276  0.9957
  835SOL     OW 3082   4.488   0.226   4.875 -0.2434  0.0582 -0.5894
  835SOL    HW1 3083   4.424   0.285   4.913 -3.2885 -2.3064 -1.5901
  835SOL    HW2 3084   4.469   0.141   4.914 -0.7933 -1.6409 -4.0970
  836SOL     OW 3085   2.594   5.325   7.079  0.6187 -0.1239  0.1464
  836SOL    HW1 3086   2.526   5.289   7.136 -0.0205 -1.7322 -1.5239
  836SOL    HW2 3087   2.638   5.391   7.132 -1.5774  0.2482  1.6309
  837SOL     OW 3088   5.084   3.525   3.672 -0.1772 -0.4952  0.1858
  837SOL    HW1 3089   5.027   3.595   3.640 -0.1129 -0.1179  0.8715
  837SOL    HW2 3090   5.148   3.511   3.602 -0.4138 -0.1187 -0.1049
  838SOL     OW 3091   5.168   7.219   7.584  0.2504  0.1875 -0.6843
  838SOL    HW1 3092   5.175   7.128   7.613 -0.8323  0.1197 -0.6265
  838SOL    HW2 3093   5.197   7.216   7.492 -0.9208 -0.4382 -1.0562
  839SOL     OW 3094   6.095   9.932   9.027  0.5082  0.2335  0.3057
  839SOL    HW1 3095   6.005   9.917   9.000  0.4964 -0.0892  0.5180
  839SOL    HW2 3096   6.147   9.914   8.949  0.5705 -1.8573  0.7712
  840SOL     OW 3097   7.729   0.329   5.175 -0.1290 -0.0389 -0.4435
  840SOL    HW1 3098   7.785   0.260   5.211 -1.1237 -1.9074 -2.2366
  840SOL    HW2 3099   7.746   0.326   5.081  1.4897  3.8032 -0.4639
  841SOL     OW 3100   8.471   5.082   4.168 -0.7150 -0.1805 -0.8534
  841SOL    HW1 3101   8.540   5.132   4.212  0.3633 -2.7185  0.6114
  841SOL    HW2 3102   8.391   5.132   4.183  0.1804  0.7881  1.0371
  842SOL     OW 3103   9.373   0.882   4.931  0.1416  0.0538  0.0195
  842SOL    HW1 3104   9.317   0.925   4.866 -0.1248 -0.3863 -0.0452
  842SOL    HW2 3105   9.442   0.840   4.880 -0.2257 -0.5289 -0.0042
  843SOL     OW 3106   8.728   6.009   5.113 -0.1244  0.3636 -0.2352
  843SOL    HW1 3107   8.761   5.965   5.035  2.7843  3.1508 -0.7958
  843SOL    HW2 3108   8.769   5.962   5.186  1.9857  1.2463 -0.7606
  844SOL     OW 3109   8.135   6.001   3.820  0.0304 -0.1058 -0.4999
  844SOL    HW1 3110   8.044   5.996   3.791 -0.4430  0.0988  0.8649
  844SOL    HW2 3111   8.183   6.032   3.744 -0.9883 -0.5370 -1.3444
  845SOL     OW 3112   2.675   7.757   5.772  0.2399 -0.0550 -0.1653
  845SOL    HW1 3113   2.673   7.665   5.744  0.3296 -0.0082 -0.3253
  845SOL    HW2 3114   2.719   7.756   5.857 -1.9047 -0.4767  1.0027
  846SOL     OW 3115   8.913   3.171   4.770 -0.8349 -0.4399 -0.1333
  846SOL    HW1 3116   8.933   3.082   4.741  1.0979  0.5019 -1.9839
  846SOL    HW2 3117   8.984   3.192   4.831 -2.2259 -0.7122  1.6401
  847SOL     OW 3118   1.082   2.121   0.977 -0.6170 -0.2146  0.4351
  847SOL    HW1 3119   1.077   2.043   0.921 -0.0236 -0.3960  0.6271
  847SOL    HW2 3120   1.090   2.194   0.915  3.1082 -0.6162  0.2239
  848SOL     OW 3121   5.058   4.106   3.243  0.2497 -0.1404  0.1126
  848SOL    HW1 3122   5.137   4.125   3.294  0.7827  1.2059 -1.1621
  848SOL    HW2 3123   4.989   4.099   3.309  1.3018 -0.8044  1.2107
  849SOL     OW 3124   3.192   2.083   6.064  0.4135 -0.6426 -0.2327
  849SOL    HW1 3125   3.199   2.170   6.024  0.0035 -0.5503 -0.1162
  849SOL    HW2 3126   3.248   2.027   6.012  0.8365 -0.2616 -0.1870
  850SOL     OW 3127   5.819   8.608   9.360  0.2587 -0.7533  0.7620
  850SOL    HW1 3128   5.901   8.635   9.401  0.7859 -0.2482 -0.5478
  850SOL    HW2 3129   5.756   8.604   9.432  0.5628  2.3212  1.3345
  851SOL     OW 3130   3.288   8.273   6.785 -0.2661  0.1017  0.1065
  851SOL    HW1 3131   3.375   8.312   6.782  0.2666 -1.0169  0.4697
  851SOL    HW2 3132   3.286   8.226   6.869 -2.0471  1.9589  1.2062
  852SOL     OW 3133   7.265   1.275   6.398  0.0337  0.6689 -0.0479
  852SOL    HW1 3134   7.340   1.235   6.443  0.3504  0.9721 -0.3003
  852SOL    HW2 3135   7.304   1.343   6.343 -0.4279  0.8151 -0.1960
  853SOL     OW 3136   4.218   5.421   8.529  0.7398  0.3272 -0.2445
  853SOL    HW1 3137   4.298   5.378   8.498  0.6810 -0.8235  1.0833
  853SOL    HW2 3138   4.235   5.439   8.622 -0.4841  0.2230  0.0153
  854SOL     OW 3139   1.455   0.647   9.354 -0.3760 -0.4568 -0.1314
  854SOL    HW1 3140   1.458   0.741   9.335 -0.6009 -0.5083 -0.4221
  854SOL    HW2 3141   1.401   0.610   9.284 -1.1489 -0.6561  0.5527
  855SOL     OW 3142   1.277   1.368   2.146  0.0216  0.1010  0.3592
  855SOL    HW1 3143   1.317   1.447   2.183  0.3268 -0.7106  1.8274
  855SOL    HW2 3144   1.219   1.336   2.216 -1.1845 -0.2147 -0.7501
  856SOL     OW 3145   3.385   4.430   5.411  0.2137  0.1205  0.0997
  856SOL    HW1 3146   3.361   4.385   5.329  1.5072  2.2032 -1.5212
  856SOL    HW2 3147   3.423   4.361   5.466 -1.0702 -1.4203 -0.8494
  857SOL     OW 3148   6.010   2.095   3.325 -0.3329  0.3258 -0.0763
  857SOL    HW1 3149   6.045   2.038   3.257  0.6207  0.3697  0.3562
  857SOL    HW2 3150   6.057   2.177   3.314 -0.0976  0.3007  0.6899
  858SOL     OW 3151   0.884   7.688   4.323 -0.1175  0.0953 -0.0270
  858SOL    HW1 3152   0.900   7.682   4.417 -0.1302 -1.7203 -0.1171
  858SOL    HW2 3153   0.791   7.707   4.315 -0.0651  0.5152  0.3118
  859SOL     OW 3154   3.650   8.356   9.415 -0.3444  0.1451  0.0190
  859SOL    HW1 3155   3.608   8.416   9.353 -1.2353 -0.5992 -0.1327
  859SOL    HW2 3156   3.743   8.381   9.414 -0.4227  0.4834 -1.2453
  860SOL     OW 3157   1.185   5.227   3.109 -0.2438  0.1194 -0.1559
  860SOL    HW1 3158   1.225   5.190   3.187  0.2594  2.2757  0.6850
  860SOL    HW2 3159   1.092   5.203   3.115 -0.1352 -0.0405  0.9346
  861SOL     OW 3160   1.471   9.878   6.706  0.5132 -0.3516  0.0792
  861SOL    HW1 3161   1.488   9.833   6.789  0.1000  1.0933  0.9798
  861SOL    HW2 3162   1.548   9.860   6.653  1.5388  0.0618  1.3926
  862SOL     OW 3163   3.756   3.964   8.815  0.7176  0.3891  0.2097
  862SOL    HW1 3164   3.662   3.955   8.830  0.5465 -1.1722 -1.4778
  862SOL    HW2 3165   3.767   4.054   8.784 -0.2623  0.4815  0.1155
  863SOL     OW 3166   0.139   3.493   1.729 -0.3777 -0.2154 -0.4304
  863SOL    HW1 3167   0.055   3.512   1.688 -1.3336 -2.3073  0.4090
  863SOL    HW2 3168   0.204   3.535   1.672 -1.9293  0.9161 -1.4257
  864SOL     OW 3169   2.683   2.023   3.598  0.0947 -0.1408  0.6723
  864SOL    HW1 3170   2.747   2.068   3.654  1.2940 -2.5470  1.3738
  864SOL    HW2 3171   2.602   2.073   3.611  1.4984  2.3517  0.6135
  865SOL     OW 3172   3.272   3.462   6.134 -0.5300  0.0100  0.3434
  865SOL    HW1 3173   3.346   3.468   6.196 -0.3281  0.4894  0.0592
  865SOL    HW2 3174   3.302   3.400   6.067 -0.7456 -0.5037  0.7123
  866SOL     OW 3175   1.169   5.610   5.836 -0.4981  0.3769 -0.8644
  866SOL    HW1 3176   1.095   5.590   5.778 -0.1614 -1.1335 -0.8100
  866SOL    HW2 3177   1.241   5.556   5.803  0.2519  0.9670 -0.2183
  867SOL     OW 3178   3.040   9.034   8.775 -0.5726  0.0205  0.8390
  867SOL    HW1 3179   3.106   9.031   8.845  1.6301  2.3735 -0.9384
  867SOL    HW2 3180   2.978   9.102   8.803  0.5583  1.2855  0.4068
  868SOL     OW 3181   7.946   8.165   8.084  0.5555  0.0973  0.0950
  868SOL    HW1 3182   8.023   8.126   8.123  0.7456 -0.8967 -1.1827
  868SOL    HW2 3183   7.938   8.123   7.998 -0.5604  1.2376 -0.4125
  869SOL     OW 3184   4.306   4.670   7.053 -0.1489 -1.1223  0.5129
  869SOL    HW1 3185   4.213   4.689   7.063  0.0322 -0.3769  0.8595
  869SOL    HW2 3186   4.310   4.575   7.044 -1.0983 -1.0287 -1.3206
  870SOL     OW 3187   3.702   9.961   0.379 -0.6663  0.0511 -0.2675
  870SOL    HW1 3188   3.702   9.880   0.430  0.8293 -0.1181 -0.4993
  870SOL    HW2 3189   3.613   9.997   0.391 -0.5253 -0.2059  2.1035
  871SOL     OW 3190   5.886   7.647   1.342  0.3822 -0.2772 -0.0763
  871SOL    HW1 3191   5.931   7.563   1.332 -1.9634 -1.5014 -1.1440
  871SOL    HW2 3192   5.856   7.669   1.254  0.7507  1.6282  0.2149
  872SOL     OW 3193   6.167   5.641   5.740  0.5923 -0.0463  0.1837
  872SOL    HW1 3194   6.152   5.734   5.727  2.8550  0.3853  0.1923
  872SOL    HW2 3195   6.221   5.614   5.665  0.6533 -1.1500  0.5989
  873SOL     OW 3196   9.115   8.720   9.843  0.2206  0.3790  0.2319
  873SOL    HW1 3197   9.199   8.690   9.810  0.8438  0.2397  1.8687
  873SOL    HW2 3198   9.130   8.739   9.936 -2.0244 -1.6645  1.1268
  874SOL     OW 3199   5.867   2.281   3.690 -0.1502 -0.5888  0.3897
  874SOL    HW1 3200   5.806   2.317   3.755 -1.3186 -1.4478 -0.1963
  874SOL    HW2 3201   5.889   2.356   3.634  1.0637  0.2147  1.8808
  875SOL     OW 3202   2.573   1.219   1.188  0.3211  0.3695 -0.0953
  875SOL    HW1 3203   2.496   1.276   1.194 -0.1430 -0.2750  0.0828
  875SOL    HW2 3204   2.548   1.151   1.126 -0.0524 -1.0767  1.5754
  876SOL     OW 3205   8.877   6.596   3.319  0.5286  0.4012 -0.5945
  876SOL    HW1 3206   8.949   6.631   3.266  0.4634  1.9054  0.2657
  876SOL    HW2 3207   8.920   6.534   3.379  1.7018  3.3748  1.9072
  877SOL     OW 3208   6.808   4.296   2.691 -0.7501 -0.1627 -0.4105
  877SOL    HW1 3209   6.754   4.369   2.721 -0.0231 -0.1826  1.0395
  877SOL    HW2 3210   6.816   4.308   2.596 -0.9984  1.3849 -0.2464
  878SOL     OW 3211   7.535   9.161   2.322  0.5244 -0.3632 -0.4089
  878SOL    HW1 3212   7.516   9.142   2.414  0.6726  0.4708 -0.1967
  878SOL    HW2 3213   7.547   9.075   2.281 -1.5407 -0.8679 -0.0821
  879SOL     OW 3214   9.194   5.486   9.419 -0.1120  0.4805 -0.2765
  879SOL    HW1 3215   9.211   5.526   9.504 -1.1926 -2.8022  1.6753
  879SOL    HW2 3216   9.099   5.479   9.413 -0.0078 -1.7841 -0.3773
  880SOL     OW 3217   7.777   8.738   6.009  0.3262  0.0675 -0.1195
  880SOL    HW1 3218   7.707   8.687   6.049  0.0141  1.5733  1.3605
  880SOL    HW2 3219   7.856   8.711   6.056 -0.0041  1.6603  1.4517
  881SOL     OW 3220   7.258   7.301   0.124 -0.0671  0.0644  0.6059
  881SOL    HW1 3221   7.175   7.348   0.120  0.3372  0.7439  0.0007
  881SOL    HW2 3222   7.256   7.256   0.209 -1.2254 -0.2670  0.4146
  882SOL     OW 3223   9.914   0.638   0.143  0.4009  0.1977  0.9854
  882SOL    HW1 3224   9.828   0.618   0.181 -0.9126  0.7855 -1.4764
  882SOL    HW2 3225   9.945   0.554   0.109 -1.9187  0.6999 -3.1020
  883SOL     OW 3226   5.303   5.108   1.191 -0.0776 -0.6245  0.5456
  883SOL    HW1 3227   5.250   5.139   1.265 -1.8646  0.0850 -0.9319
  883SOL    HW2 3228   5.378   5.065   1.231  0.3723  1.9403  2.7721
  884SOL     OW 3229   0.766   2.686   8.013  0.3723  0.1113 -0.1434
  884SOL    HW1 3230   0.828   2.758   8.025  0.6521 -0.0402 -0.6001
  884SOL    HW2 3231   0.821   2.614   7.981  0.1908 -0.4838  0.8474
  885SOL     OW 3232   0.037   7.220   0.812  0.0358 -0.0974 -0.1958
  885SOL    HW1 3233   0.084   7.286   0.761 -1.0256  2.0852  1.4371
  885SOL    HW2 3234  -0.032   7.189   0.754  1.1317 -0.5057 -1.3208
  886SOL     OW 3235   8.313   7.235   8.989  0.8555  0.2667  0.2022
  886SOL    HW1 3236   8.278   7.253   9.077 -0.1954 -2.1104  0.3324
  886SOL    HW2 3237   8.374   7.162   9.002  1.2710  0.3924 -0.9455
  887SOL     OW 3238   8.754   7.563   8.932 -0.4432 -0.1864  0.5191
  887SOL    HW1 3239   8.727   7.623   8.862  0.6206 -0.3096 -0.0149
  887SOL    HW2 3240   8.733   7.476   8.898  1.4294 -0.3593 -0.3257
  888SOL     OW 3241   0.506   4.752   2.986  0.2647  0.1457  0.7336
  888SOL    HW1 3242   0.566   4.823   2.963 -0.4352  0.2612 -0.9016
  888SOL    HW2 3243   0.553   4.672   2.964 -1.1881  0.2331 -3.9260
  889SOL     OW 3244   9.955   9.625   3.778 -0.0195 -0.1811 -0.0817
  889SOL    HW1 3245   9.984   9.586   3.860 -0.5016 -1.2522 -0.4157
  889SOL    HW2 3246   9.908   9.704   3.805  1.9528  0.8527  0.5382
  890SOL     OW 3247   4.261   2.392   8.590 -0.0393  0.0010  0.3065
  890SOL    HW1 3248   4.223   2.430   8.511  0.2242 -1.5803 -0.6222
  890SOL    HW2 3249   4.350   2.429   8.594 -0.1711  0.3497  0.0561
  891SOL     OW 3250   3.108   8.725   8.409 -0.3414  0.1417  0.5457
  891SOL    HW1 3251   3.081   8.687   8.492  1.3335 -0.0930  1.0316
  891SOL    HW2 3252   3.196   8.690   8.394 -0.6983 -0.0121 -1.4617
  892SOL     OW 3253   8.239   1.657   2.032 -0.5792  0.1518  0.1185
  892SOL    HW1 3254   8.187   1.638   2.109  0.7945  0.7776  1.2446
  892SOL    HW2 3255   8.178   1.699   1.971 -1.1563  2.0185  1.8776
  893SOL     OW 3256   2.793   9.141   0.326 -0.1424  0.0725  0.3564
  893SOL    HW1 3257   2.848   9.178   0.256 -0.9328 -1.6956 -1.2935
  893SOL    HW2 3258   2.713   9.113   0.282  0.1125 -2.9065  1.5341
  894SOL     OW 3259   2.852   0.177   3.829  0.2859  0.1851 -0.1760
  894SOL    HW1 3260   2.924   0.114   3.825 -1.2318 -1.6575 -0.2396
  894SOL    HW2 3261   2.881   0.250   3.774  1.6661 -0.9657 -1.0602
  895SOL     OW 3262   6.244   2.572   5.879 -0.1054  0.2090  0.0751
  895SOL    HW1 3263   6.266   2.479   5.890  1.1763  0.3833 -0.7839
  895SOL    HW2 3264   6.304   2.618   5.938 -1.8824  0.4364  1.7927
  896SOL     OW 3265   2.503   9.895   7.761 -0.2469 -0.2259  0.2950
  896SOL    HW1 3266   2.548   9.810   7.771 -0.7248 -0.6722 -1.1014
  896SOL    HW2 3267   2.566   9.950   7.714 -0.9893 -0.7513 -1.3807
  897SOL     OW 3268   9.580   2.788   6.997 -0.0219 -0.1253  0.3329
  897SOL    HW1 3269   9.610   2.877   6.980 -0.1394 -0.1170  0.1648
  897SOL    HW2 3270   9.644   2.752   7.058  0.4036 -0.1543 -0.1240
  898SOL     OW 3271   5.828   9.508   0.766  0.0210  0.1228 -0.3790
  898SOL    HW1 3272   5.764   9.436   0.768  0.1719 -0.0096  1.8459
  898SOL    HW2 3273   5.814   9.549   0.681  0.0471 -2.6145 -1.8265
  899SOL     OW 3274   3.537   5.724   3.883  0.6046 -0.1964  0.3063
  899SOL    HW1 3275   3.533   5.683   3.969 -1.6377 -0.3886  0.1844
  899SOL    HW2 3276   3.629   5.746   3.871  0.7372  2.0343  3.7853
  900SOL     OW 3277   4.673   8.319   0.030 -0.0280  0.2128  0.5753
  900SOL    HW1 3278   4.727   8.392   0.059  0.0910  0.3819 -0.0813
  900SOL    HW2 3279   4.713   8.242   0.071  2.1743  0.0020 -1.7778
  901SOL     OW 3280   2.614   4.883   6.396  0.0940  0.0770  0.8466
  901SOL    HW1 3281   2.550   4.824   6.435 -0.2623  0.2286  0.5021
  901SOL    HW2 3282   2.604   4.965   6.445 -2.0499  1.0697 -1.0405
  902SOL     OW 3283   2.261   5.466   1.706  0.1313 -0.0289  0.1351
  902SOL    HW1 3284   2.297   5.486   1.620  2.2749 -1.6726  0.5542
  902SOL    HW2 3285   2.217   5.382   1.694  1.6559 -0.9841  0.8617
  903SOL     OW 3286   6.311   6.644   1.483  0.1881  0.1671 -0.3853
  903SOL    HW1 3287   6.224   6.673   1.454  0.2524 -0.7853 -1.6147
  903SOL    HW2 3288   6.343   6.716   1.538 -1.2556  0.6508 -0.1329
  904SOL     OW 3289   6.689   0.275   5.389  0.7323  0.5008  0.3861
  904SOL    HW1 3290   6.603   0.311   5.365  1.2993  2.9000  1.5918
  904SOL    HW2 3291   6.670   0.186   5.417 -1.2997  0.7872  0.1017
  905SOL     OW 3292   5.766   8.514   0.517  0.7898  0.0277 -0.3801
  905SOL    HW1 3293   5.704   8.549   0.453 -1.4538 -0.5833  1.3323
  905SOL    HW2 3294   5.761   8.419   0.505  0.1000 -0.1108  0.8576
  906SOL     OW 3295   5.648   5.826   9.941  0.5503 -0.1057  0.4449
  906SOL    HW1 3296   5.691   5.818   9.856  1.5015 -0.0619  0.9100
  906SOL    HW2 3297   5.555   5.838   9.920  0.6456 -0.9668 -0.5614
  907SOL     OW 3298   4.225   1.605   0.110  0.3484 -0.0637 -0.1888
  907SOL    HW1 3299   4.242   1.518   0.146  1.1444 -0.3913 -1.2858
  907SOL    HW2 3300   4.303   1.624   0.057 -0.5370  0.5948 -1.2992
  908SOL     OW 3301   5.214   7.090   3.711  0.3328 -0.0070 -1.2175
  908SOL    HW1 3302   5.221   6.998   3.687  1.4033 -1.0421  2.3814
  908SOL    HW2 3303   5.293   7.131   3.674  1.3638 -1.2180 -0.4312
  909SOL     OW 3304   0.771   6.295   6.539  0.4700  0.1038 -0.1435
  909SOL    HW1 3305   0.801   6.386   6.537  0.7200  0.0108 -1.1267
  909SOL    HW2 3306   0.850   6.244   6.522  0.1352 -0.2404 -0.6743
  910SOL     OW 3307   5.284   4.923   9.628 -0.0071 -0.7079  0.1579
  910SOL    HW1 3308   5.252   4.889   9.712 -0.5808 -1.4917 -0.3716
  910SOL    HW2 3309   5.205   4.937   9.576  0.1984  1.4135  0.3174
  911SOL     OW 3310   2.129   8.661   6.975 -0.2161 -0.7482  0.0704
  911SOL    HW1 3311   2.221   8.652   6.951 -0.4680  2.3137 -2.8053
  911SOL    HW2 3312   2.087   8.585   6.935  0.9855 -2.4504  1.8213
  912SOL     OW 3313   1.963   7.754   5.088 -0.3953 -0.1869  0.4914
  912SOL    HW1 3314   1.976   7.723   5.178  0.8175  2.3392  1.2980
  912SOL    HW2 3315   2.047   7.791   5.063 -0.3202 -1.9347 -2.2551
  913SOL     OW 3316   6.156   7.223   0.659  0.8870  0.6341 -0.2054
  913SOL    HW1 3317   6.218   7.294   0.675 -0.5233  1.7100  0.5912
  913SOL    HW2 3318   6.094   7.227   0.731  0.4661 -1.1086 -0.4072
  914SOL     OW 3319   2.178   6.910   0.922  0.3059  0.5884  0.0510
  914SOL    HW1 3320   2.171   6.834   0.979  2.9970 -0.8019 -1.2933
  914SOL    HW2 3321   2.103   6.902   0.863  0.8939 -1.4578 -0.4909
  915SOL     OW 3322   2.555   2.342   0.502  0.2716  0.6259  0.1884
  915SOL    HW1 3323   2.523   2.429   0.528 -1.3602  0.5842 -1.4856
  915SOL    HW2 3324   2.608   2.358   0.424  0.4572  0.1827  0.2201
  916SOL     OW 3325   5.953   9.437   4.175 -0.5426 -0.3070  0.5987
  916SOL    HW1 3326   5.872   9.388   4.159  0.1816 -1.5513  0.5748
  916SOL    HW2 3327   6.021   9.370   4.177  1.1020  0.9534 -3.2072
  917SOL     OW 3328   3.638   7.720   3.636 -0.3113 -0.1320  0.3059
  917SOL    HW1 3329   3.634   7.796   3.694  0.0781  0.1896 -0.0856
  917SOL    HW2 3330   3.720   7.676   3.660  1.3484  1.5402 -1.8670
  918SOL     OW 3331   3.895   7.481   4.359  0.3702  0.0766 -0.0616
  918SOL    HW1 3332   3.947   7.488   4.439 -0.1063 -1.3044  0.3998
  918SOL    HW2 3333   3.925   7.400   4.318  1.3957  1.2995 -1.8975
  919SOL     OW 3334   8.056   3.132   3.337  0.0982  0.3517 -0.0062
  919SOL    HW1 3335   8.014   3.075   3.402 -0.1677  0.2610 -0.2561
  919SOL    HW2 3336   8.080   3.210   3.387  1.1485 -0.2748  0.5037
  920SOL     OW 3337   3.253   5.015   3.235  0.0525  0.0822  0.0885
  920SOL    HW1 3338   3.219   5.090   3.284  0.4527  0.0715  0.3835
  920SOL    HW2 3339   3.337   4.996   3.275 -0.1142 -0.6280  0.1195
  921SOL     OW 3340   1.690   9.140   8.275  0.3968 -0.1691 -0.3613
  921SOL    HW1 3341   1.667   9.075   8.208  1.3122 -0.4514 -0.4283
  921SOL    HW2 3342   1.780   9.166   8.253  1.4030 -1.5508  1.7124
  922SOL     OW 3343   3.954   0.135   1.203  0.0374  0.2002  0.3180
  922SOL    HW1 3344   4.001   0.064   1.160 -0.2768  0.2643 -0.1385
  922SOL    HW2 3345   3.928   0.099   1.288  0.8390  0.1410  0.5481
  923SOL     OW 3346   6.221   9.567   0.594  0.2218 -0.4427 -0.6098
  923SOL    HW1 3347   6.137   9.601   0.562  0.2042  4.3499  3.3295
  923SOL    HW2 3348   6.199   9.510   0.667  0.2935  0.6431  0.2858
  924SOL     OW 3349   3.957   2.297   1.092  0.2693  0.8285 -0.7770
  924SOL    HW1 3350   4.029   2.292   1.029  0.0178 -0.8056 -0.9787
  924SOL    HW2 3351   3.887   2.245   1.053 -0.4136  0.9853  0.1978
  925SOL     OW 3352   8.669   5.027   5.229 -0.1895  0.2574 -0.8353
  925SOL    HW1 3353   8.721   4.962   5.276  0.0025  0.4546 -0.7709
  925SOL    HW2 3354   8.596   4.977   5.191 -0.3726  0.1076 -0.2857
  926SOL     OW 3355   0.908   3.624   8.978 -0.4159 -0.0745  0.0148
  926SOL    HW1 3356   0.854   3.674   9.039 -1.4658  0.3590 -1.2229
  926SOL    HW2 3357   0.997   3.658   8.991 -0.6106 -0.0194  1.2994
  927SOL     OW 3358   8.405   3.027   7.580  0.3110  0.1574 -0.0569
  927SOL    HW1 3359   8.417   2.937   7.609  1.5676  0.6923  1.2057
  927SOL    HW2 3360   8.344   3.065   7.643  1.1387  0.6489  0.4686
  928SOL     OW 3361   1.103   3.108   3.633 -0.1234 -0.0355  0.2298
  928SOL    HW1 3362   1.094   3.204   3.629 -1.6077 -0.1635 -0.0212
  928SOL    HW2 3363   1.171   3.093   3.698  0.0152  1.1863  0.3864
  929SOL     OW 3364   6.957   9.267   5.276 -0.5432  0.3809  0.2679
  929SOL    HW1 3365   6.982   9.352   5.238 -1.6766  0.5344 -0.1668
  929SOL    HW2 3366   6.881   9.287   5.331 -0.6756 -0.3206  0.3427
  930SOL     OW 3367   5.072   6.328   3.748  0.3578 -0.3398  0.6360
  930SOL    HW1 3368   5.090   6.380   3.826  0.6068 -0.9994  1.0323
  930SOL    HW2 3369   5.093   6.238   3.774  1.0008 -0.5005 -0.3666
  931SOL     OW 3370   0.914   7.828   9.592  0.0720 -0.2529  0.7919
  931SOL    HW1 3371   1.001   7.796   9.569  1.6801  1.9718  3.1636
  931SOL    HW2 3372   0.908   7.914   9.550 -1.1505 -0.5166  0.3810
  932SOL     OW 3373   9.775   0.317   5.644  0.0070  0.8057  0.3162
  932SOL    HW1 3374   9.828   0.238   5.634 -2.3788 -0.8308 -0.2255
  932SOL    HW2 3375   9.820   0.383   5.590  0.9726 -0.7627 -0.8769
  933SOL     OW 3376   2.581   2.053   1.952  0.1006  0.1128 -0.2520
  933SOL    HW1 3377   2.549   2.122   1.893  2.4806  0.3842 -1.3519
  933SOL    HW2 3378   2.509   1.990   1.956 -1.0523  1.2799 -1.5180
  934SOL     OW 3379   8.681   4.142   0.476 -0.2756 -0.1745 -0.4620
  934SOL    HW1 3380   8.707   4.198   0.549 -0.0653 -1.0052  0.1099
  934SOL    HW2 3381   8.645   4.203   0.411 -1.1340  0.5175  0.6125
  935SOL     OW 3382   8.703   9.940   0.748  0.0506  0.6881  0.5722
  935SOL    HW1 3383   8.745   9.943   0.662  0.4286  0.1651  0.7319
  935SOL    HW2 3384   8.695  10.032   0.774 -1.0711  0.9116 -0.4904
  936SOL     OW 3385   1.581   3.772   4.015  0.1562  0.2581  0.0369
  936SOL    HW1 3386   1.531   3.752   3.936 -1.2451  0.8743  0.7340
  936SOL    HW2 3387   1.631   3.850   3.992  0.2016  0.1000 -0.4216
  937SOL     OW 3388   2.146   8.163   8.159 -0.0153 -0.0172  0.3168
  937SOL    HW1 3389   2.190   8.078   8.161 -2.8060 -1.5559  0.5872
  937SOL    HW2 3390   2.111   8.170   8.070 -0.1877  0.6799  0.4319
  938SOL     OW 3391   0.822   3.666   7.179 -0.3390 -0.2076 -0.4047
  938SOL    HW1 3392   0.800   3.759   7.184  0.5676  0.0318 -0.5940
  938SOL    HW2 3393   0.748   3.626   7.133 -0.6729  0.4408 -0.4409
  939SOL     OW 3394   1.796   3.261   3.449  0.5959  0.1058 -0.5960
  939SOL    HW1 3395   1.832   3.254   3.361  0.2878  0.4223 -0.7504
  939SOL    HW2 3396   1.822   3.180   3.493  1.5830  0.3711 -0.6700
  940SOL     OW 3397   6.668   9.824   3.635  0.2612  0.3470 -0.1092
  940SOL    HW1 3398   6.620   9.870   3.566 -2.0036 -3.6821 -1.5636
  940SOL    HW2 3399   6.602   9.802   3.701  1.6678  0.8929  1.5775
  941SOL     OW 3400   2.715   8.575   1.473 -0.0521  0.0983 -0.5918
  941SOL    HW1 3401   2.686   8.665   1.461  0.5391  0.3049 -0.4637
  941SOL    HW2 3402   2.738   8.569   1.565 -1.6056 -0.6318 -0.2150
  942SOL     OW 3403   2.563   0.892   5.722  0.2970 -0.0711 -0.4723
  942SOL    HW1 3404   2.562   0.796   5.725 -1.9832 -0.0798  0.7801
  942SOL    HW2 3405   2.635   0.914   5.663 -0.2200 -2.5779 -2.1761
  943SOL     OW 3406   6.815   0.336   1.398  0.0987 -0.1791  0.3039
  943SOL    HW1 3407   6.802   0.417   1.349  0.1928 -0.4723 -0.2240
  943SOL    HW2 3408   6.736   0.326   1.450  0.7152  1.0173  1.5224
  944SOL     OW 3409   5.277   1.809   3.493 -0.3385 -0.2669  0.1602
  944SOL    HW1 3410   5.194   1.768   3.519 -0.7031  0.2355 -0.1993
  944SOL    HW2 3411   5.251   1.889   3.447  0.3462 -0.1643 -0.0555
  945SOL     OW 3412   0.017   0.425   2.270 -1.0503  0.0581 -0.7658
  945SOL    HW1 3413   0.054   0.502   2.228 -0.0011  0.2683  0.4843
  945SOL    HW2 3414  -0.030   0.379   2.200 -2.5804  2.3292 -1.3317
  946SOL     OW 3415   0.007   2.518   9.192  0.0195 -0.2802  0.2742
  946SOL    HW1 3416   0.070   2.486   9.127 -1.8227 -3.3046 -0.2150
  946SOL    HW2 3417  -0.061   2.560   9.139  0.0041  0.0116  0.5234
  947SOL     OW 3418   1.836   5.278   9.304  0.0011  0.1182 -0.0700
  947SOL    HW1 3419   1.917   5.243   9.267  0.6627 -0.2220  1.5658
  947SOL    HW2 3420   1.862   5.311   9.390 -1.7802 -0.9123  0.9287
  948SOL     OW 3421   9.630   3.727   8.030  0.2785 -0.4705  0.8917
  948SOL    HW1 3422   9.595   3.673   8.100 -0.3837 -0.8287  0.2891
  948SOL    HW2 3423   9.570   3.715   7.957  0.9974 -0.1612  0.2303
  949SOL     OW 3424   4.707   9.529   3.995 -0.5839 -0.0545  0.6360
  949SOL    HW1 3425   4.631   9.539   4.052 -1.6380  0.2931 -0.7701
  949SOL    HW2 3426   4.753   9.613   4.002 -1.9131  0.8299 -0.6547
  950SOL     OW 3427   4.770   9.584   9.744  0.0766  0.4925 -0.3461
  950SOL    HW1 3428   4.764   9.645   9.818 -0.0920  1.2794 -0.9990
  950SOL    HW2 3429   4.684   9.544   9.739  0.1945  0.1654  0.0987
  951SOL     OW 3430   7.571   9.069   1.577  0.3914  0.0254 -0.6283
  951SOL    HW1 3431   7.504   9.123   1.619  0.0020 -1.0884  0.1999
  951SOL    HW2 3432   7.556   8.981   1.610  3.2374 -0.0316  0.8232
  952SOL     OW 3433   5.483   5.970   3.269 -0.3829 -0.0044 -0.5031
  952SOL    HW1 3434   5.462   6.049   3.218  2.8477  1.1386 -0.2543
  952SOL    HW2 3435   5.542   5.920   3.213  1.1815  0.0071  1.0622
  953SOL     OW 3436   8.081   1.290   5.588  0.5354  1.2194  0.5147
  953SOL    HW1 3437   8.176   1.286   5.577  0.3802  1.8463 -1.3678
  953SOL    HW2 3438   8.059   1.382   5.579 -0.3911  0.9158 -0.5604
  954SOL     OW 3439   8.783   3.360   8.535 -0.0440 -0.1373 -0.2612
  954SOL    HW1 3440   8.735   3.399   8.608  1.8016 -0.0080  0.9370
  954SOL    HW2 3441   8.827   3.434   8.493  0.5941 -0.4878 -0.2108
  955SOL     OW 3442   1.922   1.118   8.153 -0.3608  0.7998 -0.3799
  955SOL    HW1 3443   1.937   1.065   8.074  0.6826 -0.6359  0.7239
  955SOL    HW2 3444   1.873   1.061   8.212 -2.1540  2.2605 -0.3665
  956SOL     OW 3445   9.875   1.840   3.506 -0.7016  0.0576  0.4163
  956SOL    HW1 3446   9.867   1.872   3.596  0.1845  0.8150  0.2339
  956SOL    HW2 3447   9.923   1.909   3.460 -2.2756  0.2845 -0.9628
  957SOL     OW 3448   9.033   9.955   1.723 -0.3922 -0.9355 -0.2417
  957SOL    HW1 3449   9.016  10.021   1.790  0.3645  0.0942 -1.0401
  957SOL    HW2 3450   8.949   9.945   1.678  0.1030  1.5427 -1.8894
  958SOL     OW 3451   1.051   8.964   4.653  0.1329  0.2921 -0.6734
  958SOL    HW1 3452   1.070   8.979   4.746 -0.9746 -1.5442 -0.1020
  958SOL    HW2 3453   1.079   8.874   4.637 -2.7743 -0.6178 -1.1841
  959SOL     OW 3454   1.428   0.983   1.982  0.2120  0.1735 -0.0508
  959SOL    HW1 3455   1.463   1.022   2.061 -0.8621 -0.9935  1.0487
  959SOL    HW2 3456   1.336   0.965   2.002 -0.0241 -0.3937 -1.4595
  960SOL     OW 3457   9.457   1.495   7.609 -0.0825  0.6973 -0.0236
  960SOL    HW1 3458   9.540   1.476   7.654 -0.9811 -1.5752  0.8127
  960SOL    HW2 3459   9.390   1.484   7.675 -1.1811  1.0239 -1.0450
  961SOL     OW 3460   3.773   2.173   0.933 -0.1140 -0.3753 -0.5234
  961SOL    HW1 3461   3.754   2.097   0.878  0.2738  0.5507 -1.9837
  961SOL    HW2 3462   3.691   2.192   0.977  0.1632 -2.5904  1.1460
  962SOL     OW 3463   0.423   7.596   1.570 -0.3521  0.3184  0.1478
  962SOL    HW1 3464   0.416   7.575   1.477  1.1112  1.9623 -0.3901
  962SOL    HW2 3465   0.365   7.671   1.582 -0.7521 -0.0682  0.6250
  963SOL     OW 3466   9.543   9.086   3.745  0.4569 -0.3907 -0.5932
  963SOL    HW1 3467   9.611   9.028   3.711  2.2897  1.2122  0.1467
  963SOL    HW2 3468   9.551   9.166   3.692  1.3609  1.0173  1.5523
  964SOL     OW 3469   4.649   3.107   6.180  0.6597 -0.2065 -0.0627
  964SOL    HW1 3470   4.592   3.170   6.136 -0.3249 -0.4877  0.7655
  964SOL    HW2 3471   4.727   3.101   6.124 -0.0106  0.3867 -1.0822
  965SOL     OW 3472   5.259   8.392   4.033 -0.2722 -0.3277 -0.9475
  965SOL    HW1 3473   5.306   8.317   4.070  1.2603  0.9198 -0.2797
  965SOL    HW2 3474   5.318   8.427   3.966  0.1126  1.6592  0.3496
  966SOL     OW 3475   6.266   0.472   2.594 -0.1898 -0.3866  0.3734
  966SOL    HW1 3476   6.299   0.384   2.575 -1.8565 -0.8084 -0.8457
  966SOL    HW2 3477   6.286   0.521   2.514  0.3905  0.2522  0.9050
  967SOL     OW 3478   2.530   1.259   7.184  0.2410  0.3093  0.0365
  967SOL    HW1 3479   2.516   1.190   7.249 -0.2257  0.9541  0.6278
  967SOL    HW2 3480   2.569   1.331   7.232 -1.1895  1.2403 -0.1185
  968SOL     OW 3481   9.980   1.868   1.409 -0.2207 -0.1624  0.2390
  968SOL    HW1 3482  10.006   1.786   1.368  0.6364  0.4595 -0.5311
  968SOL    HW2 3483   9.886   1.861   1.422 -0.0749 -1.4770  0.6914
  969SOL     OW 3484   5.536   5.395   9.028  0.4768  0.0032  0.6178
  969SOL    HW1 3485   5.525   5.463   8.962 -0.8629 -1.0219 -0.2616
  969SOL    HW2 3486   5.605   5.339   8.994 -0.5619 -0.8107 -0.1879
  970SOL     OW 3487   4.630   9.615   2.147  0.1469  0.3701 -0.0432
  970SOL    HW1 3488   4.644   9.706   2.172  0.5165  1.3255 -3.2744
  970SOL    HW2 3489   4.718   9.579   2.136  0.0128  0.2116 -0.6391
  971SOL     OW 3490   5.532   3.899   7.197 -0.0236  0.0263  0.0001
  971SOL    HW1 3491   5.535   3.804   7.190  2.4349  0.0037  0.6879
  971SOL    HW2 3492   5.440   3.919   7.217 -0.5637 -2.1689 -0.0883
  972SOL     OW 3493   1.029   7.535   6.055 -0.1369 -0.1013 -0.7421
  972SOL    HW1 3494   0.989   7.448   6.050 -0.1215 -0.0788 -1.2507
  972SOL    HW2 3495   1.056   7.543   6.147 -1.2042 -0.1517 -0.4090
  973SOL     OW 3496   3.362   6.476   5.675  0.1060 -0.5224  0.5568
  973SOL    HW1 3497   3.363   6.385   5.705 -1.0638 -0.9088 -0.5140
  973SOL    HW2 3498   3.412   6.475   5.594  1.0497  0.0226  1.1154
  974SOL     OW 3499   9.583   5.603   1.511  0.2648 -0.1044 -0.4040
  974SOL    HW1 3500   9.568   5.604   1.605  0.8007  1.7463 -0.3071
  974SOL    HW2 3501   9.674   5.629   1.500  0.3291 -0.7062 -1.4243
  975SOL     OW 3502   5.447   7.344   5.979  0.0605  0.2547 -0.7094
  975SOL    HW1 3503   5.462   7.380   6.067  0.5201  0.2033 -0.7654
  975SOL    HW2 3504   5.352   7.343   5.970  0.0227  1.5181 -0.7286
  976SOL     OW 3505   6.130   2.657   1.018 -0.4631 -0.1332 -0.2761
  976SOL    HW1 3506   6.053   2.624   1.064 -1.2970  1.1244 -0.7227
  976SOL    HW2 3507   6.201   2.651   1.083 -0.6559 -2.2615 -0.1903
  977SOL     OW 3508   3.266   3.951   1.036 -0.2208 -0.3241  0.0323
  977SOL    HW1 3509   3.314   3.953   1.119 -0.4028 -0.6720  0.1461
  977SOL    HW2 3510   3.308   3.881   0.986  0.6222  0.6126 -0.6162
  978SOL     OW 3511   7.257   8.743   0.214  0.2105 -0.4944  0.2405
  978SOL    HW1 3512   7.165   8.760   0.236  0.4328  0.1638  0.6711
  978SOL    HW2 3513   7.305   8.814   0.256  0.7429  0.2376 -1.5357
  979SOL     OW 3514   4.833   1.014   8.642  0.1881 -0.4149  0.1361
  979SOL    HW1 3515   4.829   0.935   8.696 -0.4340 -0.9882 -0.7289
  979SOL    HW2 3516   4.912   1.060   8.672 -1.5289  0.6797  3.3892
  980SOL     OW 3517   2.027   0.630   9.614  0.3687  0.4347 -0.0090
  980SOL    HW1 3518   1.953   0.689   9.598 -0.6471 -0.7153  0.3290
  980SOL    HW2 3519   2.098   0.664   9.559 -1.6725 -0.9274 -3.7641
  981SOL     OW 3520   0.097   5.197   4.772 -0.1001 -0.2056 -0.3016
  981SOL    HW1 3521   0.005   5.183   4.750 -0.0904 -0.1397 -0.3845
  981SOL    HW2 3522   0.140   5.213   4.687 -0.2199  0.9794 -0.1547
  982SOL     OW 3523   6.090   2.226   0.533  0.5861 -0.1357  0.0100
  982SOL    HW1 3524   6.106   2.316   0.507 -2.4452  1.0852  1.8226
  982SOL    HW2 3525   6.085   2.177   0.451  2.2243  1.3193 -1.0014
  983SOL     OW 3526   8.752   7.198   6.686 -0.0746 -0.2890 -0.1122
  983SOL    HW1 3527   8.700   7.272   6.715 -0.4978 -0.1570 -1.1785
  983SOL    HW2 3528   8.830   7.201   6.741  0.0497  1.1220 -0.3227
  984SOL     OW 3529   4.801   2.742   8.107 -0.4087  0.3236  0.1993
  984SOL    HW1 3530   4.715   2.775   8.080 -0.0034 -0.3133 -2.0223
  984SOL    HW2 3531   4.782   2.658   8.149 -0.9655  0.8022  0.9363
  985SOL     OW 3532   7.193   3.640   2.954 -0.5414  0.2465  0.6843
  985SOL    HW1 3533   7.157   3.724   2.981 -0.1502  0.5596  0.2539
  985SOL    HW2 3534   7.178   3.637   2.859  0.0996  0.1577  0.5812
  986SOL     OW 3535   3.296   8.477   7.111 -0.1629  0.1916  0.0702
  986SOL    HW1 3536   3.253   8.401   7.071  1.3317  0.9484 -3.3826
  986SOL    HW2 3537   3.361   8.440   7.170 -1.8439 -1.0480  1.2549
  987SOL     OW 3538   5.466   7.543   3.759  0.6318 -0.2255 -0.2728
  987SOL    HW1 3539   5.492   7.498   3.840  2.0322  0.1972 -0.4512
  987SOL    HW2 3540   5.549   7.564   3.716 -0.1051 -0.6753 -1.9679
  988SOL     OW 3541   1.005   6.690   1.356 -0.1195  0.2878  0.2665
  988SOL    HW1 3542   0.942   6.745   1.308 -0.2339  1.3846  1.5964
  988SOL    HW2 3543   1.089   6.708   1.315 -0.3184  0.6530  0.0144
  989SOL     OW 3544   9.259   5.963   8.835 -0.0746 -0.2876  0.9944
  989SOL    HW1 3545   9.179   5.982   8.785 -0.3022  0.6910  1.6949
  989SOL    HW2 3546   9.322   5.935   8.769 -0.6277  0.1485  0.2632
  990SOL     OW 3547   8.556   6.583   4.868 -0.1723 -0.0628  0.0875
  990SOL    HW1 3548   8.477   6.532   4.887 -1.0266  1.4273  0.6994
  990SOL    HW2 3549   8.530   6.645   4.800 -0.1090  1.7003  1.5932
  991SOL     OW 3550   1.208   5.510   5.130 -0.2528  0.1070 -0.4327
  991SOL    HW1 3551   1.190   5.482   5.220 -0.3067  0.5893 -0.2897
  991SOL    HW2 3552   1.160   5.448   5.075 -1.0663  0.4278 -0.1003
  992SOL     OW 3553   3.596   8.042   5.559 -0.2648  0.7067 -0.7645
  992SOL    HW1 3554   3.630   8.129   5.580  1.9316 -0.7644  2.7007
  992SOL    HW2 3555   3.673   7.985   5.557 -1.7176 -1.3991 -1.8372
  993SOL     OW 3556   9.609   7.259   1.349 -0.3001 -0.0715  0.4375
  993SOL    HW1 3557   9.516   7.256   1.326 -0.1046 -1.8233 -0.2188
  993SOL    HW2 3558   9.609   7.269   1.444 -1.2111 -1.8658  0.6665
  994SOL     OW 3559   9.127   7.332   0.073  0.1648 -0.0930 -0.1169
  994SOL    HW1 3560   9.161   7.403   0.128 -0.5342  2.2722 -2.5786
  994SOL    HW2 3561   9.043   7.364   0.042  0.1001 -1.7666 -1.7872
  995SOL     OW 3562   7.347   1.538   9.795 -0.1694 -0.2140 -0.2478
  995SOL    HW1 3563   7.374   1.629   9.796  0.4576 -0.3972  0.0609
  995SOL    HW2 3564   7.274   1.535   9.733  0.2089  0.3801 -0.7362
  996SOL     OW 3565   8.114   0.258   1.109 -0.5234  0.0200  0.1362
  996SOL    HW1 3566   8.158   0.318   1.048 -0.3624 -0.7371 -0.5160
  996SOL    HW2 3567   8.131   0.295   1.195  0.8128  0.1367 -0.1524
  997SOL     OW 3568   1.885   3.027   5.708  0.1588  0.3338 -0.0256
  997SOL    HW1 3569   1.830   3.065   5.639  0.8522 -0.3165 -0.9518
  997SOL    HW2 3570   1.973   3.023   5.670  0.3033 -1.2567  0.4023
  998SOL     OW 3571   0.303   1.557   7.851 -0.1138 -0.0085  0.2233
  998SOL    HW1 3572   0.372   1.621   7.867  0.1727  0.2297 -1.7219
  998SOL    HW2 3573   0.292   1.511   7.935  2.7504 -0.4160  0.4524
  999SOL     OW 3574   1.019   6.715   2.780 -0.4175 -0.1826 -0.2102
  999SOL    HW1 3575   1.068   6.765   2.845 -0.8463 -0.3915  0.2822
  999SOL    HW2 3576   0.956   6.777   2.744  0.6062  0.2569 -1.2943
 1000SOL     OW 3577   6.831   3.410   8.526 -0.7605 -0.2687  0.3698
 1000SOL    HW1 3578   6.922   3.424   8.502 -0.0455 -3.0765  1.1049
 1000SOL    HW2 3579   6.805   3.331   8.479 -3.0143  0.6766 -0.1577
 1001SOL     OW 3580   9.100   0.784   8.954 -0.4522 -0.1394  0.1698
 1001SOL    HW1 3581   9.066   0.712   9.006  0.1328 -0.9124 -0.4971
 1001SOL    HW2 3582   9.182   0.809   8.997 -2.1469  2.2995  2.2906
 1002SOL     OW 3583   5.043   2.596   7.963 -0.4119 -0.2064  0.5920
 1002SOL    HW1 3584   4.974   2.632   8.018 -0.1550  1.4779 -0.1086
 1002SOL    HW2 3585   4.997   2.547   7.895 -1.0266  1.4182 -0.2396
 1003SOL     OW 3586   3.703   5.756   0.990 -0.3710  0.5481 -0.3230
 1003SOL    HW1 3587   3.638   5.687   0.977 -0.6802  0.4138  1.6683
 1003SOL    HW2 3588   3.767   5.717   1.050  0.3369  1.4454 -0.4769
 1004SOL     OW 3589   9.901   6.088   9.154  0.6765 -0.3513 -0.5251
 1004SOL    HW1 3590   9.846   6.164   9.174 -2.5510 -2.8667  1.0038
 1004SOL    HW2 3591   9.958   6.080   9.231 -1.7170 -1.6164  1.2366
 1005SOL     OW 3592   3.777   7.277   0.192 -0.0530  0.2461 -0.6942
 1005SOL    HW1 3593   3.830   7.355   0.212  1.2844 -0.4733 -1.2931
 1005SOL    HW2 3594   3.711   7.275   0.261  1.0253  0.9012  0.3987
 1006SOL     OW 3595   8.807   7.104   9.793  0.1871 -0.5822 -0.5975
 1006SOL    HW1 3596   8.760   7.042   9.849 -1.7159  0.7862 -0.5941
 1006SOL    HW2 3597   8.764   7.188   9.809  0.6839  0.1598 -2.8780
 1007SOL     OW 3598   4.215   8.401   2.716 -0.0682  0.6682 -0.1494
 1007SOL    HW1 3599   4.153   8.474   2.727  0.7121  1.4986 -1.0557
 1007SOL    HW2 3600   4.165   8.334   2.669 -1.8885 -0.8951  3.5572
 1008SOL     OW 3601   9.627   1.175   0.378 -0.6661  0.1003  0.0222
 1008SOL    HW1 3602   9.659   1.098   0.423 -0.5992  0.3845  0.4686
 1008SOL    HW2 3603   9.671   1.248   0.421  0.3367  0.3140 -1.3029
 1009SOL     OW 3604   8.964   8.493   6.258 -0.1649  0.6480  0.1576
 1009SOL    HW1 3605   8.877   8.484   6.218 -0.2421 -1.3439  0.6359
 1009SOL    HW2 3606   8.993   8.581   6.235 -1.4423  0.6162 -1.7671
 1010SOL     OW 3607   8.606   7.321   7.294  0.0876  0.8214 -0.1279
 1010SOL    HW1 3608   8.683   7.351   7.342 -0.0354  1.0812 -0.0927
 1010SOL    HW2 3609   8.642   7.279   7.216  0.4022 -1.4581  1.1606
 1011SOL     OW 3610   1.535   8.710   8.801  0.0341 -0.2271  0.6332
 1011SOL    HW1 3611   1.609   8.757   8.840 -1.2045  2.2698  0.1542
 1011SOL    HW2 3612   1.464   8.774   8.800 -2.0460 -2.4000  0.6715
 1012SOL     OW 3613   6.289   2.595   8.794 -0.0907 -0.3627  0.4813
 1012SOL    HW1 3614   6.243   2.645   8.861 -0.2564 -0.5554  0.5127
 1012SOL    HW2 3615   6.220   2.547   8.748  0.1565 -1.4392  1.1818
 1013SOL     OW 3616   7.556   4.838   9.806 -0.0136  0.3947 -0.2260
 1013SOL    HW1 3617   7.540   4.800   9.893 -0.0849 -2.9168 -1.5593
 1013SOL    HW2 3618   7.611   4.914   9.824  0.9883 -0.8466  2.6406
 1014SOL     OW 3619   4.600   8.437   8.823 -0.1047  0.3262 -0.2260
 1014SOL    HW1 3620   4.670   8.400   8.877  0.5156  1.1443 -0.4475
 1014SOL    HW2 3621   4.618   8.406   8.735  0.6141  1.3998 -0.4726
 1015SOL     OW 3622   6.193   0.582   0.753 -0.3942  0.1448 -0.5921
 1015SOL    HW1 3623   6.223   0.655   0.699 -0.9792  0.5180 -0.4225
 1015SOL    HW2 3624   6.237   0.596   0.837  0.0920 -0.1304 -0.7991
 1016SOL     OW 3625   5.110   9.070   9.675 -0.5821  0.1524  0.0760
 1016SOL    HW1 3626   5.205   9.080   9.669 -0.4332 -1.1957  0.0844
 1016SOL    HW2 3627   5.076   9.152   9.638  0.5748  1.0691  0.9762
 1017SOL     OW 3628   8.203   8.138   4.371 -0.2191 -0.5552 -0.4250
 1017SOL    HW1 3629   8.127   8.168   4.421  1.5743  1.1419  1.4973
 1017SOL    HW2 3630   8.249   8.080   4.431  0.5153 -0.7626 -1.1871
 1018SOL     OW 3631   1.422   7.394   2.709  0.2675 -0.0571  0.2478
 1018SOL    HW1 3632   1.431   7.488   2.691 -1.1471 -0.2315 -1.8239
 1018SOL    HW2 3633   1.501   7.371   2.758  1.1416  2.0077 -0.0643
 1019SOL     OW 3634   9.101   7.421   8.218 -0.7566 -0.0186  0.3151
 1019SOL    HW1 3635   9.076   7.382   8.301 -0.9421  0.2287  0.3771
 1019SOL    HW2 3636   9.040   7.383   8.154 -1.6165  0.9291  0.5390
 1020SOL     OW 3637   2.266   8.716   8.869  0.1219 -0.1861  0.2197
 1020SOL    HW1 3638   2.230   8.630   8.892 -0.4002  0.1089  0.5140
 1020SOL    HW2 3639   2.361   8.704   8.877  0.0116  0.3074  4.3170
 1021SOL     OW 3640   4.556   7.691   8.163  0.0769 -0.0378  0.6092
 1021SOL    HW1 3641   4.581   7.736   8.082  1.9855  1.4796  1.9436
 1021SOL    HW2 3642   4.461   7.681   8.157 -0.2065  2.6067 -0.5842
 1022SOL     OW 3643   6.755   1.863   1.984 -0.1161  0.6772  0.6564
 1022SOL    HW1 3644   6.668   1.872   2.024 -0.6332 -0.8302 -0.0352
 1022SOL    HW2 3645   6.739   1.869   1.890  0.2717 -1.0342  0.4442
 1023SOL     OW 3646   2.546   2.233   1.317 -0.0714 -0.5108 -0.4306
 1023SOL    HW1 3647   2.634   2.252   1.351 -0.2274 -0.4949 -0.0336
 1023SOL    HW2 3648   2.562   2.171   1.246  0.3871  0.6205 -1.3395
 1024SOL     OW 3649   9.217   8.271   0.170  0.6713  0.1247 -0.7643
 1024SOL    HW1 3650   9.162   8.195   0.188  0.9534 -0.0755 -0.7351
 1024SOL    HW2 3651   9.295   8.235   0.130  1.2389  0.2970  0.1490
 1025SOL     OW 3652   9.939   3.563   8.197  0.7956  0.2930 -0.2377
 1025SOL    HW1 3653   9.937   3.468   8.183 -0.6451  0.2424  0.1609
 1025SOL    HW2 3654   9.987   3.574   8.279 -0.3336 -0.2152  0.5120
 1026SOL     OW 3655   7.684   8.243   1.535  0.4704  0.3128 -0.1069
 1026SOL    HW1 3656   7.597   8.205   1.548  0.3469  0.7922  0.5330
 1026SOL    HW2 3657   7.723   8.189   1.466 -1.2825  1.6703 -2.3034
 1027SOL     OW 3658   2.252   8.781   6.633 -0.1548 -1.0158 -0.2169
 1027SOL    HW1 3659   2.284   8.735   6.710  1.8397  1.1166  0.3517
 1027SOL    HW2 3660   2.321   8.767   6.567  0.4441  0.9343 -0.0638
 1028SOL     OW 3661   4.797   2.266   4.601 -0.2161 -0.6884  0.7258
 1028SOL    HW1 3662   4.723   2.282   4.660 -1.3359  0.1677 -0.8201
 1028SOL    HW2 3663   4.802   2.170   4.594 -0.5154 -0.7802  1.6268
 1029SOL     OW 3664   1.984   7.580   5.904  0.4785  0.9347 -0.7524
 1029SOL    HW1 3665   1.978   7.675   5.909 -0.9422  0.8362 -0.3204
 1029SOL    HW2 3666   1.948   7.549   5.986 -1.1471 -0.0240 -1.7778
 1030SOL     OW 3667   0.321   7.378   9.613  0.2340 -0.2988 -0.3210
 1030SOL    HW1 3668   0.342   7.471   9.608  0.6031 -0.4456 -1.8393
 1030SOL    HW2 3669   0.397   7.338   9.656 -0.4257  0.2199  1.4284
 1031SOL     OW 3670   3.227   5.308   1.847  0.5131  0.1282 -0.1244
 1031SOL    HW1 3671   3.275   5.391   1.854  0.0385  0.7381 -2.8203
 1031SOL    HW2 3672   3.144   5.324   1.892  0.8697  0.7402  0.3255
 1032SOL     OW 3673   2.082   1.440   6.793  0.3887  1.0159  0.1114
 1032SOL    HW1 3674   2.099   1.393   6.712  0.2916  1.0031  0.0982
 1032SOL    HW2 3675   2.002   1.490   6.775  0.6603  1.4262  0.0219
 1033SOL     OW 3676   1.341   8.393   9.731  0.2066 -0.3121 -0.2300
 1033SOL    HW1 3677   1.324   8.487   9.724  0.2826 -0.2821 -0.0308
 1033SOL    HW2 3678   1.277   8.362   9.795 -0.3251 -0.5349 -0.8670
 1034SOL     OW 3679   0.235   8.740   2.051 -0.0055  0.5129  0.1020
 1034SOL    HW1 3680   0.151   8.785   2.043  1.0540  2.7305  0.8546
 1034SOL    HW2 3681   0.278   8.755   1.967  1.0880  2.6184  0.9558
 1035SOL     OW 3682   0.258   5.477   3.469 -0.6400 -0.0169 -0.8274
 1035SOL    HW1 3683   0.338   5.447   3.425 -0.7582 -0.3955 -0.7927
 1035SOL    HW2 3684   0.248   5.417   3.543  0.8039  1.9553  1.0936
 1036SOL     OW 3685   7.718   9.735   8.536 -0.1394  0.2576  0.2498
 1036SOL    HW1 3686   7.748   9.704   8.451 -0.6189 -1.0992  0.5488
 1036SOL    HW2 3687   7.644   9.792   8.516 -0.6931 -0.5987 -0.2368
 1037SOL     OW 3688   9.509   2.224   9.380  0.7290 -0.0079 -0.2978
 1037SOL    HW1 3689   9.433   2.214   9.437  0.7350 -2.4866 -0.6066
 1037SOL    HW2 3690   9.482   2.287   9.314 -0.7797 -0.2718  0.0312
 1038SOL     OW 3691   5.158   3.015   9.167  0.3054  0.0215 -0.3156
 1038SOL    HW1 3692   5.174   3.004   9.073  0.4355 -2.6258 -0.0416
 1038SOL    HW2 3693   5.064   3.000   9.178 -0.0061  1.8568 -0.1688
 1039SOL     OW 3694   4.525   2.521   2.745  0.3247 -0.3943  0.3964
 1039SOL    HW1 3695   4.438   2.559   2.756  0.4074 -0.2064  0.3963
 1039SOL    HW2 3696   4.559   2.561   2.665  0.4489 -0.3965  0.4482
 1040SOL     OW 3697   3.286   4.710   6.271 -0.3608 -0.6364  0.3182
 1040SOL    HW1 3698   3.257   4.625   6.237  0.9379 -2.4888  3.3887
 1040SOL    HW2 3699   3.370   4.726   6.228 -0.8544 -0.6152 -0.6571
 1041SOL     OW 3700   7.956   2.017   5.733 -0.3402 -0.2303  0.0328
 1041SOL    HW1 3701   7.874   1.975   5.760 -2.1160  0.7627 -3.2573
 1041SOL    HW2 3702   7.928   2.093   5.682  2.6734  0.6942 -0.4387
 1042SOL     OW 3703   0.237   8.470   2.123 -0.1079 -0.1141 -0.0059
 1042SOL    HW1 3704   0.173   8.421   2.072  0.7465 -0.6880 -0.5537
 1042SOL    HW2 3705   0.236   8.558   2.085 -1.2683  0.1858  0.6431
 1043SOL     OW 3706   7.138   2.042   4.093 -0.9248  0.1524  0.4786
 1043SOL    HW1 3707   7.183   2.080   4.169  1.5763  0.1350 -0.9088
 1043SOL    HW2 3708   7.096   2.117   4.050  1.7090  1.0679 -0.7240
 1044SOL     OW 3709   0.955   5.899   2.332 -0.0903 -0.5046 -0.2408
 1044SOL    HW1 3710   0.862   5.901   2.357 -0.0537  0.0538 -0.1297
 1044SOL    HW2 3711   0.975   5.990   2.309  0.3037 -0.7135 -0.7347
 1045SOL     OW 3712   2.892   3.692   0.897 -0.9654  0.7049  0.1597
 1045SOL    HW1 3713   2.926   3.772   0.937  1.2794  0.8023 -1.7173
 1045SOL    HW2 3714   2.801   3.686   0.927 -0.8863  3.4022  1.1565
 1046SOL     OW 3715   2.730   4.805   4.830 -0.9690  0.1907 -0.0378
 1046SOL    HW1 3716   2.638   4.778   4.833 -0.4856 -1.5168  0.9575
 1046SOL    HW2 3717   2.776   4.730   4.791  0.2390  0.1428  1.3544
 1047SOL     OW 3718   4.287   3.637   0.879 -0.6804  0.6005 -0.7420
 1047SOL    HW1 3719   4.366   3.681   0.913  1.0385 -0.1148 -3.4615
 1047SOL    HW2 3720   4.218   3.659   0.941  1.3269  2.5672  0.9405
 1048SOL     OW 3721   3.294   9.916   6.608  0.9915 -1.0849  0.2633
 1048SOL    HW1 3722   3.222   9.868   6.649  0.3096 -0.9370 -0.7447
 1048SOL    HW2 3723   3.367   9.854   6.609  0.6531 -1.4870  0.6544
 1049SOL     OW 3724   3.281   8.580   4.595 -0.0351  0.2413  0.2914
 1049SOL    HW1 3725   3.297   8.600   4.687 -0.7285  0.8660  0.2933
 1049SOL    HW2 3726   3.195   8.618   4.577  0.0205 -0.0097 -0.5703
 1050SOL     OW 3727   2.740   8.265   2.722 -0.2180 -0.1600 -0.3816
 1050SOL    HW1 3728   2.832   8.251   2.698 -0.3761 -0.6199 -0.7376
 1050SOL    HW2 3729   2.706   8.324   2.655 -0.4062 -0.6747 -0.7423
 1051SOL     OW 3730   7.252   9.068   9.051  0.3704  0.5232 -0.0131
 1051SOL    HW1 3731   7.185   9.018   9.098  0.2430  1.2064  0.5452
 1051SOL    HW2 3732   7.286   9.007   8.986 -1.5754  0.5070 -1.0679
 1052SOL     OW 3733   2.118   6.105   5.250 -0.3554  0.0087  0.4023
 1052SOL    HW1 3734   2.174   6.162   5.197 -0.5681  0.9769  1.1659
 1052SOL    HW2 3735   2.073   6.049   5.187  1.1559 -0.5238 -0.2585
 1053SOL     OW 3736   1.934   8.491   4.975  0.2901  0.0439  0.5881
 1053SOL    HW1 3737   1.876   8.470   4.902  2.1987 -0.3986 -0.8873
 1053SOL    HW2 3738   1.877   8.533   5.039 -1.6740 -0.5047 -0.6890
 1054SOL     OW 3739   6.802   0.399   3.880  0.2201 -0.1758  0.3611
 1054SOL    HW1 3740   6.877   0.438   3.924 -0.1530  0.4752  0.4268
 1054SOL    HW2 3741   6.728   0.454   3.904 -0.1109 -0.2083 -0.5254
 1055SOL     OW 3742   2.720   4.141   6.675 -0.2790 -0.4871 -0.6888
 1055SOL    HW1 3743   2.804   4.103   6.651 -0.2261 -0.4632 -0.5417
 1055SOL    HW2 3744   2.670   4.144   6.593 -0.9959 -2.6849 -0.3952
 1056SOL     OW 3745   0.020   0.453   5.245 -0.4843 -0.1769 -0.4156
 1056SOL    HW1 3746  -0.040   0.528   5.250  0.5636  0.6759 -0.3707
 1056SOL    HW2 3747   0.055   0.445   5.334  1.3344  0.9262 -0.9733
 1057SOL     OW 3748   9.360   6.647   4.292  0.3476 -0.2625 -0.0448
 1057SOL    HW1 3749   9.317   6.633   4.376 -1.5014 -0.3274 -0.9615
 1057SOL    HW2 3750   9.367   6.559   4.254 -0.7621 -0.0307 -0.8384
 1058SOL     OW 3751   3.647   7.574   0.505  0.1885 -0.1987 -0.2352
 1058SOL    HW1 3752   3.581   7.538   0.563  0.5094 -0.7542 -0.2073
 1058SOL    HW2 3753   3.615   7.555   0.417  1.2384 -2.2571 -0.2293
 1059SOL     OW 3754   2.777   1.750   3.686  0.4042  0.3058  0.5663
 1059SOL    HW1 3755   2.694   1.721   3.726  0.0558  1.7404  0.9491
 1059SOL    HW2 3756   2.755   1.769   3.595  0.5956 -0.4627  0.3567
 1060SOL     OW 3757   5.510   6.268   4.301  0.1219 -0.2468  0.1178
 1060SOL    HW1 3758   5.424   6.228   4.295 -0.2341  0.4096  0.7870
 1060SOL    HW2 3759   5.568   6.196   4.328 -0.3756 -0.4696  0.5977
 1061SOL     OW 3760   6.721   4.217   1.626  0.4966 -0.6815  0.5591
 1061SOL    HW1 3761   6.655   4.207   1.695  1.0883  0.6385  1.3622
 1061SOL    HW2 3762   6.804   4.204   1.671  0.8902  0.2645  0.1269
 1062SOL     OW 3763   5.981   4.836   6.355  0.2442 -0.1408 -0.2545
 1062SOL    HW1 3764   6.048   4.834   6.287  2.9294  0.2705  2.1752
 1062SOL    HW2 3765   5.974   4.929   6.379 -2.5893  0.1065 -1.6013
 1063SOL     OW 3766   5.960   1.628   0.442  0.0271  0.1979 -0.1344
 1063SOL    HW1 3767   6.003   1.713   0.439  0.7339 -0.0213  2.0868
 1063SOL    HW2 3768   5.877   1.646   0.487 -0.1430 -0.1541 -0.3117
 1064SOL     OW 3769   7.645   5.946   4.746  0.3382  0.1535 -0.2500
 1064SOL    HW1 3770   7.586   5.954   4.820  2.2923  0.6558  1.3260
 1064SOL    HW2 3771   7.590   5.962   4.669 -1.8004 -0.6847  1.0275
 1065SOL     OW 3772   5.493   9.414   0.769 -0.1673  0.0037  0.3618
 1065SOL    HW1 3773   5.519   9.372   0.687  1.4365 -0.4676  1.0865
 1065SOL    HW2 3774   5.546   9.494   0.773 -1.4367  0.8893  0.1707
 1066SOL     OW 3775   7.975   3.470   4.385  0.2970  0.0120 -0.3762
 1066SOL    HW1 3776   8.005   3.397   4.332  1.3332  1.1530 -1.4272
 1066SOL    HW2 3777   7.885   3.486   4.355 -0.5862 -1.8951  1.0944
 1067SOL     OW 3778   7.904   6.455   4.433  1.2005 -0.2169 -0.2084
 1067SOL    HW1 3779   7.919   6.427   4.342  3.3454  0.5270 -0.1320
 1067SOL    HW2 3780   7.935   6.382   4.486 -0.5562 -0.8769 -0.0289
 1068SOL     OW 3781   0.697   5.877   9.707  0.1168  0.2791 -0.0660
 1068SOL    HW1 3782   0.727   5.916   9.789  0.8191 -0.1920 -0.0859
 1068SOL    HW2 3783   0.778   5.863   9.657 -0.1573 -0.8248 -0.2152
 1069SOL     OW 3784   8.717   1.946   9.811  0.0083  0.2446 -0.3586
 1069SOL    HW1 3785   8.777   1.888   9.857  0.2540  0.8358  0.0696
 1069SOL    HW2 3786   8.656   1.976   9.878 -0.1678  0.4252 -0.5946
 1070SOL     OW 3787   2.935   4.475   1.365  0.1184  0.0490 -0.5800
 1070SOL    HW1 3788   2.922   4.490   1.271  0.2382 -1.4772 -0.8726
 1070SOL    HW2 3789   2.858   4.427   1.393 -0.0084  0.6648  0.1687
 1071SOL     OW 3790   2.416   7.447   5.988 -0.2687  0.0316 -0.0667
 1071SOL    HW1 3791   2.367   7.497   5.922  0.4168 -0.2114 -0.7783
 1071SOL    HW2 3792   2.424   7.360   5.951  1.1948  0.2144 -0.2431
 1072SOL     OW 3793   5.858   0.434   7.767  0.0422  0.3303 -0.0300
 1072SOL    HW1 3794   5.841   0.352   7.814 -0.4789  0.8545  0.7148
 1072SOL    HW2 3795   5.776   0.482   7.773  0.2043  0.7197 -0.8652
 1073SOL     OW 3796   8.113   0.454   5.044 -0.1814 -0.4294  0.0650
 1073SOL    HW1 3797   8.020   0.434   5.039 -0.5051  0.8109  0.7538
 1073SOL    HW2 3798   8.152   0.378   5.088 -0.9010 -0.8260  0.0234
 1074SOL     OW 3799   1.698   8.258   6.048  0.2181  0.5421 -0.4952
 1074SOL    HW1 3800   1.664   8.210   6.124 -0.3466  1.4722 -0.1382
 1074SOL    HW2 3801   1.621   8.274   5.993  0.4177  0.9202 -0.6685
 1075SOL     OW 3802   3.471   2.248   9.421 -0.2346  0.2438 -0.2722
 1075SOL    HW1 3803   3.550   2.194   9.428  0.0327  0.6399 -0.1590
 1075SOL    HW2 3804   3.419   2.206   9.352 -0.1478 -0.2928 -0.0143
 1076SOL     OW 3805   5.446   3.358   9.948 -0.0927  0.3193 -0.1391
 1076SOL    HW1 3806   5.397   3.440   9.956 -0.4227  0.0736  0.4172
 1076SOL    HW2 3807   5.518   3.378   9.888 -0.5899  0.8202 -0.5698
 1077SOL     OW 3808   7.439   9.057   6.800 -0.0119 -0.8112 -0.1453
 1077SOL    HW1 3809   7.422   9.120   6.731  1.6278 -0.3060 -0.1380
 1077SOL    HW2 3810   7.353   9.019   6.820 -0.6659 -0.2788 -1.7629
 1078SOL     OW 3811   0.198   7.973   2.375  0.2323  0.2326 -0.0350
 1078SOL    HW1 3812   0.233   7.886   2.393  0.5193  0.4840  0.6391
 1078SOL    HW2 3813   0.126   7.957   2.315 -0.1765 -0.5520  0.6360
 1079SOL     OW 3814   5.820   0.515   9.520  0.2588  0.0344  0.0578
 1079SOL    HW1 3815   5.859   0.504   9.606 -0.0843  0.3283  0.2514
 1079SOL    HW2 3816   5.843   0.435   9.473  1.5634  0.4333 -0.0209
 1080SOL     OW 3817   7.248   4.516   5.576 -0.2921  0.6066 -0.2478
 1080SOL    HW1 3818   7.193   4.533   5.499 -2.0069 -0.8757  0.5617
 1080SOL    HW2 3819   7.258   4.601   5.618 -0.1090  1.2729 -1.6116
 1081SOL     OW 3820   7.262   7.489   1.222  0.3294 -0.1746  0.1580
 1081SOL    HW1 3821   7.223   7.427   1.161 -0.5079 -0.7823  1.2781
 1081SOL    HW2 3822   7.326   7.537   1.170 -0.8789 -0.1643 -1.3730
 1082SOL     OW 3823   4.217   4.646   1.466  0.5959  0.6353 -0.7119
 1082SOL    HW1 3824   4.237   4.580   1.400  0.5310 -0.6542  0.5018
 1082SOL    HW2 3825   4.303   4.680   1.492  0.6061  1.3591 -1.6264
 1083SOL     OW 3826   1.994   8.215   2.758  0.4216 -0.0750  0.0232
 1083SOL    HW1 3827   2.075   8.164   2.766 -1.0547 -2.9874 -1.6840
 1083SOL    HW2 3828   2.010   8.273   2.683  1.0474 -0.3419 -0.0612
 1084SOL     OW 3829   6.213   7.493   8.453  0.3941  0.2182  0.8201
 1084SOL    HW1 3830   6.133   7.448   8.429  0.4515 -0.5373  1.9810
 1084SOL    HW2 3831   6.249   7.524   8.370 -1.6272  1.5313  0.3565
 1085SOL     OW 3832   0.556   2.012   8.955 -0.0295  0.2193  0.4770
 1085SOL    HW1 3833   0.558   2.011   9.051 -0.9429 -0.7550  0.5078
 1085SOL    HW2 3834   0.501   1.937   8.931 -0.0623  0.6191 -0.7999
 1086SOL     OW 3835   1.521   0.282   5.335 -0.0785 -0.6206  0.7318
 1086SOL    HW1 3836   1.586   0.261   5.267 -3.2967  0.3633 -3.0494
 1086SOL    HW2 3837   1.530   0.376   5.348  0.0325 -0.6814  1.0881
 1087SOL     OW 3838   2.468   8.947   1.726 -0.4300  0.1936  0.6045
 1087SOL    HW1 3839   2.483   8.853   1.722 -0.4286  0.2153 -1.7796
 1087SOL    HW2 3840   2.545   8.985   1.685 -0.9795  1.1509  0.4287
 1088SOL     OW 3841   7.115   8.907   9.215  0.3692 -0.0678 -0.0299
 1088SOL    HW1 3842   7.078   8.819   9.214  0.3235 -0.0908  1.3649
 1088SOL    HW2 3843   7.203   8.896   9.251 -0.0059  0.5558  1.1546
 1089SOL     OW 3844   3.199   8.299   9.858 -0.4021 -0.0740 -0.3677
 1089SOL    HW1 3845   3.173   8.390   9.843  0.5739  0.2390 -0.1972
 1089SOL    HW2 3846   3.210   8.293   9.952  0.1620 -0.1940 -0.4402
 1090SOL     OW 3847   7.243   2.980   6.173  0.0123  0.1649  0.0008
 1090SOL    HW1 3848   7.239   3.033   6.253  0.0897 -0.5269  0.4691
 1090SOL    HW2 3849   7.336   2.975   6.152 -0.0266  0.5346 -0.2615
 1091SOL     OW 3850   9.080   3.672   4.898  0.3345 -0.8193  0.2369
 1091SOL    HW1 3851   9.037   3.643   4.978  0.0999  1.6550  1.0846
 1091SOL    HW2 3852   9.163   3.624   4.897 -0.2376 -1.8850  1.2274
 1092SOL     OW 3853   9.950   2.660   8.682 -0.6709 -0.3689  0.5038
 1092SOL    HW1 3854  10.004   2.713   8.624 -1.3657  0.9449  1.0184
 1092SOL    HW2 3855   9.927   2.583   8.629 -1.3190  0.8050 -0.9911
 1093SOL     OW 3856   4.117   9.388   9.301 -0.1623  0.8613  0.6205
 1093SOL    HW1 3857   4.160   9.302   9.307 -1.5839  0.0282 -0.4255
 1093SOL    HW2 3858   4.101   9.413   9.393  0.1768 -0.0492  0.9390
 1094SOL     OW 3859   2.216   8.575   0.084  0.4470 -0.1978  0.2205
 1094SOL    HW1 3860   2.192   8.576   0.176 -0.2500 -0.0901  0.0406
 1094SOL    HW2 3861   2.178   8.494   0.050 -0.7079  0.5425 -0.3294
 1095SOL     OW 3862   8.361   8.625   6.262 -0.1832  0.4741  0.3724
 1095SOL    HW1 3863   8.346   8.531   6.254  0.7543  0.3297  0.2948
 1095SOL    HW2 3864   8.366   8.656   6.171 -5.3340  1.4527  0.1130
 1096SOL     OW 3865   7.385   7.471   5.526 -0.0508  0.1863 -0.4223
 1096SOL    HW1 3866   7.415   7.381   5.513 -0.7954 -0.2374  0.6796
 1096SOL    HW2 3867   7.462   7.518   5.557  0.2488 -0.1485 -0.6441
 1097SOL     OW 3868   5.114   1.066   6.040  0.5706  0.2667 -0.3680
 1097SOL    HW1 3869   5.168   1.022   6.106  1.4634  0.7440 -0.7615
 1097SOL    HW2 3870   5.025   1.040   6.061  1.0210 -1.3121 -0.2664
 1098SOL     OW 3871   2.741   6.690   1.094  0.2109 -0.1590  0.1772
 1098SOL    HW1 3872   2.737   6.769   1.041  1.5364 -0.6937 -0.7620
 1098SOL    HW2 3873   2.833   6.665   1.094 -0.5269 -4.0427 -3.1666
 1099SOL     OW 3874   6.139   7.634   2.909  0.3252  0.8448  0.5636
 1099SOL    HW1 3875   6.103   7.688   2.979 -1.0571 -0.7862  1.1972
 1099SOL    HW2 3876   6.063   7.611   2.855  0.8891 -0.2589  0.2052
 1100SOL     OW 3877   9.903   4.851   4.620  0.0920  0.3480  0.2470
 1100SOL    HW1 3878   9.976   4.885   4.672  0.7696 -0.2395 -0.3016
 1100SOL    HW2 3879   9.930   4.763   4.596 -0.0900  0.6834 -1.3039
 1101SOL     OW 3880   5.943   8.726   8.413  0.1053 -0.1968  0.3502
 1101SOL    HW1 3881   5.972   8.790   8.348 -1.5679 -0.0955 -0.3693
 1101SOL    HW2 3882   5.955   8.641   8.370  2.1697 -0.4023  1.2414
 1102SOL     OW 3883   9.276   8.799   4.733 -0.1624  0.3282 -0.2555
 1102SOL    HW1 3884   9.293   8.893   4.729  0.4877  0.2031 -0.6240
 1102SOL    HW2 3885   9.271   8.780   4.827  0.0827  0.6653 -0.1686
 1103SOL     OW 3886   8.648   4.471   2.669  0.1934 -0.5544  0.5303
 1103SOL    HW1 3887   8.741   4.484   2.685  0.5441 -1.1552 -0.9382
 1103SOL    HW2 3888   8.643   4.412   2.595 -1.3426  1.1915 -0.8677
 1104SOL     OW 3889   0.638   6.219   4.106 -0.7430  0.7419  0.2882
 1104SOL    HW1 3890   0.637   6.261   4.192  0.4812 -0.5254  0.9771
 1104SOL    HW2 3891   0.632   6.125   4.126 -3.3895  0.5240 -1.1735
 1105SOL     OW 3892   4.685   8.432   7.850 -0.2462  0.3550  0.4173
 1105SOL    HW1 3893   4.688   8.378   7.929 -0.8315 -1.1123 -0.5301
 1105SOL    HW2 3894   4.777   8.448   7.829 -0.0594 -0.4092  0.6264
 1106SOL     OW 3895   8.080   2.492   3.589 -0.2655 -0.8294 -0.4586
 1106SOL    HW1 3896   8.065   2.586   3.604 -2.1655 -1.3078  0.8771
 1106SOL    HW2 3897   8.154   2.470   3.646 -0.4948 -0.3783  0.0181
 1107SOL     OW 3898   7.599   8.660   4.947 -0.0028 -0.3052 -0.1347
 1107SOL    HW1 3899   7.512   8.622   4.936  0.5756 -1.3369 -1.5222
 1107SOL    HW2 3900   7.635   8.665   4.858  0.9783  1.0560  0.3036
 1108SOL     OW 3901   5.127   4.010   0.589  0.3143 -0.1181 -0.5050
 1108SOL    HW1 3902   5.157   3.919   0.596  1.0955  0.0058 -1.8207
 1108SOL    HW2 3903   5.127   4.027   0.495  0.7825  1.4416 -0.2501
 1109SOL     OW 3904   0.947   7.270   2.816  0.5890 -0.3036  0.4815
 1109SOL    HW1 3905   0.931   7.320   2.897  0.3337  0.1802  0.1390
 1109SOL    HW2 3906   1.037   7.239   2.825 -0.0190 -1.8452  1.7939
 1110SOL     OW 3907   9.364   2.336   7.472  0.0633 -0.5570 -0.1337
 1110SOL    HW1 3908   9.373   2.266   7.408 -2.5885  0.6024 -1.9166
 1110SOL    HW2 3909   9.283   2.381   7.449  0.5994  1.8860  2.1549
 1111SOL     OW 3910   4.124   3.434   8.102  0.2417  0.8786  0.2799
 1111SOL    HW1 3911   4.175   3.461   8.026  0.2087  0.0476 -0.0561
 1111SOL    HW2 3912   4.140   3.501   8.168  0.6070  1.3861 -0.3190
 1112SOL     OW 3913   8.388   6.244   9.339 -0.3926  0.1735 -0.3794
 1112SOL    HW1 3914   8.470   6.287   9.365 -0.9002  0.4884  0.7614
 1112SOL    HW2 3915   8.416   6.164   9.295  0.5415  0.6589 -0.7027
 1113SOL     OW 3916   1.551   9.121   1.514 -0.0288 -0.2560 -0.1899
 1113SOL    HW1 3917   1.582   9.180   1.445  0.4799  0.0282  0.2760
 1113SOL    HW2 3918   1.463   9.154   1.535  0.8772  1.4176  1.2268
 1114SOL     OW 3919   3.433   0.448   6.984  0.1211 -0.1176 -0.0174
 1114SOL    HW1 3920   3.408   0.525   7.035 -1.4363 -0.3127 -0.4487
 1114SOL    HW2 3921   3.406   0.468   6.895 -0.0225 -1.0477 -0.1885
 1115SOL     OW 3922   2.700   1.659   9.512 -0.0175  0.1728 -0.6048
 1115SOL    HW1 3923   2.768   1.677   9.447 -0.5922 -0.1443 -1.3195
 1115SOL    HW2 3924   2.632   1.613   9.462  0.0784 -1.2271  0.4882
 1116SOL     OW 3925   7.821   6.849   9.554 -0.5098  0.0516 -0.3276
 1116SOL    HW1 3926   7.875   6.918   9.516 -0.4259 -0.0875 -0.4584
 1116SOL    HW2 3927   7.732   6.872   9.527 -0.7790  1.3442  1.4375
 1117SOL     OW 3928   8.294   6.689   8.013 -0.3604 -0.3979 -0.3014
 1117SOL    HW1 3929   8.329   6.767   7.969  0.0174 -0.9644 -1.0409
 1117SOL    HW2 3930   8.214   6.669   7.965 -2.3140  1.4321  1.9606
 1118SOL     OW 3931   6.846   7.610   3.960 -0.0200  0.0363 -0.0284
 1118SOL    HW1 3932   6.843   7.591   3.866 -0.5545  1.2760 -0.2798
 1118SOL    HW2 3933   6.935   7.642   3.975  0.1763 -0.4947 -0.0346
 1119SOL     OW 3934   5.879   7.398   3.137 -0.1558  0.0969 -0.4205
 1119SOL    HW1 3935   5.819   7.432   3.070 -1.9827 -0.5342  0.8287
 1119SOL    HW2 3936   5.870   7.303   3.130  1.6932 -0.0635 -1.0355
 1120SOL     OW 3937   7.851   1.747   3.412 -0.2489 -0.2937 -0.0917
 1120SOL    HW1 3938   7.763   1.782   3.397 -0.8036 -2.0243 -1.2111
 1120SOL    HW2 3939   7.886   1.731   3.324  0.0121 -2.2961  0.3193
 1121SOL     OW 3940   4.343   6.866   3.072  0.2352 -0.1911 -0.3451
 1121SOL    HW1 3941   4.306   6.897   2.990 -0.2035  0.5560  0.1227
 1121SOL    HW2 3942   4.421   6.921   3.086 -1.0296  1.3896  0.9254
 1122SOL     OW 3943   4.201   9.449   6.933  0.0423  0.4210 -0.2815
 1122SOL    HW1 3944   4.231   9.517   6.873 -0.7107  0.6636 -0.3857
 1122SOL    HW2 3945   4.197   9.492   7.019  1.3947  0.0027  0.0276
 1123SOL     OW 3946   8.773   0.406   4.714  0.2520  0.3670  0.0050
 1123SOL    HW1 3947   8.814   0.386   4.798  0.2463  2.0034  0.4263
 1123SOL    HW2 3948   8.688   0.444   4.737 -0.2363 -0.2026 -0.7824
 1124SOL     OW 3949   3.969   6.397   5.240 -0.2646  0.1563 -0.1497
 1124SOL    HW1 3950   3.999   6.359   5.323 -0.2779 -1.5399 -0.8703
 1124SOL    HW2 3951   4.029   6.362   5.174 -0.4591  1.2015 -0.9159
 1125SOL     OW 3952   2.048   9.217   0.086 -0.7104  0.3384  0.3598
 1125SOL    HW1 3953   2.018   9.251   0.170 -0.4044 -0.3218  0.7503
 1125SOL    HW2 3954   1.970   9.215   0.031 -1.2859 -0.8180  1.1713
 1126SOL     OW 3955   6.088   5.452   3.757  0.1172 -0.2299 -0.6308
 1126SOL    HW1 3956   6.120   5.542   3.748 -0.6834  0.0970 -0.3553
 1126SOL    HW2 3957   6.165   5.397   3.747  0.9329  0.5568  0.9807
 1127SOL     OW 3958   1.046   2.800   5.284 -0.1863 -0.2443  0.0864
 1127SOL    HW1 3959   1.122   2.798   5.225  0.3090  0.9677  0.6627
 1127SOL    HW2 3960   1.075   2.752   5.361  0.4406  1.2312  0.7982
 1128SOL     OW 3961   2.122   8.472   3.156  0.6562  0.5198  0.3017
 1128SOL    HW1 3962   2.055   8.418   3.199  1.0607 -2.0998 -2.1361
 1128SOL    HW2 3963   2.201   8.459   3.209  0.5203 -0.5593  0.2487
 1129SOL     OW 3964   1.068   4.302   8.914  0.3145  0.3122 -0.4564
 1129SOL    HW1 3965   1.020   4.356   8.850  0.3145  0.1827 -0.5655
 1129SOL    HW2 3966   1.013   4.304   8.992  0.0044 -0.0434 -0.6623
 1130SOL     OW 3967   2.288   8.003   7.729  0.0472 -0.0208 -0.0039
 1130SOL    HW1 3968   2.316   8.072   7.789  0.8937 -1.8374  1.8129
 1130SOL    HW2 3969   2.204   7.973   7.764  1.2766 -2.1509  1.3310
 1131SOL     OW 3970   4.305   3.169   1.271  0.2267  0.2171 -0.1516
 1131SOL    HW1 3971   4.391   3.205   1.292 -0.2751  0.5572  1.5013
 1131SOL    HW2 3972   4.246   3.244   1.273 -0.1821 -0.0807 -0.8154
 1132SOL     OW 3973   7.319   4.547   5.946  0.4708  0.1908 -0.1544
 1132SOL    HW1 3974   7.346   4.617   6.006  1.2106  2.1110 -2.5635
 1132SOL    HW2 3975   7.225   4.537   5.962  0.6818  0.4990  1.4357
 1133SOL     OW 3976   2.681   3.926   8.712  0.6195  0.4264  0.2452
 1133SOL    HW1 3977   2.647   3.837   8.725 -0.6740  0.4751 -2.1782
 1133SOL    HW2 3978   2.776   3.914   8.701  0.5850 -0.5203  0.8358
 1134SOL     OW 3979   3.840   4.701   9.941 -0.1612  0.0455  0.1984
 1134SOL    HW1 3980   3.771   4.718  10.005  0.8913  0.4276  1.2640
 1134SOL    HW2 3981   3.820   4.761   9.869 -2.5627 -1.8344 -0.8663
 1135SOL     OW 3982   9.063   0.810   9.751 -0.3634  0.2628 -0.0770
 1135SOL    HW1 3983   9.134   0.861   9.713  1.0358 -0.6215  1.2156
 1135SOL    HW2 3984   9.053   0.735   9.692  1.5529 -0.9201  1.0007
 1136SOL     OW 3985   5.644   9.108   3.384  0.2052 -0.2506  0.5929
 1136SOL    HW1 3986   5.599   9.032   3.348 -2.4499 -0.6678  4.1791
 1136SOL    HW2 3987   5.576   9.175   3.391  1.4357  0.9626  1.4404
 1137SOL     OW 3988   3.746   6.122   6.902 -0.2533 -0.2310 -0.2364
 1137SOL    HW1 3989   3.657   6.119   6.939 -0.5260 -0.1071 -0.8781
 1137SOL    HW2 3990   3.756   6.212   6.872  0.3733 -0.0415  0.5161
 1138SOL     OW 3991   1.266   8.358   7.667 -0.3504  0.0815  1.0313
 1138SOL    HW1 3992   1.304   8.351   7.579  0.6594 -2.0317  1.5485
 1138SOL    HW2 3993   1.307   8.436   7.704  0.9659 -0.2690  0.3884
 1139SOL     OW 3994   1.686   9.178   3.139  0.3550  0.3591  0.1343
 1139SOL    HW1 3995   1.730   9.212   3.217 -1.4215  4.8385 -0.5375
 1139SOL    HW2 3996   1.596   9.165   3.167  0.2747 -0.6572 -0.5563
 1140SOL     OW 3997   2.845   7.059   2.908 -0.6652 -0.0053 -0.1126
 1140SOL    HW1 3998   2.770   7.094   2.861 -0.0957  1.0410 -0.2623
 1140SOL    HW2 3999   2.829   7.082   3.000  0.0941  1.3968 -0.3110
 1141SOL     OW 4000   2.672   4.655   3.510 -0.2843  0.1748  0.3250
 1141SOL    HW1 4001   2.658   4.669   3.604 -0.1836  1.4354  0.1691
 1141SOL    HW2 4002   2.734   4.583   3.505  0.9075  1.0999  1.2852
 1142SOL     OW 4003   0.380   9.019   5.046  0.0198  0.1257 -0.0502
 1142SOL    HW1 4004   0.405   9.107   5.073  0.1267  0.3078 -0.7246
 1142SOL    HW2 4005   0.285   9.024   5.033 -0.3505 -0.4628  2.1224
 1143SOL     OW 4006   3.930   2.171   9.930  0.0984 -0.4159  0.0893
 1143SOL    HW1 4007   3.847   2.207   9.901  0.1343 -0.9667 -0.7455
 1143SOL    HW2 4008   3.996   2.221   9.881  0.1690 -1.1759 -0.6307
 1144SOL     OW 4009   2.996   0.117   1.958 -0.4687 -0.0143  0.1320
 1144SOL    HW1 4010   3.031   0.186   2.015  0.9234 -0.4471 -0.1649
 1144SOL    HW2 4011   2.997   0.156   1.870  3.3502 -1.3297 -0.6039
 1145SOL     OW 4012   9.683   0.271   3.434 -0.0330 -0.2574 -0.3994
 1145SOL    HW1 4013   9.691   0.186   3.477 -2.9070 -1.0618 -1.2838
 1145SOL    HW2 4014   9.643   0.328   3.500  0.1227 -0.1013 -0.4372
 1146SOL     OW 4015   4.966   1.352   1.754  0.0859  0.4327  0.0577
 1146SOL    HW1 4016   4.901   1.406   1.801 -1.1055 -2.4346  1.9723
 1146SOL    HW2 4017   4.913   1.296   1.697  1.3922  2.1066 -3.0436
 1147SOL     OW 4018   5.608   3.601   2.105 -0.0952  0.0448 -0.1053
 1147SOL    HW1 4019   5.554   3.680   2.110 -0.0973 -0.0090  0.9151
 1147SOL    HW2 4020   5.698   3.633   2.106 -0.0986  0.0513  0.0264
 1148SOL     OW 4021   0.093   9.725   5.821 -0.3489 -0.0196  0.3567
 1148SOL    HW1 4022   0.008   9.681   5.816 -1.0362  1.3965 -1.2587
 1148SOL    HW2 4023   0.123   9.707   5.910 -1.7424 -1.5970  0.5669
 1149SOL     OW 4024   6.749   4.597   1.619  0.2010 -0.1763 -0.6582
 1149SOL    HW1 4025   6.823   4.549   1.657  0.5792  1.6857  1.1327
 1149SOL    HW2 4026   6.697   4.623   1.695 -1.5302 -0.1984 -1.7877
 1150SOL     OW 4027   2.654   2.961   5.313 -0.2821  0.1287  0.0171
 1150SOL    HW1 4028   2.717   2.890   5.306  1.7288  1.7937  0.2601
 1150SOL    HW2 4029   2.626   2.977   5.223 -0.9892 -1.1181 -0.0090
 1151SOL     OW 4030   4.587   8.685   7.700  0.1333 -0.5839  0.1378
 1151SOL    HW1 4031   4.565   8.685   7.607  0.0153  0.6581  0.1496
 1151SOL    HW2 4032   4.639   8.606   7.713 -0.0612 -0.8988 -0.9256
 1152SOL     OW 4033   9.512   5.105   8.566  1.1480  0.1214  0.1968
 1152SOL    HW1 4034   9.447   5.034   8.571 -0.2043  1.0448 -2.4890
 1152SOL    HW2 4035   9.574   5.075   8.500  1.3493  0.8232  0.0624
 1153SOL     OW 4036   7.212   5.884   7.965  0.0125 -0.3388 -0.1665
 1153SOL    HW1 4037   7.241   5.798   7.932 -0.1125 -0.3878 -0.1477
 1153SOL    HW2 4038   7.119   5.873   7.982  0.3232 -0.7486  1.5430
 1154SOL     OW 4039   3.818   4.430   1.208 -0.3117 -0.5917 -0.1047
 1154SOL    HW1 4040   3.835   4.382   1.289 -0.1534 -1.0619 -0.4096
 1154SOL    HW2 4041   3.853   4.373   1.139  0.1909  0.1239 -0.4502
 1155SOL     OW 4042   1.866   4.783   0.424 -0.5015  0.2205 -0.0863
 1155SOL    HW1 4043   1.775   4.788   0.394 -1.6800  2.8454  3.2568
 1155SOL    HW2 4044   1.862   4.726   0.501  0.6834  0.3794  0.1044
 1156SOL     OW 4045   0.671   9.636   1.560 -0.1535 -0.3684  0.7169
 1156SOL    HW1 4046   0.682   9.553   1.606  0.3174 -0.3749  0.5947
 1156SOL    HW2 4047   0.755   9.651   1.516 -1.0209 -1.0854 -1.3168
 1157SOL     OW 4048  -0.006   0.857   9.077  0.0839 -0.1577  0.4423
 1157SOL    HW1 4049   0.054   0.904   9.019  0.8754 -1.2565  0.3231
 1157SOL    HW2 4050  -0.032   0.780   9.027 -0.7967 -0.1173  0.8136
 1158SOL     OW 4051   0.659   7.272   1.237 -0.2610 -0.2558 -0.1614
 1158SOL    HW1 4052   0.738   7.218   1.241  0.0940  0.2000 -0.7824
 1158SOL    HW2 4053   0.685   7.355   1.276 -1.0244 -0.7653  1.4959
 1159SOL     OW 4054   9.176   4.586   0.109 -0.3148 -0.0866  0.5612
 1159SOL    HW1 4055   9.155   4.495   0.088  1.8774 -0.4678 -0.2559
 1159SOL    HW2 4056   9.197   4.626   0.024  0.7774  0.6091  1.1359
 1160SOL     OW 4057   9.695   9.961   1.124  0.3642  0.3009  0.2145
 1160SOL    HW1 4058   9.692   9.874   1.163  1.6114 -0.0003 -0.3161
 1160SOL    HW2 4059   9.714   9.945   1.032 -3.8402  0.8970 -0.9932
 1161SOL     OW 4060   8.232   6.168   5.179  0.1165 -0.6801 -0.4057
 1161SOL    HW1 4061   8.269   6.105   5.117  0.9526 -0.3225 -0.2859
 1161SOL    HW2 4062   8.162   6.120   5.223  0.8708 -1.6053 -0.1638
 1162SOL     OW 4063   7.983   7.027   9.428 -0.1202 -0.4867  0.3101
 1162SOL    HW1 4064   7.957   7.112   9.464  0.0579  0.7856 -2.3416
 1162SOL    HW2 4065   8.079   7.029   9.429 -0.0940 -1.2746  1.4898
 1163SOL     OW 4066   0.490   4.935   7.885 -0.4466  0.0306  0.1176
 1163SOL    HW1 4067   0.425   5.005   7.887  0.7158  1.2301 -1.5300
 1163SOL    HW2 4068   0.446   4.863   7.840 -1.3609 -0.0164  1.0477
 1164SOL     OW 4069   2.611   9.225   5.458  0.5040 -0.5571  0.6266
 1164SOL    HW1 4070   2.671   9.299   5.466 -0.5621  0.3836  0.1883
 1164SOL    HW2 4071   2.638   9.180   5.378  0.5768 -0.0843  0.3815
 1165SOL     OW 4072   1.352   0.323   1.520 -0.6023  0.0587  0.3329
 1165SOL    HW1 4073   1.268   0.317   1.476 -0.9610 -0.9097  1.1194
 1165SOL    HW2 4074   1.363   0.417   1.538 -1.2463  0.2540 -0.2613
 1166SOL     OW 4075   5.288   7.110   0.852  0.4304 -0.4638 -0.0273
 1166SOL    HW1 4076   5.331   7.025   0.843 -2.4173 -2.1577  1.1095
 1166SOL    HW2 4077   5.221   7.111   0.783  0.2150  0.7357  0.1702
 1167SOL     OW 4078   8.460   3.924   5.688  0.4033  0.0791  0.0636
 1167SOL    HW1 4079   8.505   3.997   5.645  0.3791  0.0293 -0.0456
 1167SOL    HW2 4080   8.369   3.931   5.659  0.3228  0.2224  0.3409
 1168SOL     OW 4081   2.608   2.174   0.077  0.0829  0.7627  0.2071
 1168SOL    HW1 4082   2.545   2.135   0.138 -0.1217  1.0984  0.2119
 1168SOL    HW2 4083   2.557   2.190  -0.002  0.4757 -0.1880 -0.2554
 1169SOL     OW 4084   7.380   5.393   4.347 -0.2214  0.2438 -0.3175
 1169SOL    HW1 4085   7.329   5.418   4.423  1.5205  0.3226  0.8708
 1169SOL    HW2 4086   7.380   5.297   4.347 -0.1832  0.2447 -0.1848
 1170SOL     OW 4087   1.396   9.613   0.210 -0.4021 -0.1787 -0.2126
 1170SOL    HW1 4088   1.457   9.564   0.154 -1.3820 -1.2597 -0.3541
 1170SOL    HW2 4089   1.451   9.646   0.281  0.6845  0.3961 -1.2763
 1171SOL     OW 4090   3.327   0.965   7.989 -0.4730 -0.1486  0.1271
 1171SOL    HW1 4091   3.311   0.985   7.897  0.6562  0.3867  0.0308
 1171SOL    HW2 4092   3.293   0.876   8.000  0.4677 -0.6954 -1.1256
 1172SOL     OW 4093   3.963   4.647   6.754  0.3624  0.2145  0.2369
 1172SOL    HW1 4094   3.980   4.594   6.677 -1.8434  1.1752 -1.0264
 1172SOL    HW2 4095   3.985   4.736   6.728 -1.3944  0.7062  0.2802
 1173SOL     OW 4096   8.284   6.430   7.714  0.1809 -0.0671 -0.5678
 1173SOL    HW1 4097   8.273   6.381   7.633  1.9693  3.5533 -3.3204
 1173SOL    HW2 4098   8.213   6.494   7.713  0.1788 -0.0322  0.7785
 1174SOL     OW 4099   8.941   4.383   5.238  0.3518 -0.1819 -0.5100
 1174SOL    HW1 4100   9.012   4.444   5.258  0.3236  0.2963 -1.8045
 1174SOL    HW2 4101   8.980   4.320   5.178  0.6761 -2.1068  1.5927
 1175SOL     OW 4102   5.627   1.216   7.427 -0.0924 -0.2051  0.4567
 1175SOL    HW1 4103   5.572   1.163   7.484 -2.9888  2.3930  0.3674
 1175SOL    HW2 4104   5.647   1.294   7.479  0.5519  0.4429 -0.7299
 1176SOL     OW 4105   1.693   5.562   2.177 -0.3663  0.0037 -0.1367
 1176SOL    HW1 4106   1.756   5.633   2.187 -0.3812  0.0955 -0.6480
 1176SOL    HW2 4107   1.608   5.604   2.183 -0.3751  0.0675 -0.6700
 1177SOL     OW 4108   8.313   6.874   0.406 -0.1796 -0.1449  0.2687
 1177SOL    HW1 4109   8.276   6.798   0.361 -1.2162  0.0002  0.8487
 1177SOL    HW2 4110   8.252   6.892   0.477  0.0682  1.2204  0.1598
 1178SOL     OW 4111   8.001   6.052   9.557  0.0922  0.3016  0.5877
 1178SOL    HW1 4112   8.080   6.006   9.531 -0.5329  0.1384 -1.1407
 1178SOL    HW2 4113   8.031   6.136   9.590  0.9262  0.7928 -1.3395
 1179SOL     OW 4114   5.361   6.084   6.472  0.1205  0.2946  0.5252
 1179SOL    HW1 4115   5.360   6.022   6.545  2.3652  0.9552  1.2018
 1179SOL    HW2 4116   5.374   6.030   6.394 -1.1838 -0.3165  0.6994
 1180SOL     OW 4117   8.403   9.731   1.611 -0.2572  0.7177 -0.1814
 1180SOL    HW1 4118   8.432   9.642   1.629  0.4658  1.4036  2.4298
 1180SOL    HW2 4119   8.462   9.787   1.662 -1.0334  2.6669 -1.2996
 1181SOL     OW 4120   2.457   5.161   9.485  0.1442  0.2621 -0.1558
 1181SOL    HW1 4121   2.548   5.139   9.464 -0.0278  0.1203 -0.7575
 1181SOL    HW2 4122   2.451   5.256   9.471 -0.0892  0.0990 -1.2146
 1182SOL     OW 4123   4.950   3.092   7.459  0.1602 -0.1619  0.1976
 1182SOL    HW1 4124   5.005   3.166   7.486  0.3144 -1.0616  2.5264
 1182SOL    HW2 4125   4.869   3.103   7.509 -0.4706 -0.6948 -0.6770
 1183SOL     OW 4126   5.625   8.291   3.727  0.1903 -0.5967 -0.2252
 1183SOL    HW1 4127   5.684   8.332   3.665  0.6037 -0.9431 -0.0621
 1183SOL    HW2 4128   5.555   8.356   3.740  0.8327  0.0515  0.0286
 1184SOL     OW 4129   1.231   7.906   5.659 -0.3216  0.0488 -0.0568
 1184SOL    HW1 4130   1.175   7.935   5.587 -1.1354 -0.2813  0.4266
 1184SOL    HW2 4131   1.177   7.843   5.707  0.7752 -0.9160 -0.0630
 1185SOL     OW 4132   9.064   7.604   8.491  0.2204  0.3469  0.1125
 1185SOL    HW1 4133   8.973   7.599   8.462 -0.3590  0.7537  1.7623
 1185SOL    HW2 4134   9.116   7.593   8.411 -1.2776  1.1496 -1.0012
 1186SOL     OW 4135   1.947   1.090   1.752 -0.0633  0.1387  0.1831
 1186SOL    HW1 4136   1.982   1.091   1.840 -1.1412  1.9409  0.6429
 1186SOL    HW2 4137   1.891   1.013   1.749  0.1514 -0.0489  0.9960
 1187SOL     OW 4138   6.981   6.853   3.893  0.1311  0.0688  0.7561
 1187SOL    HW1 4139   6.908   6.798   3.866 -0.0246 -0.4463  2.1654
 1187SOL    HW2 4140   7.020   6.883   3.811 -1.1763 -0.2780 -0.0172
 1188SOL     OW 4141   3.129   2.467   9.935 -0.1900 -0.7600  0.4282
 1188SOL    HW1 4142   3.122   2.553   9.976  2.3310 -0.7976  1.1376
 1188SOL    HW2 4143   3.168   2.484   9.849  0.4314 -1.1762  0.6186
 1189SOL     OW 4144   3.239   6.944   8.175 -0.1225  0.5556  0.2166
 1189SOL    HW1 4145   3.259   6.879   8.242  0.8020  2.1645  1.5889
 1189SOL    HW2 4146   3.321   6.993   8.165 -1.0520  2.1091 -0.0506
 1190SOL     OW 4147   1.754   8.492   9.911  0.4049  0.1534 -0.7157
 1190SOL    HW1 4148   1.682   8.448   9.866 -1.2108 -0.1526  1.9065
 1190SOL    HW2 4149   1.821   8.424   9.922 -0.0156 -0.3029 -0.9359
 1191SOL     OW 4150   1.466   6.344   6.005  0.0061  0.9330 -0.1565
 1191SOL    HW1 4151   1.394   6.341   5.941  1.7713  0.4964 -2.2704
 1191SOL    HW2 4152   1.492   6.252   6.016 -0.6515  0.9329  1.7326
 1192SOL     OW 4153   3.902   1.345   2.254  0.3369 -0.3815 -0.4355
 1192SOL    HW1 4154   3.854   1.322   2.175 -0.9810  0.5707  0.0516
 1192SOL    HW2 4155   3.907   1.440   2.253 -2.4127 -0.0468  2.0390
 1193SOL     OW 4156   6.197   2.703   9.013  0.2855 -0.2268  0.1685
 1193SOL    HW1 4157   6.102   2.714   9.017  0.2308 -0.8422  0.7361
 1193SOL    HW2 4158   6.225   2.699   9.104  1.0921  1.7452  0.0553
 1194SOL     OW 4159   3.532   1.425   2.185  0.1184  0.3703 -0.3916
 1194SOL    HW1 4160   3.514   1.365   2.257 -0.2346 -0.4245 -1.1291
 1194SOL    HW2 4161   3.449   1.469   2.168 -0.5538 -1.3821 -2.0434
 1195SOL     OW 4162   1.488   5.987   4.934 -0.0687 -0.7462 -0.2513
 1195SOL    HW1 4163   1.523   6.027   5.013  1.7192 -1.0008 -0.8759
 1195SOL    HW2 4164   1.411   6.040   4.912  0.5187  0.4926  0.5965
 1196SOL     OW 4165   2.669   9.251   8.250  0.3280 -0.2027  0.2077
 1196SOL    HW1 4166   2.580   9.282   8.267 -0.1976 -1.4713 -0.0380
 1196SOL    HW2 4167   2.710   9.246   8.336 -0.7824 -2.1926  0.7003
 1197SOL     OW 4168  -0.010   8.827   1.171 -0.1076  0.4530 -0.0343
 1197SOL    HW1 4169   0.072   8.867   1.142 -0.3553 -0.0197 -1.4730
 1197SOL    HW2 4170   0.005   8.733   1.160 -0.5043  0.2984  0.6740
 1198SOL     OW 4171   0.915   2.092   6.737 -0.9113 -0.0165  0.5184
 1198SOL    HW1 4172   0.913   1.997   6.731 -0.3453  0.0225 -0.6444
 1198SOL    HW2 4173   0.887   2.111   6.827 -2.2561 -1.2067  0.3836
 1199SOL     OW 4174   1.063   9.244   1.674  0.1373  0.0703 -0.2956
 1199SOL    HW1 4175   1.033   9.224   1.763  0.0760  1.1128 -0.0627
 1199SOL    HW2 4176   0.992   9.214   1.617 -0.5610  0.8720  0.1295
 1200SOL     OW 4177   6.956   3.779   6.954  0.5084  0.2008 -0.2574
 1200SOL    HW1 4178   6.949   3.828   7.036 -0.3507 -1.2324  0.5608
 1200SOL    HW2 4179   7.048   3.754   6.948  0.7278  0.9471 -0.1350
 1201SOL     OW 4180   2.113   5.219   2.366  0.1819  0.0263  0.3162
 1201SOL    HW1 4181   2.188   5.174   2.406  0.6622 -0.8042 -1.3995
 1201SOL    HW2 4182   2.142   5.238   2.277 -0.4820  2.6692  0.5898
 1202SOL     OW 4183   8.600   8.013   5.454  0.2577 -0.6924 -0.3403
 1202SOL    HW1 4184   8.585   7.920   5.469  0.1001 -0.5062  0.7924
 1202SOL    HW2 4185   8.683   8.018   5.406  0.2167 -1.4124 -0.4886
 1203SOL     OW 4186   9.314   0.266   1.000 -0.4747  0.1061 -0.4527
 1203SOL    HW1 4187   9.244   0.235   1.057 -1.2632  1.3548 -0.6973
 1203SOL    HW2 4188   9.390   0.213   1.024 -1.0089  0.0234  1.1533
 1204SOL     OW 4189   4.988   5.540   1.092 -0.0978  0.2884  0.2791
 1204SOL    HW1 4190   5.038   5.516   1.013 -1.9318 -0.6653 -0.6476
 1204SOL    HW2 4191   4.919   5.598   1.060  0.2816  1.4923  1.5286
 1205SOL     OW 4192   4.375   6.016   0.600 -0.1730  0.3883 -0.1952
 1205SOL    HW1 4193   4.342   6.098   0.564 -0.3866  1.0525  1.4073
 1205SOL    HW2 4194   4.426   6.043   0.677  0.4249 -0.9283 -0.1040
 1206SOL     OW 4195   0.698   9.411   8.542 -0.0976  0.0373 -0.0014
 1206SOL    HW1 4196   0.665   9.379   8.458 -1.1957  1.3583 -0.1291
 1206SOL    HW2 4197   0.732   9.333   8.587 -0.8436 -0.9362 -1.0697
 1207SOL     OW 4198   3.135   9.368   2.379  0.3984 -0.5522 -0.3294
 1207SOL    HW1 4199   3.050   9.395   2.416  0.8353  1.4689 -0.7006
 1207SOL    HW2 4200   3.199   9.394   2.445  0.7395 -2.6286  0.2256
 1208SOL     OW 4201   9.018   3.295   1.049 -0.2014  0.0607 -0.1965
 1208SOL    HW1 4202   9.056   3.379   1.076 -0.5176 -0.5117  2.2525
 1208SOL    HW2 4203   8.951   3.319   0.984  2.7985  1.2418 -3.1264
 1209SOL     OW 4204   7.957   2.490   8.298 -0.8081  0.2919 -0.0078
 1209SOL    HW1 4205   8.044   2.469   8.266 -1.0034 -0.8281  0.1386
 1209SOL    HW2 4206   7.962   2.476   8.393 -1.1147  0.3500  0.0174
 1210SOL     OW 4207   2.005   8.702   4.173  0.2117 -0.7217 -0.6946
 1210SOL    HW1 4208   2.041   8.757   4.243 -0.7244  0.2548 -0.9502
 1210SOL    HW2 4209   1.911   8.697   4.193 -0.1237 -0.1783 -2.0342
 1211SOL     OW 4210   6.842   1.941   7.653  0.2137  0.2839 -0.3931
 1211SOL    HW1 4211   6.937   1.935   7.650  0.1544 -0.4658 -1.6748
 1211SOL    HW2 4212   6.813   1.850   7.661 -0.3754  0.6397  2.3078
 1212SOL     OW 4213   4.314   5.550   9.943  0.2840 -0.2873 -0.3230
 1212SOL    HW1 4214   4.232   5.585   9.908 -1.3008 -1.1907  2.1977
 1212SOL    HW2 4215   4.340   5.483   9.879 -1.7609 -0.9995 -0.4729
 1213SOL     OW 4216   7.128   6.601   9.654  0.1934 -0.2140  0.3020
 1213SOL    HW1 4217   7.096   6.690   9.638 -1.0444 -0.4250  1.3976
 1213SOL    HW2 4218   7.051   6.546   9.638  0.1805 -0.8202  2.2230
 1214SOL     OW 4219   0.033   0.390   2.694 -0.1119 -0.0411  0.1465
 1214SOL    HW1 4220   0.077   0.419   2.615  1.6088  0.3468  1.1958
 1214SOL    HW2 4221  -0.034   0.330   2.663  1.5072 -1.0996 -1.5068
 1215SOL     OW 4222   6.569   8.173   1.438 -0.2410  0.1230  0.3674
 1215SOL    HW1 4223   6.553   8.096   1.493 -1.7058 -0.9381 -1.4360
 1215SOL    HW2 4224   6.482   8.206   1.418  0.2674  0.6460 -1.0668
 1216SOL     OW 4225   5.118   4.072   9.467 -0.2802 -0.4420  0.2680
 1216SOL    HW1 4226   5.147   4.110   9.384  0.4969 -2.6479 -0.5527
 1216SOL    HW2 4227   5.048   4.130   9.497 -1.3036 -0.1234 -2.4572
 1217SOL     OW 4228   9.774   3.045   8.959  0.7176 -0.5512 -0.1247
 1217SOL    HW1 4229   9.695   2.997   8.933  0.7587 -0.8858  0.3519
 1217SOL    HW2 4230   9.843   3.007   8.905  0.4272  0.3066 -1.1448
 1218SOL     OW 4231   0.292   4.731   6.039 -0.0211 -0.0414 -0.1656
 1218SOL    HW1 4232   0.226   4.798   6.023 -0.3943 -0.8134 -2.1574
 1218SOL    HW2 4233   0.357   4.745   5.970  0.8302 -0.5991  0.5031
 1219SOL     OW 4234   3.180   1.530   4.966  0.2792  0.4382  0.3312
 1219SOL    HW1 4235   3.091   1.532   4.931  0.7141 -0.0998 -0.8462
 1219SOL    HW2 4236   3.189   1.614   5.011 -1.0380  0.2306  1.0632
 1220SOL     OW 4237   9.117   9.810   5.501 -0.9706 -0.1884 -0.1999
 1220SOL    HW1 4238   9.205   9.794   5.468 -0.7048  0.1974  0.3116
 1220SOL    HW2 4239   9.060   9.797   5.426 -0.5253 -0.9437 -0.4190
 1221SOL     OW 4240   4.921   4.213   5.327 -0.0069 -0.1406  0.5328
 1221SOL    HW1 4241   4.973   4.154   5.381 -0.9180 -1.1970  0.2830
 1221SOL    HW2 4242   4.917   4.171   5.241 -0.3887  0.4455  0.2554
 1222SOL     OW 4243   8.187   4.948   3.635 -0.1388 -0.6220  0.2269
 1222SOL    HW1 4244   8.282   4.956   3.632 -0.1842  0.1869  0.6793
 1222SOL    HW2 4245   8.157   5.032   3.669 -1.2836  0.6869 -3.4964
 1223SOL     OW 4246   2.030   6.465   7.509  0.5005  0.7035  0.3321
 1223SOL    HW1 4247   1.990   6.539   7.462 -0.8732 -0.4160 -0.3345
 1223SOL    HW2 4248   2.032   6.394   7.445  1.5557  0.0697  1.0412
 1224SOL     OW 4249   2.434   7.003   7.250  0.1632 -0.0924  0.2719
 1224SOL    HW1 4250   2.345   7.027   7.223 -0.1265 -1.4528 -0.0653
 1224SOL    HW2 4251   2.431   7.004   7.346  0.3499  1.7779  0.2954
 1225SOL     OW 4252   5.893   6.277   0.306  0.6254 -0.1729  0.1316
 1225SOL    HW1 4253   5.864   6.326   0.229  0.3886  2.8072  1.9692
 1225SOL    HW2 4254   5.843   6.195   0.303 -2.0940  1.4053 -0.9848
 1226SOL     OW 4255   1.141   7.159   5.722 -0.7605  0.2329  0.4730
 1226SOL    HW1 4256   1.187   7.169   5.806  1.9643  1.3257 -1.0243
 1226SOL    HW2 4257   1.179   7.080   5.683 -1.1526  0.3723 -0.2048
 1227SOL     OW 4258   2.076   6.765   1.443  0.2319 -0.4750  0.8581
 1227SOL    HW1 4259   1.992   6.760   1.397  1.2133  1.9587 -1.4772
 1227SOL    HW2 4260   2.056   6.811   1.525 -0.5802  1.2375 -0.2457
 1228SOL     OW 4261   2.768   0.698   6.432  0.1367  0.0866  0.3559
 1228SOL    HW1 4262   2.779   0.793   6.437  1.0777 -0.0056  0.2508
 1228SOL    HW2 4263   2.675   0.684   6.445  0.0679  0.9911  0.9245
 1229SOL     OW 4264   4.584   6.847   4.758 -0.3965  0.1234 -0.4117
 1229SOL    HW1 4265   4.555   6.905   4.687  0.5083 -1.0584 -1.8135
 1229SOL    HW2 4266   4.565   6.896   4.838 -3.1958  0.7233 -1.3346
 1230SOL     OW 4267   5.235   0.664   6.584 -0.1082  0.4946 -0.2979
 1230SOL    HW1 4268   5.329   0.648   6.582 -0.0658  0.8041 -0.8225
 1230SOL    HW2 4269   5.206   0.625   6.667  0.6746  1.4528  0.4586
 1231SOL     OW 4270   1.824   0.747   4.871 -0.6446  0.2258 -0.2259
 1231SOL    HW1 4271   1.845   0.724   4.780 -1.9299 -0.4911 -0.3692
 1231SOL    HW2 4272   1.800   0.664   4.912  0.5850  0.4330  0.9879
 1232SOL     OW 4273   6.042   3.158   1.527 -0.0322  0.2789  0.0729
 1232SOL    HW1 4274   6.020   3.132   1.438  1.6215  2.3099 -1.0329
 1232SOL    HW2 4275   5.965   3.207   1.557  0.1326  1.2296 -0.9983
 1233SOL     OW 4276   1.129   6.809   9.206 -0.0178 -0.7868  0.2577
 1233SOL    HW1 4277   1.065   6.878   9.223 -0.6750 -1.1509 -0.6762
 1233SOL    HW2 4278   1.135   6.761   9.289 -2.1181 -1.6880 -0.0644
 1234SOL     OW 4279   4.097   1.703   8.223  0.0809  0.0688  0.2991
 1234SOL    HW1 4280   4.149   1.784   8.230  1.7300 -0.8635 -0.5554
 1234SOL    HW2 4281   4.070   1.700   8.132  0.3004 -0.4971  0.2510
 1235SOL     OW 4282   9.481   4.265   2.149 -0.8752 -0.3592  0.1212
 1235SOL    HW1 4283   9.492   4.358   2.131  1.0862 -0.4736  0.4961
 1235SOL    HW2 4284   9.538   4.248   2.225 -1.1856 -1.8513  0.0515
 1236SOL     OW 4285   0.187   5.809   2.693 -0.1774  0.4082  0.7640
 1236SOL    HW1 4286   0.123   5.797   2.622 -2.0057  0.8670  2.2447
 1236SOL    HW2 4287   0.152   5.882   2.744  1.7116  0.8585  1.5052
 1237SOL     OW 4288   0.778   6.524   3.682  0.0952 -0.1182 -0.3874
 1237SOL    HW1 4289   0.844   6.477   3.631  1.0840  1.1292 -0.3129
 1237SOL    HW2 4290   0.760   6.466   3.756  0.9034 -0.6119 -0.5607
 1238SOL     OW 4291   9.313   0.961   4.314 -0.3384  0.5704  0.4545
 1238SOL    HW1 4292   9.297   0.867   4.299 -0.9356  0.8512 -0.7980
 1238SOL    HW2 4293   9.334   0.967   4.408  0.3791 -0.8913  0.4172
 1239SOL     OW 4294   3.670   6.878   3.138  0.2484 -0.6612 -0.3028
 1239SOL    HW1 4295   3.676   6.924   3.054  0.2954 -0.5950 -0.2635
 1239SOL    HW2 4296   3.751   6.828   3.143  0.6368 -0.0053  0.0896
 1240SOL     OW 4297   6.900   0.761   1.120 -0.0819 -0.0283 -0.0893
 1240SOL    HW1 4298   6.931   0.821   1.188  1.4387 -1.9416  0.9997
 1240SOL    HW2 4299   6.975   0.750   1.061 -0.5647 -0.3507 -0.6591
 1241SOL     OW 4300   2.401   4.211   6.504  0.4639  0.3372 -0.0350
 1241SOL    HW1 4301   2.403   4.118   6.480  1.1475  0.5027 -0.6783
 1241SOL    HW2 4302   2.311   4.227   6.532  0.3684 -0.5438  0.1823
 1242SOL     OW 4303   5.432   9.201   0.150 -0.8537  0.3686  0.1689
 1242SOL    HW1 4304   5.354   9.170   0.103 -1.1473  1.7259 -0.2958
 1242SOL    HW2 4305   5.397   9.253   0.223 -0.3826 -0.5222  1.0490
 1243SOL     OW 4306   1.252   0.985   6.387 -0.0686  0.4275 -0.2923
 1243SOL    HW1 4307   1.164   1.002   6.421 -1.3189 -0.6525 -2.7784
 1243SOL    HW2 4308   1.254   0.890   6.371  2.0058  0.2106  0.7430
 1244SOL     OW 4309   1.154   7.099   2.136  0.0943 -0.0485 -0.3154
 1244SOL    HW1 4310   1.105   7.169   2.094  1.9351  0.3315 -1.9502
 1244SOL    HW2 4311   1.150   7.025   2.075  1.9205  0.1562 -0.7259
 1245SOL     OW 4312   9.987   0.575   1.372  0.1083  0.1361 -0.2918
 1245SOL    HW1 4313   9.994   0.544   1.463 -0.1030  0.1017 -0.2853
 1245SOL    HW2 4314   9.903   0.540   1.342 -0.7084  1.6354  0.0886
 1246SOL     OW 4315   3.601   4.973   7.051  0.6125 -0.0245 -0.3061
 1246SOL    HW1 4316   3.541   4.905   7.083  0.5573  0.6430  1.0658
 1246SOL    HW2 4317   3.548   5.025   6.991 -0.1354  0.4181  0.7142
 1247SOL     OW 4318   9.266   2.160   9.093 -0.4578 -0.0436 -0.2741
 1247SOL    HW1 4319   9.312   2.111   9.025 -0.9771 -0.4962 -0.2987
 1247SOL    HW2 4320   9.217   2.094   9.142 -0.3184  0.3114  0.3669
 1248SOL     OW 4321   1.165   6.745   7.308  0.0370 -0.0507  0.3705
 1248SOL    HW1 4322   1.131   6.695   7.234  0.5177  2.9067 -2.0609
 1248SOL    HW2 4323   1.109   6.822   7.312  1.7723  1.2314  1.2014
 1249SOL     OW 4324   4.325   7.570   9.263 -0.0310 -0.0902 -0.0632
 1249SOL    HW1 4325   4.404   7.562   9.317  0.1424 -2.4652 -0.5441
 1249SOL    HW2 4326   4.341   7.514   9.188 -1.7630  0.1970 -0.7071
 1250SOL     OW 4327   2.524   0.455   9.000  0.1509  0.0750  0.0605
 1250SOL    HW1 4328   2.542   0.518   9.071 -2.4599  1.1034 -0.0803
 1250SOL    HW2 4329   2.585   0.383   9.016  0.4717  0.8109  2.6693
 1251SOL     OW 4330   8.724   5.246   5.530 -0.7026 -0.1022  0.3686
 1251SOL    HW1 4331   8.632   5.230   5.509 -0.9827  0.6336  0.9640
 1251SOL    HW2 4332   8.765   5.262   5.445 -0.6546 -2.5397 -0.1288
 1252SOL     OW 4333   3.705   8.183   6.107 -0.2851 -0.3654 -0.0029
 1252SOL    HW1 4334   3.673   8.206   6.020  0.9305  0.9561 -0.1281
 1252SOL    HW2 4335   3.627   8.182   6.162 -0.7227  1.6786 -0.5175
 1253SOL     OW 4336   9.414   9.321   2.807 -0.2319  0.1923  0.0850
 1253SOL    HW1 4337   9.446   9.259   2.873 -0.2350  0.4910  0.3632
 1253SOL    HW2 4338   9.406   9.404   2.853 -2.1064 -0.0188  0.2112
 1254SOL     OW 4339   3.810   3.555   2.061  0.5168  0.4225 -0.8182
 1254SOL    HW1 4340   3.855   3.544   1.978  0.9294 -1.2006 -0.4163
 1254SOL    HW2 4341   3.739   3.490   2.058  1.0774 -0.2788  0.4339
 1255SOL     OW 4342   1.913   6.395   0.537 -0.3501 -0.5918  0.1359
 1255SOL    HW1 4343   1.840   6.404   0.475 -0.3757 -2.9568 -0.2469
 1255SOL    HW2 4344   1.876   6.345   0.610  0.2057  0.5140  1.2282
 1256SOL     OW 4345   4.900   2.739   4.912  0.1260 -0.2439  0.0978
 1256SOL    HW1 4346   4.830   2.674   4.905 -1.6533  1.6676 -1.0025
 1256SOL    HW2 4347   4.975   2.699   4.868 -1.0276 -1.4118 -0.8840
 1257SOL     OW 4348   3.229   6.684   9.061  0.0517  0.3170 -0.1054
 1257SOL    HW1 4349   3.179   6.615   9.018  2.2393 -0.4377 -1.6314
 1257SOL    HW2 4350   3.289   6.716   8.993  2.6649  0.1012  1.9549
 1258SOL     OW 4351   2.737  10.005   6.092  0.3215  0.1631  0.0007
 1258SOL    HW1 4352   2.704   9.935   6.148  0.1588  0.0770 -0.2010
 1258SOL    HW2 4353   2.688   9.996   6.011  2.8015 -1.8290 -1.4425
 1259SOL     OW 4354   3.375   1.354   8.495  0.4920 -0.0968 -0.7696
 1259SOL    HW1 4355   3.303   1.327   8.552  0.6061  3.0842  1.1412
 1259SOL    HW2 4356   3.335   1.366   8.409 -0.4287 -1.7481 -0.6191
 1260SOL     OW 4357   1.772   9.585   6.237 -0.8176 -0.4987  0.2558
 1260SOL    HW1 4358   1.716   9.583   6.159  0.6592 -1.6565 -0.8242
 1260SOL    HW2 4359   1.750   9.505   6.284 -1.1378 -0.1912  0.6431
 1261SOL     OW 4360   4.995   7.643   8.986 -0.1257 -0.0158 -0.0503
 1261SOL    HW1 4361   4.932   7.640   9.058 -0.1311 -1.9801 -0.0881
 1261SOL    HW2 4362   4.944   7.622   8.908  0.4555 -1.2838 -0.1279
 1262SOL     OW 4363   0.453   0.351   9.910  0.2734 -0.1524 -0.3769
 1262SOL    HW1 4364   0.442   0.265   9.951  0.8756 -0.8088 -1.5334
 1262SOL    HW2 4365   0.370   0.396   9.925 -0.3297 -1.2318 -0.3997
 1263SOL     OW 4366   9.922   7.871   5.965  0.1216 -0.3902  0.2998
 1263SOL    HW1 4367   9.956   7.873   6.055 -1.2684 -1.9210  0.9213
 1263SOL    HW2 4368   9.868   7.950   5.958  2.1948  1.0606 -0.0732
 1264SOL     OW 4369   0.410   8.916   9.029  0.8476 -0.2128 -0.3429
 1264SOL    HW1 4370   0.395   8.824   9.008 -0.2426  0.3928 -2.4478
 1264SOL    HW2 4371   0.345   8.963   8.978  0.9573  1.7187  1.2023
 1265SOL     OW 4372   2.586   6.422   3.316 -0.3062  0.0356 -0.0437
 1265SOL    HW1 4373   2.672   6.383   3.328 -0.4653 -0.6195 -0.9404
 1265SOL    HW2 4374   2.566   6.409   3.224 -1.4335  0.0249  0.1843
 1266SOL     OW 4375   7.442   0.178   1.270  0.4360 -0.1606 -0.3401
 1266SOL    HW1 4376   7.414   0.087   1.266 -0.8179  0.2203 -0.7259
 1266SOL    HW2 4377   7.520   0.177   1.325 -0.3800 -1.2667  0.8405
 1267SOL     OW 4378   0.891   2.813   0.725 -0.2242  0.2134 -0.6337
 1267SOL    HW1 4379   0.932   2.830   0.810 -1.5565 -0.7037  0.2297
 1267SOL    HW2 4380   0.960   2.770   0.674  0.0246 -1.0396  0.6814
 1268SOL     OW 4381   9.247   8.451   0.826 -0.0363  0.2797 -0.2485
 1268SOL    HW1 4382   9.310   8.521   0.843  1.5604 -1.1402 -0.0771
 1268SOL    HW2 4383   9.201   8.478   0.747 -1.5357  2.8806  1.3500
 1269SOL     OW 4384   1.976   0.382   4.776  0.1415  0.0236  0.5313
 1269SOL    HW1 4385   1.930   0.315   4.726 -0.3265 -0.2425  1.3096
 1269SOL    HW2 4386   2.014   0.439   4.709 -1.0570  0.0772 -0.1333
 1270SOL     OW 4387   8.386   8.687   6.820  0.1311 -0.2486 -0.0845
 1270SOL    HW1 4388   8.451   8.727   6.877 -0.2440  0.1245  0.0933
 1270SOL    HW2 4389   8.436   8.632   6.760  1.0196  2.6386 -2.2073
 1271SOL     OW 4390   5.546   6.698   3.679  0.3530 -0.0726 -0.5691
 1271SOL    HW1 4391   5.616   6.648   3.637  0.5206 -0.9595  0.6912
 1271SOL    HW2 4392   5.591   6.772   3.721  0.7121 -1.1386  1.0120
 1272SOL     OW 4393   2.746   3.376   2.833 -0.2253 -0.4519 -0.0242
 1272SOL    HW1 4394   2.745   3.281   2.834  5.4402 -0.8845 -0.8876
 1272SOL    HW2 4395   2.708   3.401   2.918 -0.2148 -3.5876  1.0393
 1273SOL     OW 4396   2.672   8.276   0.622  0.7988 -0.3574 -0.0691
 1273SOL    HW1 4397   2.596   8.220   0.640  1.3592 -1.0307  0.2815
 1273SOL    HW2 4398   2.737   8.247   0.685  0.7468  1.4607  0.8658
 1274SOL     OW 4399   0.988   7.764   6.989  0.3909 -0.0654 -0.1832
 1274SOL    HW1 4400   1.004   7.696   7.054  1.1476 -0.3465 -0.6566
 1274SOL    HW2 4401   1.042   7.740   6.915 -1.5478 -0.5617 -1.5104
 1275SOL     OW 4402   3.955   4.058   2.383 -0.1837  0.5691 -0.3955
 1275SOL    HW1 4403   3.996   4.051   2.297 -0.5246 -2.0169 -0.4205
 1275SOL    HW2 4404   3.861   4.058   2.365 -0.2530  0.5910 -0.0483
 1276SOL     OW 4405   9.710   9.728   5.431 -0.0237  0.0015 -0.1910
 1276SOL    HW1 4406   9.702   9.806   5.487  1.2164  0.6638 -0.8948
 1276SOL    HW2 4407   9.804   9.709   5.431 -0.1958 -0.8670 -0.8804
 1277SOL     OW 4408   5.571   3.312   9.654 -0.0148  0.2374 -0.4568
 1277SOL    HW1 4409   5.480   3.332   9.631 -0.0582  1.3309  0.5703
 1277SOL    HW2 4410   5.591   3.233   9.604 -1.8371 -0.5819  0.0212
 1278SOL     OW 4411   6.547   6.600   2.423 -0.7193  0.0666  0.0042
 1278SOL    HW1 4412   6.471   6.542   2.427 -1.7369  1.3148 -0.3577
 1278SOL    HW2 4413   6.590   6.578   2.341 -0.8219 -0.4968  0.0988
 1279SOL     OW 4414   5.206   2.464   7.026 -0.4451  0.4213 -0.1716
 1279SOL    HW1 4415   5.279   2.499   6.974  0.2823  0.4684  0.8468
 1279SOL    HW2 4416   5.203   2.371   7.003 -0.1528  0.4499 -0.3362
 1280SOL     OW 4417   1.271   6.244   3.350 -0.0146  0.0468  0.1962
 1280SOL    HW1 4418   1.336   6.182   3.384  0.0446  0.9614  1.8893
 1280SOL    HW2 4419   1.289   6.325   3.398 -0.4245  1.2263 -1.5758
 1281SOL     OW 4420   5.999   4.107   0.712 -0.0175 -0.1172  0.1013
 1281SOL    HW1 4421   6.065   4.137   0.775  2.0061 -0.5002 -1.7181
 1281SOL    HW2 4422   5.977   4.185   0.661  0.6754 -0.4315 -0.6932
 1282SOL     OW 4423   7.456   0.083   6.502  0.7183 -0.3826  0.1456
 1282SOL    HW1 4424   7.455   0.079   6.407 -1.3024  0.9580  0.0518
 1282SOL    HW2 4425   7.394   0.153   6.524  0.9867 -0.7861  2.4569
 1283SOL     OW 4426   1.357   8.012   5.874 -0.1111  0.3657 -0.0693
 1283SOL    HW1 4427   1.395   7.946   5.816 -0.1079  0.7249 -0.4880
 1283SOL    HW2 4428   1.262   7.999   5.866 -0.0938 -0.5146  0.9586
 1284SOL     OW 4429   2.398   4.656   4.499  0.2088 -0.0941  0.0581
 1284SOL    HW1 4430   2.391   4.716   4.573 -0.6136  0.2435 -0.2802
 1284SOL    HW2 4431   2.480   4.681   4.455  1.4767 -1.2258  1.6241
 1285SOL     OW 4432   4.144   6.281   6.865 -0.2355 -0.5249  0.8906
 1285SOL    HW1 4433   4.159   6.211   6.928  1.1934 -0.5596  0.5417
 1285SOL    HW2 4434   4.062   6.258   6.822 -0.2694 -1.4719  1.4471
 1286SOL     OW 4435   6.758   0.534   0.673 -0.2658 -0.2907  0.1629
 1286SOL    HW1 4436   6.818   0.533   0.748  1.7545  1.0490 -1.3408
 1286SOL    HW2 4437   6.710   0.617   0.683 -0.0417 -0.1422  0.0028
 1287SOL     OW 4438   7.516   4.741   5.845 -0.7368 -0.3230 -0.4016
 1287SOL    HW1 4439   7.550   4.765   5.759  0.1169 -3.0804 -0.9103
 1287SOL    HW2 4440   7.442   4.684   5.827 -1.8637  0.7009  0.7481
 1288SOL     OW 4441   8.575   6.314   6.445  0.1406 -0.0128  0.0975
 1288SOL    HW1 4442   8.504   6.360   6.490 -1.0173 -2.1377  0.5763
 1288SOL    HW2 4443   8.636   6.383   6.420 -0.8619  1.6169  1.8830
 1289SOL     OW 4444   9.380   1.038   1.241  1.0432  0.3312  0.1573
 1289SOL    HW1 4445   9.468   1.006   1.262  1.6359  0.9703 -1.2027
 1289SOL    HW2 4446   9.330   0.959   1.220  1.7899  0.0659 -0.7089
 1290SOL     OW 4447   9.124   6.108   5.778 -0.4710  0.2963 -0.7309
 1290SOL    HW1 4448   9.091   6.046   5.842  0.3288 -1.5691 -2.0337
 1290SOL    HW2 4449   9.196   6.152   5.821 -0.3714 -0.4470 -0.1306
 1291SOL     OW 4450   5.920   8.498   3.272  0.8232 -0.1707  0.0871
 1291SOL    HW1 4451   5.848   8.476   3.213 -1.4359  0.2862  2.4826
 1291SOL    HW2 4452   5.929   8.593   3.263  0.1928 -0.0410  0.7254
 1292SOL     OW 4453   4.099   6.625   5.800 -0.7166 -0.2700  0.2616
 1292SOL    HW1 4454   4.131   6.710   5.770 -0.5318 -0.6554 -0.6579
 1292SOL    HW2 4455   4.016   6.645   5.843 -0.9616  0.3011 -0.4652
 1293SOL     OW 4456   4.452   0.597   0.027  0.9542 -0.4538  0.1586
 1293SOL    HW1 4457   4.476   0.562   0.113 -0.2994 -0.2717  0.6015
 1293SOL    HW2 4458   4.372   0.647   0.043  0.1999 -1.1492 -1.2656
 1294SOL     OW 4459   9.835   4.869   2.288  0.0055 -0.0391 -0.9542
 1294SOL    HW1 4460   9.931   4.873   2.286  0.0074  1.3732  0.0040
 1294SOL    HW2 4461   9.807   4.929   2.220 -0.1610  1.0344  0.0267
 1295SOL     OW 4462   3.014   9.474   3.977 -0.7878 -0.5772 -0.6239
 1295SOL    HW1 4463   3.101   9.434   3.974 -0.2484  0.5807 -2.5476
 1295SOL    HW2 4464   2.989   9.471   4.069  2.0190  0.5522  0.2706
 1296SOL     OW 4465   1.641   1.740   4.005 -0.5284  0.1634  0.0594
 1296SOL    HW1 4466   1.662   1.818   4.056 -2.1064  1.5993 -1.3572
 1296SOL    HW2 4467   1.672   1.760   3.916 -2.6821  0.0643 -0.7808
 1297SOL     OW 4468   2.723   3.224   5.447 -0.0474 -0.1345 -0.5619
 1297SOL    HW1 4469   2.787   3.229   5.376 -0.3740 -0.2972 -0.8673
 1297SOL    HW2 4470   2.691   3.134   5.444  1.1863 -0.6723  0.8825
 1298SOL     OW 4471   6.132   7.898   2.215 -0.1502  0.4453 -0.3478
 1298SOL    HW1 4472   6.090   7.918   2.298  1.5078  1.5296  0.2906
 1298SOL    HW2 4473   6.102   7.966   2.155 -2.2415 -0.9805 -1.0318
 1299SOL     OW 4474   9.218   1.523   1.675 -0.4639  0.3142 -0.2985
 1299SOL    HW1 4475   9.178   1.521   1.763  0.7060 -0.1111  0.2422
 1299SOL    HW2 4476   9.310   1.503   1.690 -0.1136  0.8905 -1.5701
 1300SOL     OW 4477   5.710   1.421   6.999 -0.0803  0.3545  0.2385
 1300SOL    HW1 4478   5.774   1.452   6.935 -0.4045 -2.1747 -1.4782
 1300SOL    HW2 4479   5.761   1.377   7.066  0.0956 -1.4368 -0.9985
 1301SOL     OW 4480   6.774   7.573   8.712 -0.1286  0.3811  0.0215
 1301SOL    HW1 4481   6.836   7.526   8.768 -0.8150  0.4364  0.8568
 1301SOL    HW2 4482   6.742   7.506   8.651 -0.3518 -0.0105  0.5568
 1302SOL     OW 4483   3.255   1.142   8.772 -0.1602  0.1366 -0.6399
 1302SOL    HW1 4484   3.208   1.178   8.697 -0.5972 -2.6712 -1.8289
 1302SOL    HW2 4485   3.218   1.187   8.848 -2.6214  0.2065 -1.7851
 1303SOL     OW 4486   8.525   1.497   0.678 -0.4630 -0.3091 -0.6186
 1303SOL    HW1 4487   8.486   1.556   0.742  0.1738 -0.6550  0.1133
 1303SOL    HW2 4488   8.616   1.486   0.709  0.2610  0.5635 -2.3174
 1304SOL     OW 4489   3.077   6.014   7.245  0.1006 -0.4043 -0.1856
 1304SOL    HW1 4490   3.090   6.087   7.186 -0.1464  1.0756  1.4849
 1304SOL    HW2 4491   3.158   5.963   7.240 -0.1234 -0.6188 -2.1288
 1305SOL     OW 4492   1.629   3.252   6.254 -0.0111 -0.8040  0.1114
 1305SOL    HW1 4493   1.631   3.306   6.333  0.2117 -1.1601  0.3493
 1305SOL    HW2 4494   1.539   3.259   6.223  0.4944  1.4078 -1.0384
 1306SOL     OW 4495   0.082   6.886   3.750  0.1524  0.3098  0.1854
 1306SOL    HW1 4496   0.144   6.906   3.820  0.4611  2.5553 -0.6448
 1306SOL    HW2 4497   0.088   6.961   3.691 -0.9350 -0.9824 -1.6591
 1307SOL     OW 4498   3.019   7.394   6.746  0.6035  0.9177 -0.0424
 1307SOL    HW1 4499   3.003   7.300   6.754 -0.3977  1.2455  3.2637
 1307SOL    HW2 4500   3.112   7.404   6.765  0.6020  0.6351  0.1199
 1308SOL     OW 4501   7.507   5.679   0.443  0.4746  0.6408 -0.4605
 1308SOL    HW1 4502   7.570   5.750   0.430  1.1979  0.5301  2.0460
 1308SOL    HW2 4503   7.422   5.722   0.438  0.8300  1.3376 -0.7650
 1309SOL     OW 4504   2.339   7.402   1.027  0.3447 -0.0049  0.1477
 1309SOL    HW1 4505   2.317   7.324   1.077  0.4812  0.5205  1.0536
 1309SOL    HW2 4506   2.409   7.374   0.968 -0.1258 -0.7415 -0.0684
 1310SOL     OW 4507   2.861   5.039   9.648 -0.1069 -0.3183 -0.4580
 1310SOL    HW1 4508   2.811   4.957   9.649 -1.9062  0.7237  0.7726
 1310SOL    HW2 4509   2.938   5.021   9.701 -1.9234 -0.4444  2.3236
 1311SOL     OW 4510   1.616   4.114   9.392 -0.0287 -0.2338 -0.0880
 1311SOL    HW1 4511   1.539   4.075   9.350 -0.0513  0.0149 -0.2853
 1311SOL    HW2 4512   1.661   4.041   9.434 -0.7015 -0.2948  0.5531
 1312SOL     OW 4513   9.655   4.338   8.470  0.0511 -0.4617 -0.0854
 1312SOL    HW1 4514   9.613   4.424   8.476 -0.3083 -0.7350  1.9251
 1312SOL    HW2 4515   9.595   4.279   8.515  0.1040 -1.8866 -1.7581
 1313SOL     OW 4516   0.185   9.328   5.626 -0.1738 -0.1085  0.0949
 1313SOL    HW1 4517   0.254   9.311   5.562 -0.9473  0.2402 -0.8588
 1313SOL    HW2 4518   0.220   9.295   5.708  1.0416 -0.1263 -0.4097
 1314SOL     OW 4519   5.131   2.277   1.787  0.0219 -0.8295 -0.3304
 1314SOL    HW1 4520   5.054   2.222   1.776  0.0212 -1.3927  1.9755
 1314SOL    HW2 4521   5.103   2.344   1.851  1.5589 -1.3993  1.0102
 1315SOL     OW 4522   0.397   4.819   5.076  0.5497  0.3707 -0.1107
 1315SOL    HW1 4523   0.332   4.777   5.020 -1.0340  2.8317 -0.2440
 1315SOL    HW2 4524   0.442   4.746   5.118 -0.4762 -1.4829 -2.0111
 1316SOL     OW 4525   9.634   3.409   4.392  0.2258  0.2560 -0.0831
 1316SOL    HW1 4526   9.554   3.356   4.399  0.4951 -0.2491 -0.7294
 1316SOL    HW2 4527   9.684   3.368   4.322  0.4932  1.3024 -0.5347
 1317SOL     OW 4528   9.846   5.166   2.122  0.0209  0.4056  0.3548
 1317SOL    HW1 4529   9.916   5.222   2.085  0.0334  0.0133 -0.2369
 1317SOL    HW2 4530   9.765   5.207   2.091  0.0513 -0.6393 -1.2304
 1318SOL     OW 4531   7.785   8.485   6.405  0.1745 -0.1320  0.1873
 1318SOL    HW1 4532   7.766   8.414   6.467 -0.0193 -1.2463 -1.1029
 1318SOL    HW2 4533   7.880   8.496   6.410  0.1191  0.0925  0.9843
 1319SOL     OW 4534   0.737   6.615   4.813 -0.3881 -0.6229 -0.0154
 1319SOL    HW1 4535   0.783   6.693   4.842  0.0615 -0.7403 -0.3946
 1319SOL    HW2 4536   0.663   6.648   4.761  1.2222 -0.4297 -2.3557
 1320SOL     OW 4537   4.239   6.055   6.989  0.0071 -0.0381 -0.3729
 1320SOL    HW1 4538   4.282   5.969   6.992  0.1345  0.0368  0.0221
 1320SOL    HW2 4539   4.147   6.035   6.969 -0.6039 -0.5302  2.4012
 1321SOL     OW 4540   4.085   3.334   9.617 -0.2784 -0.1178  0.0606
 1321SOL    HW1 4541   4.141   3.259   9.637 -0.6624 -0.6021 -0.6522
 1321SOL    HW2 4542   4.002   3.314   9.661 -1.5171 -1.7204 -2.7150
 1322SOL     OW 4543   0.043   2.924   7.492  0.4623 -0.5191 -0.8197
 1322SOL    HW1 4544   0.057   3.000   7.436  1.1271  0.5505  0.7326
 1322SOL    HW2 4545   0.035   2.960   7.581  2.3354 -2.3162  0.1773
 1323SOL     OW 4546   3.004   3.534   9.150 -0.1016 -0.2985  0.5248
 1323SOL    HW1 4547   2.977   3.609   9.203  0.5454 -0.5901  1.2871
 1323SOL    HW2 4548   2.953   3.542   9.069  0.2323  1.1851  0.4265
 1324SOL     OW 4549   7.249   3.107   1.568 -0.9046 -0.2616 -0.0304
 1324SOL    HW1 4550   7.201   3.123   1.487  0.4212  0.1769 -0.7587
 1324SOL    HW2 4551   7.227   3.017   1.592 -0.0720 -0.9725 -1.7684
 1325SOL     OW 4552   4.661   8.149   5.142 -1.1311 -0.2864 -0.2269
 1325SOL    HW1 4553   4.647   8.233   5.185 -0.0751 -0.4981  0.5717
 1325SOL    HW2 4554   4.748   8.157   5.103 -1.4803 -0.6248 -1.0971
 1326SOL     OW 4555   6.106   5.999   2.711 -0.2794  0.3208 -0.2596
 1326SOL    HW1 4556   6.079   6.022   2.799  1.1047 -1.1441  0.6004
 1326SOL    HW2 4557   6.025   5.973   2.667 -0.6793 -1.5108  1.4236
 1327SOL     OW 4558   4.282   4.700   6.012  0.4689  0.3889  0.0436
 1327SOL    HW1 4559   4.228   4.622   6.003  1.7253 -0.5393  0.1884
 1327SOL    HW2 4560   4.346   4.693   5.942  1.9381  0.1426  1.3468
 1328SOL     OW 4561   3.941   8.203   7.711  0.4773 -0.0256 -0.0988
 1328SOL    HW1 4562   4.029   8.172   7.688  0.1906 -0.8418 -0.1192
 1328SOL    HW2 4563   3.905   8.134   7.767 -0.6242 -0.2951 -1.1016
 1329SOL     OW 4564   5.841   5.368   8.658 -0.0724  0.9915 -0.3084
 1329SOL    HW1 4565   5.903   5.441   8.661 -0.6158  1.4352  0.7098
 1329SOL    HW2 4566   5.868   5.317   8.582  0.2631  2.3029 -1.1011
 1330SOL     OW 4567   9.872   6.080   0.477 -0.4732 -0.1690  0.0646
 1330SOL    HW1 4568   9.933   6.103   0.548  0.0740  0.0627 -0.4721
 1330SOL    HW2 4569   9.786   6.083   0.518  0.0008 -3.4069  1.6172
 1331SOL     OW 4570   5.590   9.564   1.853  0.0804  0.3116 -0.2991
 1331SOL    HW1 4571   5.584   9.658   1.868  1.1814  0.1255  1.5936
 1331SOL    HW2 4572   5.504   9.530   1.877  0.6976  0.4802  2.3713
 1332SOL     OW 4573   3.475   2.359   8.379  0.4116  0.3066  0.4047
 1332SOL    HW1 4574   3.407   2.387   8.439  0.2588  2.3373 -0.6451
 1332SOL    HW2 4575   3.557   2.377   8.424  0.4858 -3.9348  2.5110
 1333SOL     OW 4576   3.987   3.402   5.953  0.0182  0.1516 -0.0569
 1333SOL    HW1 4577   3.930   3.479   5.956  1.5484  1.4603 -2.2170
 1333SOL    HW2 4578   4.056   3.420   6.018 -0.2886  0.0077  0.3143
 1334SOL     OW 4579   1.268   9.312   4.790 -0.6591 -0.4192 -0.0913
 1334SOL    HW1 4580   1.360   9.337   4.800 -0.7610 -0.2789  0.5884
 1334SOL    HW2 4581   1.249   9.325   4.697 -0.7468  2.2364  0.2197
 1335SOL     OW 4582   9.236   8.343   6.741 -0.1043  0.1028  0.4636
 1335SOL    HW1 4583   9.299   8.290   6.694  0.5668  0.6068  0.7732
 1335SOL    HW2 4584   9.265   8.340   6.832 -0.1938  0.7973  0.5201
 1336SOL     OW 4585   4.959   6.247   0.983 -0.1992  0.3145 -0.1899
 1336SOL    HW1 4586   4.977   6.330   0.938 -2.7820  0.4060 -1.2441
 1336SOL    HW2 4587   4.868   6.255   1.012  0.5678 -0.7854  2.9090
 1337SOL     OW 4588   8.474   8.973   2.022 -0.2397  0.1447  0.2090
 1337SOL    HW1 4589   8.383   8.979   1.992 -0.2225  1.6209  0.3861
 1337SOL    HW2 4590   8.480   8.885   2.060 -1.1618 -0.5487 -1.1273
 1338SOL     OW 4591   8.494   0.566   5.137  0.3331 -0.3873 -0.7445
 1338SOL    HW1 4592   8.468   0.573   5.229 -0.7501 -0.1551 -1.0566
 1338SOL    HW2 4593   8.494   0.472   5.119 -0.7794 -0.3788 -0.8591
 1339SOL     OW 4594   5.177   5.939   0.183 -0.3010 -0.0702 -0.1092
 1339SOL    HW1 4595   5.200   6.030   0.163 -1.4712  0.0191 -1.2302
 1339SOL    HW2 4596   5.132   5.944   0.267  0.3062  0.2702  0.2058
 1340SOL     OW 4597   3.250   8.443   4.361 -1.2912  0.2640  0.2467
 1340SOL    HW1 4598   3.278   8.488   4.441 -2.2777 -0.6071  1.1032
 1340SOL    HW2 4599   3.165   8.482   4.339 -0.9662  0.5933 -0.4711
 1341SOL     OW 4600   4.096   7.072   6.506 -0.0270 -0.1962 -0.2303
 1341SOL    HW1 4601   4.093   7.134   6.578  0.3508 -0.8397  0.3556
 1341SOL    HW2 4602   4.189   7.051   6.497 -0.2106 -1.1599  0.0164
 1342SOL     OW 4603   9.921   5.099   1.441  0.2197 -0.0648 -0.0141
 1342SOL    HW1 4604   9.868   5.179   1.444  0.2776 -0.0423  0.8811
 1342SOL    HW2 4605   9.891   5.048   1.517  0.9704 -0.3714  0.0844
 1343SOL     OW 4606   9.736   6.363   4.219  0.7927 -0.2085  0.0867
 1343SOL    HW1 4607   9.815   6.403   4.182  0.2189  1.2974  0.4100
 1343SOL    HW2 4608   9.760   6.345   4.310  0.9081 -0.1955  0.0596
 1344SOL     OW 4609   8.422   1.868   1.584  0.3725  0.3892  0.2060
 1344SOL    HW1 4610   8.394   1.818   1.661  0.3875  0.1227  0.0380
 1344SOL    HW2 4611   8.517   1.855   1.580  0.1948 -0.7669 -0.6803
 1345SOL     OW 4612   9.254   3.928   3.668  0.3933  0.2892 -0.3579
 1345SOL    HW1 4613   9.328   3.886   3.713  0.7020  0.0752 -1.0556
 1345SOL    HW2 4614   9.286   4.016   3.647 -0.6340  1.3412  2.1013
 1346SOL     OW 4615   3.311   8.347   3.076 -0.1308  0.6403 -0.0818
 1346SOL    HW1 4616   3.228   8.377   3.114  0.0110  0.0657  0.6949
 1346SOL    HW2 4617   3.371   8.420   3.090 -0.2489  0.6774  0.2301
 1347SOL     OW 4618   0.238   5.741   4.169  0.2339 -0.0932 -0.3930
 1347SOL    HW1 4619   0.233   5.659   4.119  1.5325 -1.2511  1.2794
 1347SOL    HW2 4620   0.328   5.771   4.159  0.2195  0.2324  0.3884
 1348SOL     OW 4621   9.851   8.096   8.448 -0.1292 -0.4123 -0.1908
 1348SOL    HW1 4622   9.861   8.123   8.356  1.4378  0.4484  0.1973
 1348SOL    HW2 4623   9.857   8.000   8.445  0.1971 -0.3814 -0.9596
 1349SOL     OW 4624   0.756   7.036   9.921 -0.4777  0.0333  0.0259
 1349SOL    HW1 4625   0.797   7.086   9.991 -2.4781  1.5469  0.1969
 1349SOL    HW2 4626   0.678   7.086   9.898 -1.3003 -1.8083 -1.4543
 1350SOL     OW 4627   3.050   8.925   4.379 -0.2855  0.0894 -0.2376
 1350SOL    HW1 4628   2.990   8.996   4.354 -0.0508  0.2394 -0.3835
 1350SOL    HW2 4629   3.081   8.890   4.295 -0.3960 -0.1847 -0.1647
 1351SOL     OW 4630   5.128   5.487   2.706  0.4387 -0.3409 -0.0108
 1351SOL    HW1 4631   5.051   5.433   2.687 -1.3163  2.1805 -0.5912
 1351SOL    HW2 4632   5.107   5.529   2.790  1.9245 -0.7817  0.6157
 1352SOL     OW 4633   1.384   0.410   3.194  0.0800  0.7020 -0.0446
 1352SOL    HW1 4634   1.444   0.364   3.252 -1.1421  2.3691  2.6971
 1352SOL    HW2 4635   1.297   0.382   3.222 -0.6032  2.8665  0.1714
 1353SOL     OW 4636   7.088   0.591   9.996  0.3599 -0.1004 -0.2000
 1353SOL    HW1 4637   7.114   0.645   9.921 -2.6602  1.2719 -0.3919
 1353SOL    HW2 4638   7.085   0.502   9.961 -1.3269  0.5512 -1.8720
 1354SOL     OW 4639   4.849   9.800   6.289 -0.1771  0.2629 -0.5517
 1354SOL    HW1 4640   4.938   9.835   6.278 -0.0200 -0.4789 -1.9435
 1354SOL    HW2 4641   4.856   9.708   6.262 -1.3116  0.1231 -0.4261
 1355SOL     OW 4642   9.082   2.014   0.349 -0.2911 -0.4275 -0.0588
 1355SOL    HW1 4643   9.161   1.960   0.348 -0.0820 -0.3315  3.0772
 1355SOL    HW2 4644   9.114   2.103   0.332  0.5486 -0.1993  2.3463
 1356SOL     OW 4645   9.064   6.902   8.052  0.6453 -0.3280 -0.2356
 1356SOL    HW1 4646   9.067   6.889   8.147  1.6488  0.4680 -0.1381
 1356SOL    HW2 4647   9.110   6.826   8.016  0.1611 -0.6914 -0.1059
 1357SOL     OW 4648   9.295   9.952   8.473  0.1321  0.2843 -0.0595
 1357SOL    HW1 4649   9.236   9.876   8.480 -0.6222  0.7296 -1.2513
 1357SOL    HW2 4650   9.383   9.915   8.483 -0.2568 -0.6493  0.0568
 1358SOL     OW 4651   2.960   6.839   0.902 -0.3797 -0.2773 -0.0257
 1358SOL    HW1 4652   2.968   6.924   0.859  0.7215 -0.4286 -0.1322
 1358SOL    HW2 4653   2.962   6.776   0.831  2.5318 -0.5952  0.2452
 1359SOL     OW 4654   1.697   0.877   3.430 -0.1006 -0.0298 -0.3654
 1359SOL    HW1 4655   1.708   0.834   3.515  0.5536 -1.1592 -0.9928
 1359SOL    HW2 4656   1.777   0.928   3.419 -0.8860  1.4180  0.3879
 1360SOL     OW 4657   1.878   2.622   1.742  0.1011  0.1479  0.3956
 1360SOL    HW1 4658   1.816   2.684   1.778 -1.6637 -1.0615 -0.4013
 1360SOL    HW2 4659   1.955   2.675   1.719 -1.2591  1.9933 -0.1204
 1361SOL     OW 4660   6.711   3.210   7.417 -0.0001 -0.5193 -0.0330
 1361SOL    HW1 4661   6.693   3.250   7.503 -1.2555 -0.0459 -0.4932
 1361SOL    HW2 4662   6.633   3.230   7.365 -0.6251 -3.4525 -0.3658
 1362SOL     OW 4663   4.052   3.317   2.684 -0.3802 -1.0187 -0.2723
 1362SOL    HW1 4664   4.050   3.266   2.603 -2.1972 -0.1455 -0.8129
 1362SOL    HW2 4665   4.110   3.267   2.742 -0.5974 -2.6904 -1.4324
 1363SOL     OW 4666   5.802   8.698   5.771  0.1682 -0.6953 -0.0811
 1363SOL    HW1 4667   5.725   8.645   5.796 -0.4664 -0.1089 -0.7445
 1363SOL    HW2 4668   5.828   8.742   5.852 -0.1528 -0.9554  0.1664
 1364SOL     OW 4669   0.349   5.014   9.884 -0.2204 -0.5579  0.4052
 1364SOL    HW1 4670   0.418   4.949   9.880  0.7801  0.5176 -1.4672
 1364SOL    HW2 4671   0.296   4.998   9.806 -0.5425  0.2463  0.4454
 1365SOL     OW 4672   1.340   4.998   3.706 -0.0217 -0.3727 -0.1717
 1365SOL    HW1 4673   1.425   4.985   3.664  0.1910 -0.5937  0.3322
 1365SOL    HW2 4674   1.343   4.945   3.785  0.3247  1.5920  1.1985
 1366SOL     OW 4675   7.068   5.013   2.408  0.3062 -0.5962  0.1161
 1366SOL    HW1 4676   7.060   4.972   2.322 -1.6533  1.1869 -0.6292
 1366SOL    HW2 4677   7.059   5.107   2.391 -1.7772 -0.2910  2.4082
 1367SOL     OW 4678   9.510   5.306   0.365 -0.4329  0.0570  0.2130
 1367SOL    HW1 4679   9.528   5.381   0.308 -2.3602  0.5992  0.2493
 1367SOL    HW2 4680   9.560   5.324   0.445 -1.0965  1.4926  0.3431
 1368SOL     OW 4681   6.014   0.865   0.514  0.1670 -0.4624  0.2944
 1368SOL    HW1 4682   5.937   0.897   0.466 -1.3114 -2.4229  1.2166
 1368SOL    HW2 4683   6.088   0.888   0.458 -1.1261  0.9677 -0.9208
 1369SOL     OW 4684   3.744   9.837   7.732  0.0644  0.4253 -0.0654
 1369SOL    HW1 4685   3.665   9.866   7.777 -0.1157  1.8610 -1.2333
 1369SOL    HW2 4686   3.712   9.806   7.647  0.6709  0.2575 -0.2317
 1370SOL     OW 4687   2.015   8.741   9.440  0.1063 -0.7910  0.5036
 1370SOL    HW1 4688   2.010   8.646   9.438  1.2321 -0.8624  0.5301
 1370SOL    HW2 4689   2.109   8.761   9.433 -0.1848  0.3425 -0.4509
 1371SOL     OW 4690   5.759   8.177   1.966 -0.0671  0.1720 -0.3090
 1371SOL    HW1 4691   5.702   8.101   1.950 -0.2844  0.4109 -0.6699
 1371SOL    HW2 4692   5.712   8.251   1.929  0.2994  0.4369 -0.2508
 1372SOL     OW 4693   2.727   6.100   4.876 -0.4872  0.6957  0.1653
 1372SOL    HW1 4694   2.794   6.161   4.845  1.2778  0.0111  2.3435
 1372SOL    HW2 4695   2.710   6.044   4.801  1.5983  0.7671 -0.4412
 1373SOL     OW 4696   4.910   9.862   9.361  0.8734 -0.1433  0.3076
 1373SOL    HW1 4697   4.912   9.825   9.449  1.0770 -1.0655 -0.0730
 1373SOL    HW2 4698   4.863   9.945   9.370 -1.8514 -1.6225  0.7725
 1374SOL     OW 4699   9.073   7.690   2.481 -0.5348  0.3024  0.3558
 1374SOL    HW1 4700   9.098   7.603   2.514  1.6372  1.3441  1.6928
 1374SOL    HW2 4701   9.085   7.748   2.556 -0.9973  1.9220 -0.7720
 1375SOL     OW 4702   3.001   3.212   8.574  0.5879 -0.2047 -0.2506
 1375SOL    HW1 4703   3.057   3.260   8.514  0.6630 -0.2804 -0.2416
 1375SOL    HW2 4704   2.913   3.223   8.540  0.5527  0.3186  0.0059
 1376SOL     OW 4705   2.220   7.129   9.878 -0.0263 -0.0101 -0.3489
 1376SOL    HW1 4706   2.187   7.042   9.857  0.3888 -0.7358  1.7409
 1376SOL    HW2 4707   2.314   7.125   9.858  0.0953 -0.2375  0.2399
 1377SOL     OW 4708   4.478   0.725   7.186 -0.1779  0.3900 -0.1952
 1377SOL    HW1 4709   4.427   0.645   7.177  1.8972 -0.8525 -1.8523
 1377SOL    HW2 4710   4.524   0.716   7.270  0.0046 -0.1252 -0.3523
 1378SOL     OW 4711   6.185   1.703   9.874  0.2690  0.3194  0.3835
 1378SOL    HW1 4712   6.105   1.732   9.916  1.2635  1.3676  1.6501
 1378SOL    HW2 4713   6.156   1.652   9.798 -1.5841 -0.5526  1.6216
 1379SOL     OW 4714   1.591   4.797   7.458  0.1717 -0.1115  0.1251
 1379SOL    HW1 4715   1.537   4.762   7.529  0.6529  0.8803  1.0105
 1379SOL    HW2 4716   1.557   4.754   7.379 -2.2901  0.8689  0.5586
 1380SOL     OW 4717   0.784   6.022   8.158  0.2802  0.4691 -0.2254
 1380SOL    HW1 4718   0.867   6.033   8.111  1.2089  0.8015  1.4343
 1380SOL    HW2 4719   0.744   6.109   8.156  0.2128  0.4350 -0.5457
 1381SOL     OW 4720   5.420   1.076   7.788 -0.2561 -0.2622  0.1479
 1381SOL    HW1 4721   5.324   1.070   7.785 -0.1491 -2.4431 -2.2913
 1381SOL    HW2 4722   5.446   1.010   7.853 -0.3880 -0.1112  0.3544
 1382SOL     OW 4723   7.272   2.941   0.011 -0.2029 -0.3517 -0.5550
 1382SOL    HW1 4724   7.344   2.950  -0.052  1.7686  1.0237  1.7098
 1382SOL    HW2 4725   7.270   3.025   0.057 -0.5563 -1.7289  2.1395
 1383SOL     OW 4726   9.269   0.771   1.614  0.2722  0.3798 -0.1913
 1383SOL    HW1 4727   9.300   0.861   1.615  0.1603  0.4148  0.0850
 1383SOL    HW2 4728   9.234   0.759   1.526  0.6248  0.4891 -0.3511
 1384SOL     OW 4729   4.291   1.654   7.657 -0.4261 -0.3026 -0.0047
 1384SOL    HW1 4730   4.274   1.560   7.668 -0.1345 -0.4780 -0.9109
 1384SOL    HW2 4731   4.357   1.674   7.724 -0.9223 -0.6003  0.5868
 1385SOL     OW 4732   5.000   5.396   8.479  0.2120  0.1208  0.1947
 1385SOL    HW1 4733   4.978   5.357   8.564  0.9720 -0.7328  0.0211
 1385SOL    HW2 4734   4.916   5.408   8.435 -0.0688 -1.1635  0.3349
 1386SOL     OW 4735   8.048   8.483   7.437  0.2164  0.8270 -0.0309
 1386SOL    HW1 4736   8.075   8.522   7.354  1.3759 -0.9688 -0.5367
 1386SOL    HW2 4737   7.957   8.457   7.423  1.0186 -1.4481 -1.5728
 1387SOL     OW 4738   7.642   4.102   4.425 -0.1321 -0.1627  0.2068
 1387SOL    HW1 4739   7.724   4.145   4.449 -0.7030  1.2800 -0.3604
 1387SOL    HW2 4740   7.645   4.098   4.329 -1.0274  0.5069  0.1499
 1388SOL     OW 4741   2.219   1.378   9.190  0.5301  0.3673 -0.0518
 1388SOL    HW1 4742   2.250   1.288   9.193  1.0706  0.4558 -1.9248
 1388SOL    HW2 4743   2.237   1.413   9.278  0.5092 -1.2608  0.6227
 1389SOL     OW 4744   0.855   3.425   7.301 -0.3131  0.1156  0.2507
 1389SOL    HW1 4745   0.928   3.376   7.263  0.9697  1.1307  1.3231
 1389SOL    HW2 4746   0.852   3.507   7.252 -2.9661 -1.2005 -2.0801
 1390SOL     OW 4747   1.396   4.327   4.713 -0.3020  0.0467  0.1619
 1390SOL    HW1 4748   1.410   4.418   4.686  3.9142 -0.3988  0.2025
 1390SOL    HW2 4749   1.401   4.330   4.809 -1.4939 -0.1182  0.2456
 1391SOL     OW 4750   0.186   8.604   5.491  0.3018  0.2170  0.2765
 1391SOL    HW1 4751   0.158   8.640   5.575 -0.0176 -0.9443  0.6748
 1391SOL    HW2 4752   0.152   8.666   5.426 -1.4763 -0.1088  0.8560
 1392SOL     OW 4753   7.538   2.093   9.848  0.4838  0.4854 -0.7638
 1392SOL    HW1 4754   7.493   2.042   9.780  1.3584 -2.3181  0.6180
 1392SOL    HW2 4755   7.593   2.154   9.799 -2.2495  1.7763 -2.4902
 1393SOL     OW 4756   8.532   7.245   7.961 -0.0660  0.7066  1.0425
 1393SOL    HW1 4757   8.529   7.166   7.906  0.6532  0.2201  1.6651
 1393SOL    HW2 4758   8.511   7.213   8.049 -3.4289  1.8281  0.7689
 1394SOL     OW 4759   7.593   6.220   5.690  0.4807 -0.0756 -0.2568
 1394SOL    HW1 4760   7.634   6.275   5.623 -0.6197  1.4628  0.2839
 1394SOL    HW2 4761   7.541   6.157   5.640  2.2261 -1.0849 -0.9037
 1395SOL     OW 4762   5.390   6.801   4.875  0.5502  0.5738 -0.6129
 1395SOL    HW1 4763   5.403   6.795   4.781 -0.2279  0.6703 -0.7287
 1395SOL    HW2 4764   5.402   6.894   4.895 -0.8331  0.8271 -0.8636
 1396SOL     OW 4765   3.986   3.156   6.685  0.0319  0.0960  0.1011
 1396SOL    HW1 4766   3.951   3.218   6.749  1.1088 -0.4920  1.2771
 1396SOL    HW2 4767   3.984   3.205   6.602 -3.9163  0.0132 -0.0771
 1397SOL     OW 4768   8.909   2.213   9.570  0.1962  0.4502 -0.3316
 1397SOL    HW1 4769   8.822   2.216   9.531  0.3636 -1.2452 -0.9661
 1397SOL    HW2 4770   8.927   2.119   9.580  1.6308  0.7801  0.5058
 1398SOL     OW 4771   9.928   1.660   3.971  0.3602 -0.1917 -0.2753
 1398SOL    HW1 4772   9.890   1.653   3.884  1.6448 -0.9852 -0.8028
 1398SOL    HW2 4773   9.960   1.572   3.991  0.2517  0.0154  0.9299
 1399SOL     OW 4774   5.297   5.711   1.278  0.0331 -0.7049 -0.0536
 1399SOL    HW1 4775   5.295   5.776   1.348 -1.0977  0.3970 -1.0755
 1399SOL    HW2 4776   5.292   5.627   1.323 -1.8261  0.0100  1.1715
 1400SOL     OW 4777   4.685   9.491   6.784 -0.1957 -0.1546 -0.4024
 1400SOL    HW1 4778   4.614   9.491   6.848 -0.2300  0.7145 -0.4289
 1400SOL    HW2 4779   4.708   9.399   6.773  1.0530 -0.2638  2.2589
 1401SOL     OW 4780   0.717   0.502   7.619 -0.5278  0.3887  0.0703
 1401SOL    HW1 4781   0.802   0.464   7.598  0.2082  2.0291 -0.0878
 1401SOL    HW2 4782   0.732   0.597   7.619 -1.8915  0.6715  2.0600
 1402SOL     OW 4783   0.913   3.291   4.555  0.1989 -0.5415 -0.0773
 1402SOL    HW1 4784   0.932   3.362   4.617 -1.4916 -0.9127  0.9181
 1402SOL    HW2 4785   0.833   3.319   4.511  0.4221 -1.1055 -0.8453
 1403SOL     OW 4786   2.795   0.008   0.380  0.1354 -0.1459  0.5321
 1403SOL    HW1 4787   2.853   0.003   0.456 -1.9016 -2.2251  2.0989
 1403SOL    HW2 4788   2.732   0.076   0.404 -0.0335 -0.2342  0.3392
 1404SOL     OW 4789   0.358   1.778   6.483 -0.1331  0.0048 -0.1840
 1404SOL    HW1 4790   0.444   1.761   6.444  0.1300  0.6113  0.1189
 1404SOL    HW2 4791   0.358   1.872   6.500 -0.8648  0.0063 -0.1893
 1405SOL     OW 4792   9.130   6.923   5.311 -0.0581 -0.1359  0.0739
 1405SOL    HW1 4793   9.161   6.888   5.228  0.4437  0.3265  0.0566
 1405SOL    HW2 4794   9.102   7.012   5.290 -0.3750 -0.1819  0.3039
 1406SOL     OW 4795   4.480   1.736   1.625 -0.1224 -0.1125 -0.5058
 1406SOL    HW1 4796   4.517   1.672   1.565  0.2159 -0.7498  0.3545
 1406SOL    HW2 4797   4.534   1.728   1.704  0.2798  1.6120 -0.5509
 1407SOL     OW 4798   7.142   4.112   3.712  0.1904  0.1664 -0.0181
 1407SOL    HW1 4799   7.154   4.179   3.645  0.1756 -0.5872 -0.7992
 1407SOL    HW2 4800   7.181   4.033   3.673  2.3484  0.2368  1.8143
 1408SOL     OW 4801   0.230   9.096   7.998 -0.3083 -0.0675  0.3973
 1408SOL    HW1 4802   0.164   9.139   7.943  0.8724  0.7464 -0.4347
 1408SOL    HW2 4803   0.313   9.134   7.969  0.7846 -2.7109 -0.2103
 1409SOL     OW 4804   8.215   5.074   9.361  0.5179 -0.2775 -0.4037
 1409SOL    HW1 4805   8.153   5.004   9.376  0.8826 -0.5069  0.0385
 1409SOL    HW2 4806   8.270   5.076   9.439  0.2961  0.7239 -0.2542
 1410SOL     OW 4807   6.383   7.670   1.062 -1.2684 -0.2632  0.0662
 1410SOL    HW1 4808   6.380   7.654   1.157  0.6110 -0.5112  0.1382
 1410SOL    HW2 4809   6.300   7.636   1.029 -2.8241  1.5391  1.8395
 1411SOL     OW 4810   3.942   3.885   8.258 -0.4612 -0.3920 -0.6814
 1411SOL    HW1 4811   4.029   3.922   8.244 -0.8795  0.4564 -1.1409
 1411SOL    HW2 4812   3.886   3.961   8.271 -0.7082 -0.9726  2.3317
 1412SOL     OW 4813   7.094   2.177   0.355  0.0559 -0.4689  0.3470
 1412SOL    HW1 4814   7.013   2.191   0.305  0.4415 -0.0577 -0.1637
 1412SOL    HW2 4815   7.164   2.208   0.298  0.6167 -1.1866  0.6319
 1413SOL     OW 4816   7.288   0.188   1.713  0.4919  0.0406 -0.0973
 1413SOL    HW1 4817   7.315   0.113   1.660 -0.5813 -0.5880  0.2136
 1413SOL    HW2 4818   7.255   0.150   1.794 -1.4756  0.7331 -0.5289
 1414SOL     OW 4819   5.791   5.865   8.304  0.8472  0.9024  0.0798
 1414SOL    HW1 4820   5.733   5.927   8.260  0.0509  1.1736  1.4381
 1414SOL    HW2 4821   5.834   5.816   8.233  0.9051  2.4599 -0.9950
 1415SOL     OW 4822   0.210   9.888   0.354  0.5317  0.2664 -0.2850
 1415SOL    HW1 4823   0.194   9.844   0.270  2.2226  0.7327 -0.8903
 1415SOL    HW2 4824   0.297   9.858   0.380  0.5238  1.0746  0.7203
 1416SOL     OW 4825   5.833   0.401   8.685  0.4864 -0.1214  0.2046
 1416SOL    HW1 4826   5.798   0.432   8.601  2.0190  2.7694  0.4916
 1416SOL    HW2 4827   5.755   0.387   8.739 -0.4921 -1.2347 -1.3801
 1417SOL     OW 4828   7.718   9.628   5.095 -0.1231  0.2120 -0.6298
 1417SOL    HW1 4829   7.736   9.714   5.134 -0.6248  0.8128 -1.6661
 1417SOL    HW2 4830   7.798   9.578   5.109  1.3952  1.8764 -2.6624
 1418SOL     OW 4831   3.985   3.870   3.152 -0.0826  0.1177 -0.1541
 1418SOL    HW1 4832   4.065   3.903   3.110  1.2907 -0.3673  1.9096
 1418SOL    HW2 4833   3.958   3.796   3.098 -0.3056  1.4805 -1.9922
 1419SOL     OW 4834   4.237   2.127   3.567 -0.5277  0.2815  0.6587
 1419SOL    HW1 4835   4.274   2.181   3.637 -0.0281  1.7478 -0.6792
 1419SOL    HW2 4836   4.173   2.184   3.524 -0.4166 -0.3911 -0.4345
 1420SOL     OW 4837   1.556   4.873   3.600 -0.0874 -0.0759 -0.1995
 1420SOL    HW1 4838   1.470   4.832   3.609  1.1858 -2.5258  1.8942
 1420SOL    HW2 4839   1.599   4.823   3.530 -0.7338  2.0722 -2.2883
 1421SOL     OW 4840   3.507   5.317   5.829  0.2488 -0.0503 -0.2590
 1421SOL    HW1 4841   3.449   5.329   5.905 -0.5642 -0.7279 -0.7675
 1421SOL    HW2 4842   3.595   5.317   5.867 -0.1679 -0.9205  0.7719
 1422SOL     OW 4843   0.872   3.223   2.813 -0.6636 -0.1495  0.6531
 1422SOL    HW1 4844   0.965   3.243   2.823 -0.6884  0.4518 -0.2069
 1422SOL    HW2 4845   0.870   3.144   2.759 -0.6577  0.2494  0.0593
 1423SOL     OW 4846   9.397   5.446   9.131 -0.3238 -0.1947 -0.2457
 1423SOL    HW1 4847   9.391   5.489   9.217  0.3934 -1.0967  0.2745
 1423SOL    HW2 4848   9.307   5.446   9.098 -0.5906  0.2597  0.4629
 1424SOL     OW 4849   8.417   9.031   4.261 -0.4154  0.1546 -0.4660
 1424SOL    HW1 4850   8.460   8.945   4.265 -1.1917 -0.1919  1.2663
 1424SOL    HW2 4851   8.463   9.084   4.325 -0.1063  0.9838 -1.3527
 1425SOL     OW 4852   2.424   5.728   8.336  0.3539 -0.4414  0.0304
 1425SOL    HW1 4853   2.501   5.759   8.287  0.0757 -0.5471 -0.4713
 1425SOL    HW2 4854   2.446   5.638   8.361  0.4016 -0.4643 -0.0945
 1426SOL     OW 4855   1.445   9.814   9.053 -0.0643 -0.3155  0.1435
 1426SOL    HW1 4856   1.500   9.847   8.982  0.2336 -1.2404 -0.0649
 1426SOL    HW2 4857   1.409   9.893   9.094 -0.6104  0.2114 -1.3166
 1427SOL     OW 4858   8.416   1.147   4.347  0.3986  0.3758  0.9667
 1427SOL    HW1 4859   8.414   1.218   4.283  0.5055  1.3584  2.0459
 1427SOL    HW2 4860   8.338   1.095   4.327  0.6053  0.4734 -0.1666
 1428SOL     OW 4861   9.251   3.332   1.612 -0.6849 -0.3417 -0.0403
 1428SOL    HW1 4862   9.251   3.398   1.681 -1.5680 -0.4383  0.0647
 1428SOL    HW2 4863   9.194   3.367   1.544 -0.6428 -0.7060 -0.2679
 1429SOL     OW 4864   0.617   3.273   6.986  0.3591  0.3604 -0.2592
 1429SOL    HW1 4865   0.691   3.216   6.967 -0.2686 -1.2557  1.7877
 1429SOL    HW2 4866   0.579   3.238   7.067 -2.3566  1.4004 -0.9437
 1430SOL     OW 4867   9.444   3.241   1.422  0.1451  0.0857 -0.2958
 1430SOL    HW1 4868   9.402   3.290   1.492  0.4265  0.7057 -0.5455
 1430SOL    HW2 4869   9.372   3.211   1.367  0.0291  2.2141 -1.4276
 1431SOL     OW 4870   9.675   5.025   9.046  0.0998  0.1221  0.0861
 1431SOL    HW1 4871   9.587   5.062   9.055  0.6862  2.2087 -1.6770
 1431SOL    HW2 4872   9.706   5.060   8.963  2.4577 -0.8894  0.4829
 1432SOL     OW 4873   7.582   8.030   0.369  0.3161  0.6698  0.0041
 1432SOL    HW1 4874   7.504   8.083   0.384 -1.2178 -1.2834 -0.5693
 1432SOL    HW2 4875   7.586   8.020   0.273  1.0752  0.4420  0.0532
 1433SOL     OW 4876   8.367   5.172   8.495 -0.0380 -0.3615  0.0176
 1433SOL    HW1 4877   8.374   5.208   8.407  0.4545 -0.2142  0.1130
 1433SOL    HW2 4878   8.310   5.095   8.486  0.4222 -0.6453 -0.5213
 1434SOL     OW 4879   0.747   2.613   6.308  0.1161  0.0312 -0.2808
 1434SOL    HW1 4880   0.772   2.700   6.278  0.1289 -0.2182 -1.0388
 1434SOL    HW2 4881   0.796   2.600   6.389  1.0552  0.2558 -0.8005
 1435SOL     OW 4882   5.588   5.551   1.172  0.1999 -0.1008 -0.3867
 1435SOL    HW1 4883   5.528   5.510   1.110 -0.7927  0.6944  0.0280
 1435SOL    HW2 4884   5.568   5.509   1.256 -0.7685  1.1101  0.0259
 1436SOL     OW 4885   5.511   7.321   3.491 -0.2928  0.1678  0.1714
 1436SOL    HW1 4886   5.443   7.350   3.430 -1.4564  0.9204  1.7554
 1436SOL    HW2 4887   5.593   7.342   3.447 -1.0917  1.9300 -0.5760
 1437SOL     OW 4888   4.405   7.641   2.757  0.5000  0.1975  0.5474
 1437SOL    HW1 4889   4.470   7.600   2.700 -0.6212 -1.0821  0.1264
 1437SOL    HW2 4890   4.323   7.636   2.708  0.2597  2.9988  0.4844
 1438SOL     OW 4891   8.193   1.099   2.541  0.3205 -0.7981 -0.3039
 1438SOL    HW1 4892   8.109   1.055   2.529 -0.0077  0.1485 -1.7814
 1438SOL    HW2 4893   8.174   1.192   2.524  1.2480 -0.2360  1.4310
 1439SOL     OW 4894   2.697   6.820   5.956  0.6881 -1.1350  0.5165
 1439SOL    HW1 4895   2.723   6.908   5.982 -0.4699 -0.4503 -0.5397
 1439SOL    HW2 4896   2.778   6.769   5.961  1.4142  0.0228  0.9792
 1440SOL     OW 4897   2.949   9.681   5.941  0.2160 -0.4171  0.0112
 1440SOL    HW1 4898   2.880   9.680   5.875  1.5792 -0.7110 -1.4725
 1440SOL    HW2 4899   2.910   9.724   6.017 -1.2679  0.3213 -1.1329
 1441SOL     OW 4900   6.981   8.720   8.939  0.4343  0.5070  0.0400
 1441SOL    HW1 4901   7.009   8.811   8.941  0.9592  0.3409  1.4547
 1441SOL    HW2 4902   6.936   8.707   9.023  1.0671 -0.7415  0.2020
 1442SOL     OW 4903   4.837   9.648   3.134  0.3010 -0.1875  0.2169
 1442SOL    HW1 4904   4.753   9.614   3.165 -0.2349  1.0041  0.1383
 1442SOL    HW2 4905   4.835   9.635   3.039 -1.2463  2.7048 -0.2689
 1443SOL     OW 4906   1.378   4.277   8.873  0.5936  0.3636  0.7645
 1443SOL    HW1 4907   1.406   4.233   8.953  2.2555 -0.8688 -0.4285
 1443SOL    HW2 4908   1.296   4.321   8.898  0.3290 -1.0895  2.7705
 1444SOL     OW 4909   9.336   8.859   0.381 -0.2869  0.0182 -0.4561
 1444SOL    HW1 4910   9.346   8.951   0.408  1.7893 -0.1833 -0.4053
 1444SOL    HW2 4911   9.369   8.809   0.455  0.4154 -0.7003 -1.2319
 1445SOL     OW 4912   9.003   8.936   6.456 -0.0436  0.3593  0.2160
 1445SOL    HW1 4913   8.985   8.874   6.386 -1.0584  0.7305  0.1436
 1445SOL    HW2 4914   9.039   8.882   6.527 -1.4777 -0.4252  0.3804
 1446SOL     OW 4915   1.778   9.886   0.258  0.7165 -0.3523 -0.0450
 1446SOL    HW1 4916   1.687   9.896   0.230  0.7978  1.2857  0.1805
 1446SOL    HW2 4917   1.830   9.910   0.181  0.9662 -0.3264  0.1302
 1447SOL     OW 4918   8.469   1.894   0.758  0.3380 -0.7367  0.6122
 1447SOL    HW1 4919   8.423   1.814   0.785 -0.8060 -0.5234 -0.6137
 1447SOL    HW2 4920   8.522   1.867   0.683 -1.8030  0.0606 -1.2933
 1448SOL     OW 4921   2.894   6.141   3.868 -0.3030  0.0589  0.1616
 1448SOL    HW1 4922   2.861   6.051   3.874 -0.4784  0.1024 -0.1448
 1448SOL    HW2 4923   2.987   6.131   3.847 -0.2048 -0.0581  0.6485
 1449SOL     OW 4924   5.981   3.218   9.517  0.1234  0.2388 -0.6792
 1449SOL    HW1 4925   6.008   3.128   9.499  1.8647  0.6366 -0.2784
 1449SOL    HW2 4926   6.061   3.270   9.507 -0.5104  1.5390  0.5396
 1450SOL     OW 4927   4.439   0.575   7.789  0.2945  0.9810 -0.7169
 1450SOL    HW1 4928   4.344   0.583   7.780  0.1014 -0.4155 -0.2015
 1450SOL    HW2 4929   4.471   0.564   7.700 -0.1667  0.2709 -0.8026
 1451SOL     OW 4930   3.291   7.461   4.330 -0.1709 -0.1773 -0.4771
 1451SOL    HW1 4931   3.371   7.504   4.301  0.0835  0.2526  0.7688
 1451SOL    HW2 4932   3.286   7.381   4.278  1.9851 -1.0647  0.5518
 1452SOL     OW 4933   2.005   2.906   8.546  0.4062 -0.0202  0.1069
 1452SOL    HW1 4934   2.003   2.813   8.524 -0.6116 -0.0866  0.4260
 1452SOL    HW2 4935   1.920   2.939   8.518  0.7264  0.8052  0.0709
 1453SOL     OW 4936   5.811   0.448   1.004  0.1636 -0.0106 -0.2466
 1453SOL    HW1 4937   5.724   0.465   1.040  0.6051  0.0799  0.8113
 1453SOL    HW2 4938   5.797   0.379   0.939 -0.8620  0.8016 -0.9075
 1454SOL     OW 4939   8.986   6.614   1.817 -0.1851  0.1853  0.1826
 1454SOL    HW1 4940   8.968   6.641   1.907 -2.6065 -0.7275  0.0522
 1454SOL    HW2 4941   9.080   6.594   1.816  0.0852  1.1177  2.2339
 1455SOL     OW 4942   3.278   5.540   4.110  0.1514 -0.3429 -0.1355
 1455SOL    HW1 4943   3.365   5.534   4.148  0.7191 -0.4742 -1.3982
 1455SOL    HW2 4944   3.292   5.525   4.017 -1.1939 -0.1178 -0.3911
 1456SOL     OW 4945   5.340   3.466   5.707 -0.1247  0.0102 -0.7392
 1456SOL    HW1 4946   5.264   3.440   5.758  0.0399  0.8882 -0.0191
 1456SOL    HW2 4947   5.397   3.510   5.770  0.1113  1.0638 -1.6551
 1457SOL     OW 4948   3.833   6.080   8.403 -0.4192 -0.2789 -0.5233
 1457SOL    HW1 4949   3.927   6.069   8.415 -0.4454  0.2477  0.2246
 1457SOL    HW2 4950   3.801   5.992   8.381  0.2258 -0.4836 -0.6592
 1458SOL     OW 4951   4.842   8.389   1.912 -0.3317 -0.4511  0.0320
 1458SOL    HW1 4952   4.918   8.398   1.855 -0.5369  0.5135 -0.0948
 1458SOL    HW2 4953   4.880   8.365   1.997  0.0479 -0.8490 -0.2449
 1459SOL     OW 4954   5.846   0.124   7.665 -0.2082  0.6050  1.0599
 1459SOL    HW1 4955   5.772   0.067   7.687  0.2529  0.2033  1.6093
 1459SOL    HW2 4956   5.915   0.097   7.725  1.4205 -1.1272 -1.4143
 1460SOL     OW 4957   8.432   2.015   7.963 -0.6636  0.2100  0.1042
 1460SOL    HW1 4958   8.411   2.109   7.957 -0.9740  0.1329 -0.0530
 1460SOL    HW2 4959   8.522   2.009   7.930 -0.1332  0.6360  1.4282
 1461SOL     OW 4960   3.633   0.193   7.862 -0.2341 -0.7194 -0.0840
 1461SOL    HW1 4961   3.582   0.257   7.813 -0.3232 -0.3558  0.4845
 1461SOL    HW2 4962   3.571   0.155   7.924  0.3506  0.2699  1.1411
 1462SOL     OW 4963   1.030   3.299   1.533  0.4372  0.2156  0.5102
 1462SOL    HW1 4964   0.965   3.299   1.604 -0.1387 -0.7576  0.0126
 1462SOL    HW2 4965   1.114   3.312   1.577  0.1368 -0.7730  1.4191
 1463SOL     OW 4966   3.264   8.339   5.583 -0.3762 -0.3818  0.1413
 1463SOL    HW1 4967   3.270   8.267   5.520 -0.8407  0.3785 -0.8151
 1463SOL    HW2 4968   3.200   8.399   5.544 -1.3475 -0.2942  1.7801
 1464SOL     OW 4969   1.799   0.180   4.683  0.1266  0.2293  0.1713
 1464SOL    HW1 4970   1.870   0.116   4.679 -0.6305 -0.7193  1.1140
 1464SOL    HW2 4971   1.726   0.138   4.637 -0.2303  0.6230  0.3699
 1465SOL     OW 4972   5.974   8.492   0.022 -0.0030 -0.1572  0.5584
 1465SOL    HW1 4973   5.885   8.463   0.004 -0.5690  1.3399  0.7629
 1465SOL    HW2 4974   6.002   8.438   0.095 -0.7702 -0.6069  0.5347
 1466SOL     OW 4975   7.729   1.420   4.321 -0.2384 -0.4861  0.3755
 1466SOL    HW1 4976   7.657   1.406   4.383  0.3294 -1.1227  0.9001
 1466SOL    HW2 4977   7.725   1.345   4.262  0.3166 -0.8049  0.7320
 1467SOL     OW 4978   4.127   9.621   0.591 -0.3859  0.5079 -0.3249
 1467SOL    HW1 4979   4.093   9.670   0.665 -0.3137 -0.7191  0.5459
 1467SOL    HW2 4980   4.211   9.586   0.621  1.5573  3.1138 -2.2748
 1468SOL     OW 4981   9.356   0.308   0.440 -0.1140  0.3566  0.1000
 1468SOL    HW1 4982   9.313   0.321   0.356  0.1395  0.0363 -0.0820
 1468SOL    HW2 4983   9.332   0.385   0.492 -0.8102  0.2429 -0.0371
 1469SOL     OW 4984   3.446   6.313   2.211 -0.1451 -0.0051  0.2082
 1469SOL    HW1 4985   3.431   6.367   2.289  0.2219  0.7979 -0.2611
 1469SOL    HW2 4986   3.411   6.227   2.234 -1.0995  0.5319  0.8328
 1470SOL     OW 4987   8.813   9.035   2.783 -0.4338  0.1198 -0.0635
 1470SOL    HW1 4988   8.894   9.071   2.748 -0.4173 -0.3669 -0.5301
 1470SOL    HW2 4989   8.799   8.954   2.735 -0.6814 -0.3023  0.6886
 1471SOL     OW 4990   3.906   0.846   8.298 -0.0906 -0.2061 -0.3011
 1471SOL    HW1 4991   3.891   0.861   8.205 -1.9478 -1.6241 -0.2918
 1471SOL    HW2 4992   3.905   0.933   8.337  0.1020  0.3600 -1.5273
 1472SOL     OW 4993   0.313   3.958   7.365 -0.1766 -0.4336  0.2753
 1472SOL    HW1 4994   0.249   3.891   7.388 -0.2173 -0.5243 -0.0984
 1472SOL    HW2 4995   0.262   4.026   7.321 -0.3400  0.4099  1.7097
 1473SOL     OW 4996   6.116   2.309   9.040 -0.1698 -0.0737 -0.1855
 1473SOL    HW1 4997   6.193   2.254   9.058 -1.2533 -2.0777 -1.2874
 1473SOL    HW2 4998   6.127   2.385   9.097  1.7384 -1.1299  0.9765
 1474SOL     OW 4999   9.153   0.072   5.792  0.6739 -0.8408 -0.0024
 1474SOL    HW1 5000   9.066   0.034   5.782  0.4899 -0.0338 -1.9094
 1474SOL    HW2 5001   9.182   0.042   5.879 -0.8536 -2.3856  0.0446
 1475SOL     OW 5002   2.592   3.540   1.934  0.1221  0.3755 -1.0752
 1475SOL    HW1 5003   2.585   3.525   2.028  1.4339 -0.8541 -1.1278
 1475SOL    HW2 5004   2.566   3.457   1.894  1.8809  0.0515 -1.6614
 1476SOL     OW 5005   2.997   0.901   7.432 -0.2346  0.3524 -0.5729
 1476SOL    HW1 5006   2.933   0.960   7.393 -0.1580  2.1334  1.7422
 1476SOL    HW2 5007   2.952   0.863   7.508  1.4163  1.8942  1.3035
 1477SOL     OW 5008   5.487   5.984   9.367  0.2213 -0.0331  0.2573
 1477SOL    HW1 5009   5.541   5.924   9.316  1.4034  3.0703 -2.5463
 1477SOL    HW2 5010   5.405   5.992   9.318  0.0948  0.6452  0.5531
 1478SOL     OW 5011   5.654   4.148   6.020 -0.1329 -0.5434 -0.0865
 1478SOL    HW1 5012   5.727   4.157   6.082  1.4977 -2.4526 -1.6010
 1478SOL    HW2 5013   5.658   4.228   5.968  0.0631 -0.0515  0.6639
 1479SOL     OW 5014   0.417   7.997   1.658 -0.2304 -0.2941  0.5148
 1479SOL    HW1 5015   0.451   8.050   1.730 -1.5130 -0.9998  1.6921
 1479SOL    HW2 5016   0.429   8.052   1.580  0.1583  0.9603  1.4227
 1480SOL     OW 5017   9.704   7.820   5.041  0.0865  0.4548  0.2580
 1480SOL    HW1 5018   9.783   7.805   4.988 -0.2985 -1.3172  0.1111
 1480SOL    HW2 5019   9.730   7.887   5.104  1.4301  0.5583 -0.3681
 1481SOL     OW 5020   2.817   0.639   2.005 -0.4300 -0.2467  0.5721
 1481SOL    HW1 5021   2.822   0.585   2.084  0.6152  1.0431  1.4173
 1481SOL    HW2 5022   2.753   0.707   2.026  1.8471  1.7801  1.4425
 1482SOL     OW 5023   7.176   0.202   2.458 -0.4655  0.0312 -1.0224
 1482SOL    HW1 5024   7.129   0.265   2.404  1.3314  2.8985  0.5426
 1482SOL    HW2 5025   7.199   0.131   2.398 -0.6281  1.8896 -3.4059
 1483SOL     OW 5026   6.539   4.661   4.665  0.4691 -0.3755 -0.0115
 1483SOL    HW1 5027   6.540   4.747   4.706  1.0623 -1.1709  1.7558
 1483SOL    HW2 5028   6.461   4.619   4.700 -0.6252 -0.0931 -1.9815
 1484SOL     OW 5029   6.078   3.833   6.751 -0.4385  0.1812  0.0173
 1484SOL    HW1 5030   6.167   3.852   6.780 -0.7040  1.6969 -0.0755
 1484SOL    HW2 5031   6.079   3.740   6.729  1.5937  0.5093 -1.6005
 1485SOL     OW 5032   0.279   4.674   9.852  0.5808  0.3101  0.6490
 1485SOL    HW1 5033   0.192   4.714   9.844 -0.2034 -0.8251  2.8453
 1485SOL    HW2 5034   0.311   4.705   9.937  2.0336  0.1382  0.1778
 1486SOL     OW 5035   4.515   5.448   5.414 -0.2961 -0.2175 -0.7321
 1486SOL    HW1 5036   4.474   5.383   5.356 -1.7159  1.1429 -1.3297
 1486SOL    HW2 5037   4.495   5.532   5.373  2.4456  0.5985 -0.5834
 1487SOL     OW 5038   4.278   1.835   3.104 -0.4110  0.2963  0.4929
 1487SOL    HW1 5039   4.223   1.863   3.177 -1.0560  1.0562 -0.2659
 1487SOL    HW2 5040   4.360   1.882   3.117  0.3574 -1.3631  2.0098
 1488SOL     OW 5041   9.773   4.393   0.422  0.8015  0.0871 -0.5738
 1488SOL    HW1 5042   9.808   4.308   0.448 -1.6464 -0.2453  2.2384
 1488SOL    HW2 5043   9.834   4.425   0.356  2.9484 -2.9220 -0.2685
 1489SOL     OW 5044   5.552   2.122   0.157  0.0748 -0.1830 -0.4902
 1489SOL    HW1 5045   5.528   2.061   0.227  0.0560  0.6786  0.2699
 1489SOL    HW2 5046   5.622   2.175   0.194  0.1556  0.1939 -1.1733
 1490SOL     OW 5047   0.874   0.583   2.738 -0.2975 -0.9527  0.2256
 1490SOL    HW1 5048   0.920   0.500   2.747 -1.0092 -1.4108 -0.2233
 1490SOL    HW2 5049   0.829   0.575   2.654  0.5928  0.3695 -0.4071
 1491SOL     OW 5050   5.610   2.437   4.475 -0.2160 -0.2237 -0.4536
 1491SOL    HW1 5051   5.630   2.348   4.502 -0.8769  0.3223  2.1192
 1491SOL    HW2 5052   5.695   2.477   4.458  0.4152 -0.3255  2.0647
 1492SOL     OW 5053   5.823   6.155   8.512 -0.4526  0.1832  0.0418
 1492SOL    HW1 5054   5.793   6.240   8.544 -0.5995  0.3854 -0.6266
 1492SOL    HW2 5055   5.830   6.101   8.591 -2.2713  0.2182  0.2760
 1493SOL     OW 5056   0.411   9.052   6.809  0.2194  0.1218  0.6322
 1493SOL    HW1 5057   0.338   8.991   6.813  0.5178 -0.3440 -0.7239
 1493SOL    HW2 5058   0.370   9.137   6.795 -0.0659 -0.2165 -0.7450
 1494SOL     OW 5059   9.446   1.014   4.553 -0.1765  0.6099  0.4385
 1494SOL    HW1 5060   9.522   0.961   4.577 -0.4322 -0.1005 -0.2765
 1494SOL    HW2 5061   9.479   1.104   4.549  0.2489  0.5318  1.7399
 1495SOL     OW 5062   7.380   3.545   9.287  0.0243 -0.4104 -0.1385
 1495SOL    HW1 5063   7.374   3.589   9.203 -1.1845  0.7126  0.5028
 1495SOL    HW2 5064   7.412   3.612   9.347 -0.3972 -0.8168  0.5535
 1496SOL     OW 5065   8.042   5.698   6.880  0.0602 -0.3867  0.1874
 1496SOL    HW1 5066   8.003   5.785   6.875 -1.1164 -0.8562  0.8341
 1496SOL    HW2 5067   8.115   5.700   6.818 -0.0640  0.9939  0.0683
 1497SOL     OW 5068   7.614   5.138   0.727  0.3477 -0.3492 -0.1926
 1497SOL    HW1 5069   7.612   5.213   0.786 -1.3983  0.6166 -1.3702
 1497SOL    HW2 5070   7.638   5.064   0.782 -0.4084  0.6407  1.5449
 1498SOL     OW 5071   0.744   9.017   8.905 -0.3448  0.2524 -0.3188
 1498SOL    HW1 5072   0.789   9.023   8.989 -0.9852 -0.8763  0.1263
 1498SOL    HW2 5073   0.687   8.940   8.914 -2.1940  1.4756 -0.9193
 1499SOL     OW 5074   8.787   4.609   0.046  0.0156 -0.0941  0.2257
 1499SOL    HW1 5075   8.694   4.623   0.030  0.3771  1.6251 -0.5373
 1499SOL    HW2 5076   8.811   4.537  -0.013 -0.7291 -0.2767  0.1343
 1500SOL     OW 5077   7.663   9.006   6.305  0.2948  0.5281 -0.6567
 1500SOL    HW1 5078   7.622   9.027   6.389  1.3014  0.6011 -0.1670
 1500SOL    HW2 5079   7.680   8.911   6.310  0.0368  0.4646 -0.9296
 1501SOL     OW 5080   4.924   1.563   6.118 -0.1885 -0.0287 -0.4955
 1501SOL    HW1 5081   4.873   1.495   6.162 -2.0541  0.3360 -1.9542
 1501SOL    HW2 5082   4.948   1.524   6.033  1.7937 -0.0850  0.0343
 1502SOL     OW 5083   6.419   4.886   1.445 -0.0117  0.1309  0.2042
 1502SOL    HW1 5084   6.399   4.867   1.354  0.5734  2.0960 -0.3952
 1502SOL    HW2 5085   6.334   4.893   1.488 -0.2838 -1.0441 -0.1232
 1503SOL     OW 5086   9.171   1.108   0.599 -0.0647  0.6515  0.2701
 1503SOL    HW1 5087   9.207   1.145   0.518  0.1775  0.7221  0.4091
 1503SOL    HW2 5088   9.111   1.175   0.631 -1.0023  0.1640 -0.4275
 1504SOL     OW 5089   3.566   6.061   8.889 -0.6903  0.0790  0.0747
 1504SOL    HW1 5090   3.533   5.994   8.829  0.4425  0.3035 -0.8402
 1504SOL    HW2 5091   3.620   6.118   8.834  1.4415 -0.4343  1.5049
 1505SOL     OW 5092   8.417   8.157   5.791  0.2708 -0.2282 -0.4186
 1505SOL    HW1 5093   8.388   8.162   5.882 -0.3499 -0.2218 -0.6142
 1505SOL    HW2 5094   8.394   8.068   5.763 -0.1551 -0.0068 -0.7740
 1506SOL     OW 5095   2.227   4.885   8.286 -0.2837  0.6166  0.4807
 1506SOL    HW1 5096   2.251   4.841   8.368  1.5438 -0.9471 -0.7970
 1506SOL    HW2 5097   2.174   4.820   8.239 -0.6789  1.2030  0.1088
 1507SOL     OW 5098   2.122   3.706   7.107 -0.4883 -0.4395  0.1315
 1507SOL    HW1 5099   2.098   3.649   7.033 -1.1453  0.8024 -0.6528
 1507SOL    HW2 5100   2.200   3.665   7.144  0.5128 -0.5491 -1.9316
 1508SOL     OW 5101   2.037   0.138   5.097  0.0162  0.7803 -0.4364
 1508SOL    HW1 5102   1.960   0.125   5.043 -0.0915  0.8008 -0.2879
 1508SOL    HW2 5103   2.067   0.226   5.074  0.8210  0.2526 -1.5367
 1509SOL     OW 5104   1.427   6.457   5.493 -0.0265  0.7775 -0.5633
 1509SOL    HW1 5105   1.362   6.394   5.526 -1.7713  3.1430  0.8244
 1509SOL    HW2 5106   1.496   6.456   5.559 -0.3993  0.8210 -0.1664
 1510SOL     OW 5107   7.318   4.271   6.530 -0.4158  0.1737  0.1886
 1510SOL    HW1 5108   7.411   4.292   6.519 -0.1882  0.0111  1.5242
 1510SOL    HW2 5109   7.272   4.338   6.480  0.4240  0.4283 -0.2589
 1511SOL     OW 5110   4.684   1.981   0.385 -0.2950  0.1853 -0.3117
 1511SOL    HW1 5111   4.741   1.993   0.462 -1.4130  1.4280  0.3762
 1511SOL    HW2 5112   4.652   2.070   0.366 -1.1464 -0.3264 -1.3316
 1512SOL     OW 5113   7.305   6.301   7.887  0.2323  0.5098  0.9327
 1512SOL    HW1 5114   7.303   6.237   7.958  2.4764 -0.9194 -0.1858
 1512SOL    HW2 5115   7.257   6.260   7.816  1.3004  0.2217  0.3592
 1513SOL     OW 5116   0.464   6.529   3.180  0.4581 -0.2803  0.4074
 1513SOL    HW1 5117   0.411   6.502   3.254 -0.4375  0.1227 -0.0676
 1513SOL    HW2 5118   0.401   6.543   3.109  1.1052  0.9428  0.0383
 1514SOL     OW 5119   2.058   3.679   4.897 -0.1526  0.1120  0.7858
 1514SOL    HW1 5120   2.054   3.770   4.868 -2.3586 -0.2834 -0.3233
 1514SOL    HW2 5121   2.019   3.680   4.984  0.1406  0.2481  0.9199
 1515SOL     OW 5122   7.122   5.817   3.274 -0.1808  0.2607 -0.1299
 1515SOL    HW1 5123   7.165   5.741   3.313  0.7484  0.5172 -0.6102
 1515SOL    HW2 5124   7.183   5.846   3.206 -1.5683  0.0495 -1.5164
 1516SOL     OW 5125   7.643   0.137   5.613 -0.1151 -0.1083 -0.7865
 1516SOL    HW1 5126   7.719   0.101   5.659 -0.0773 -0.6725 -1.2683
 1516SOL    HW2 5127   7.583   0.063   5.605 -0.2486  0.0592 -1.3619
 1517SOL     OW 5128   6.979   0.867   6.346  0.1412  0.3675  0.0830
 1517SOL    HW1 5129   7.074   0.871   6.351  0.2038 -0.1114 -0.5716
 1517SOL    HW2 5130   6.961   0.801   6.279 -0.6483  0.8596 -0.2002
 1518SOL     OW 5131   0.453   5.664   9.131  0.2819 -0.2079 -0.1519
 1518SOL    HW1 5132   0.495   5.694   9.212  0.0171  0.1189 -0.1358
 1518SOL    HW2 5133   0.526   5.633   9.077  0.2583 -3.3879  1.3914
 1519SOL     OW 5134   9.183   8.339   8.097 -0.1638 -0.3070  0.5610
 1519SOL    HW1 5135   9.162   8.384   8.016  0.3976 -1.8173 -0.4631
 1519SOL    HW2 5136   9.162   8.402   8.166 -1.5926  0.6605 -0.6953
 1520SOL     OW 5137   9.176   5.113   7.679  0.2418 -0.3100  0.3175
 1520SOL    HW1 5138   9.211   5.189   7.727  0.0013  0.1818 -0.2657
 1520SOL    HW2 5139   9.232   5.040   7.707  1.8876  0.4837 -0.7124
 1521SOL     OW 5140   7.114   4.419   6.438  0.1925 -0.1470  0.1968
 1521SOL    HW1 5141   7.020   4.414   6.457  0.0498  0.3121 -0.3647
 1521SOL    HW2 5142   7.131   4.513   6.429  0.7246 -0.2239  0.3756
 1522SOL     OW 5143   9.917   2.418   3.116 -0.0880  0.3802  0.4569
 1522SOL    HW1 5144   9.870   2.349   3.162  0.4194  0.3488  0.9280
 1522SOL    HW2 5145   9.910   2.494   3.174 -1.1259  0.8965 -0.3065
 1523SOL     OW 5146   1.543   6.597   6.115  0.3718  0.2567 -0.6571
 1523SOL    HW1 5147   1.637   6.611   6.106  0.7862 -0.2287  2.0633
 1523SOL    HW2 5148   1.523   6.526   6.054  1.9008 -0.0731 -0.7964
 1524SOL     OW 5149   2.979   9.761   4.665  0.4089 -0.2278 -0.5598
 1524SOL    HW1 5150   2.966   9.698   4.735  1.7398  0.3445  0.2331
 1524SOL    HW2 5151   3.069   9.792   4.676 -0.5791  2.8097 -0.0554
 1525SOL     OW 5152   8.571   6.583   9.567  0.2147 -0.5290  0.2473
 1525SOL    HW1 5153   8.590   6.568   9.659 -0.7583  1.8524  0.9195
 1525SOL    HW2 5154   8.477   6.566   9.559  0.1266  0.0846 -0.0930
 1526SOL     OW 5155   8.980   1.666   9.406 -0.0739 -0.5037  0.4233
 1526SOL    HW1 5156   9.037   1.616   9.464  0.4659 -1.1233 -0.6015
 1526SOL    HW2 5157   8.905   1.607   9.390 -0.1757 -0.3738  0.4180
 1527SOL     OW 5158   8.287   2.873   5.114 -0.2513 -0.4852  0.2920
 1527SOL    HW1 5159   8.376   2.873   5.148 -1.1119  0.8054  2.7847
 1527SOL    HW2 5160   8.286   2.943   5.049  0.5398 -0.4380  0.3233
 1528SOL     OW 5161   3.238   9.650   7.894  0.5596  0.3783 -0.1573
 1528SOL    HW1 5162   3.277   9.594   7.826 -0.4723 -0.1133 -0.3689
 1528SOL    HW2 5163   3.154   9.677   7.857  0.6168  1.2817  0.3559
 1529SOL     OW 5164   9.807   8.344   9.025  0.1058  0.4698 -0.3604
 1529SOL    HW1 5165   9.797   8.256   8.988 -1.0472 -0.2152  1.4417
 1529SOL    HW2 5166   9.900   8.364   9.013  0.4993 -1.1894 -0.3975
 1530SOL     OW 5167   0.428   1.260   6.226 -0.0190  0.2157  0.0965
 1530SOL    HW1 5168   0.395   1.286   6.140 -0.5850  1.1758  0.5872
 1530SOL    HW2 5169   0.477   1.179   6.210 -0.3977  0.2040 -1.0697
 1531SOL     OW 5170   1.581   0.049   4.532  0.4516 -0.0698  0.0326
 1531SOL    HW1 5171   1.648   0.077   4.469 -2.3599  2.8178 -1.9121
 1531SOL    HW2 5172   1.499   0.051   4.483 -1.5584 -0.3155  3.1294
 1532SOL     OW 5173   8.261   0.074   7.353 -0.0954  0.1407 -0.1560
 1532SOL    HW1 5174   8.174   0.036   7.366 -0.0605  0.6246  1.6907
 1532SOL    HW2 5175   8.320  -0.001   7.355 -0.4115 -0.1398 -0.9420
 1533SOL     OW 5176   2.854   8.465   5.324 -0.8012  0.0048  0.0322
 1533SOL    HW1 5177   2.819   8.380   5.350  1.1808 -1.0769 -0.6362
 1533SOL    HW2 5178   2.836   8.471   5.230  0.8976 -0.6776 -0.3758
 1534SOL     OW 5179   0.218   5.257   4.526  0.0032 -0.1819 -0.2642
 1534SOL    HW1 5180   0.182   5.336   4.488  2.4221  0.3626 -1.6207
 1534SOL    HW2 5181   0.186   5.186   4.470 -0.3060  0.0877 -0.4285
 1535SOL     OW 5182   0.699   0.132   1.782 -0.4032  0.4328  0.4014
 1535SOL    HW1 5183   0.663   0.206   1.733  0.3495  0.9793  0.6432
 1535SOL    HW2 5184   0.743   0.078   1.715 -2.9487 -1.1024 -0.1517
 1536SOL     OW 5185   4.105   7.670   8.771  0.3672 -0.3349  0.6088
 1536SOL    HW1 5186   4.065   7.731   8.832 -1.8496 -1.1937  0.0963
 1536SOL    HW2 5187   4.095   7.584   8.811 -0.8086 -0.8706 -0.7542
 1537SOL     OW 5188   4.942   5.380   0.625 -0.0514  0.1044 -0.2152
 1537SOL    HW1 5189   4.938   5.286   0.642 -1.7146 -0.0121 -1.0666
 1537SOL    HW2 5190   5.010   5.390   0.559 -0.1097 -0.5425 -0.3761
 1538SOL     OW 5191   6.527   7.796   9.472 -0.6377 -0.0863  0.0965
 1538SOL    HW1 5192   6.600   7.786   9.411 -0.9027 -0.0329 -0.2314
 1538SOL    HW2 5193   6.449   7.790   9.417 -0.8621  1.1820  0.2512
 1539SOL     OW 5194   1.524  -0.007   4.779  0.0424 -0.0841  0.2938
 1539SOL    HW1 5195   1.518   0.084   4.809  1.4685 -0.0285  0.4975
 1539SOL    HW2 5196   1.543  -0.000   4.686  1.0375 -0.1400  0.4832
 1540SOL     OW 5197   1.547   3.094   2.434  0.7214  0.0298 -0.3496
 1540SOL    HW1 5198   1.583   3.074   2.348  0.2152  0.6227 -0.7136
 1540SOL    HW2 5199   1.547   3.010   2.481  1.2615 -0.2398 -0.8259
 1541SOL     OW 5200   6.123   0.448   4.304 -0.0184  0.2396 -0.1584
 1541SOL    HW1 5201   6.139   0.455   4.398 -0.2358 -0.8227 -0.0245
 1541SOL    HW2 5202   6.073   0.366   4.294  1.5421 -0.6205 -1.3684
 1542SOL     OW 5203   9.801   6.956   7.716 -1.3167 -0.9098 -0.5217
 1542SOL    HW1 5204   9.755   6.923   7.793 -1.7153  0.4748 -0.1364
 1542SOL    HW2 5205   9.844   6.879   7.678 -0.3022 -1.4636  1.6275
 1543SOL     OW 5206   1.311   6.769   1.754  0.4193  0.1469  0.1410
 1543SOL    HW1 5207   1.243   6.722   1.802  2.0620 -1.3485  1.1118
 1543SOL    HW2 5208   1.287   6.757   1.662 -1.4673  1.0353  0.4628
 1544SOL     OW 5209   3.004   2.105   2.935  0.0457  0.0858 -0.4062
 1544SOL    HW1 5210   2.940   2.109   3.006  1.3140 -2.5778  1.0145
 1544SOL    HW2 5211   2.952   2.118   2.855 -1.5228  2.3898  0.8813
 1545SOL     OW 5212   9.299   9.293   5.542 -0.3463 -0.0690  0.0484
 1545SOL    HW1 5213   9.284   9.385   5.563  0.4159  0.0812 -0.0495
 1545SOL    HW2 5214   9.393   9.286   5.529 -0.6128 -0.3560 -2.3265
 1546SOL     OW 5215   5.235   8.046   7.930  0.3832  0.2965 -0.1605
 1546SOL    HW1 5216   5.180   8.060   7.853  0.5548 -0.1157 -0.3619
 1546SOL    HW2 5217   5.204   8.110   7.994 -1.1330 -0.7129  0.1601
 1547SOL     OW 5218   9.212   0.352   0.217 -0.1469  0.4047  0.1824
 1547SOL    HW1 5219   9.130   0.372   0.172 -0.4878 -3.0617 -1.0381
 1547SOL    HW2 5220   9.270   0.425   0.195 -1.3952  0.5778 -3.0880
 1548SOL     OW 5221   7.088   8.726   7.011  0.0143 -0.1471 -0.6602
 1548SOL    HW1 5222   7.110   8.690   7.097  0.3709  0.6730 -0.4061
 1548SOL    HW2 5223   6.996   8.702   6.998  0.0767 -0.6349 -0.2421
 1549SOL     OW 5224   6.995   1.333   4.737 -0.4028 -0.2491  0.1015
 1549SOL    HW1 5225   6.951   1.359   4.817 -1.5222  0.1435 -0.6196
 1549SOL    HW2 5226   7.053   1.407   4.717  0.3542 -0.6146  0.8561
 1550SOL     OW 5227   2.841   9.300   6.987  0.1065 -0.0092  0.3039
 1550SOL    HW1 5228   2.793   9.371   7.029  1.8881  0.9595  0.8302
 1550SOL    HW2 5229   2.822   9.223   7.041  0.0927  0.6084  1.1998
 1551SOL     OW 5230   5.945   6.932   5.038 -0.3824  0.2530  0.6726
 1551SOL    HW1 5231   5.988   7.005   5.083  2.9213 -0.2691 -1.2596
 1551SOL    HW2 5232   6.000   6.856   5.058 -1.5596 -0.9370 -0.4152
 1552SOL     OW 5233   4.026   7.812   7.178  0.1004  0.6562 -0.0717
 1552SOL    HW1 5234   4.095   7.769   7.228 -0.0676 -0.6614 -0.9351
 1552SOL    HW2 5235   4.012   7.895   7.224  0.7660  0.0146  1.3566
 1553SOL     OW 5236   9.199   6.462   1.744  0.0194 -0.2167  0.0921
 1553SOL    HW1 5237   9.144   6.385   1.730  0.1461 -0.1909 -0.5741
 1553SOL    HW2 5238   9.226   6.489   1.657  0.0491  0.5387  0.3256
 1554SOL     OW 5239   3.141   5.759   0.373 -0.4323 -0.2299 -0.2954
 1554SOL    HW1 5240   3.200   5.830   0.398 -1.2605 -0.6936  3.6152
 1554SOL    HW2 5241   3.114   5.781   0.284  2.2547  2.2457 -0.6669
 1555SOL     OW 5242   8.145   9.593   5.779 -0.1090  0.0938  0.5105
 1555SOL    HW1 5243   8.210   9.549   5.725  1.1838  0.6003  1.5961
 1555SOL    HW2 5244   8.105   9.522   5.830  0.9653 -0.0424  1.2184
 1556SOL     OW 5245   4.316   4.769   2.623  0.3303  0.1294  0.2661
 1556SOL    HW1 5246   4.363   4.764   2.706 -0.1616 -1.4743  0.4852
 1556SOL    HW2 5247   4.310   4.679   2.593 -0.6188  0.5424 -0.8830
 1557SOL     OW 5248   2.998   9.287   3.592 -0.2809 -0.3124 -0.0079
 1557SOL    HW1 5249   2.951   9.355   3.544 -0.5808 -1.0189 -0.7361
 1557SOL    HW2 5250   3.085   9.324   3.607 -0.8783  0.7976  0.8752
 1558SOL     OW 5251   9.258   9.398   4.248  0.6693 -0.1781  0.3823
 1558SOL    HW1 5252   9.191   9.345   4.291  0.1245  0.5701  0.4793
 1558SOL    HW2 5253   9.301   9.446   4.320 -1.0911  2.0464  0.0578
 1559SOL     OW 5254   8.827   7.459   6.264  0.1171  0.0802  0.1856
 1559SOL    HW1 5255   8.865   7.493   6.183  0.3623  1.3466  0.8044
 1559SOL    HW2 5256   8.891   7.397   6.297 -1.1143 -2.5050 -1.8791
 1560SOL     OW 5257   2.634   8.602   8.707 -1.0621 -0.3140 -0.0124
 1560SOL    HW1 5258   2.652   8.510   8.729 -1.1554 -0.4626 -0.5452
 1560SOL    HW2 5259   2.591   8.637   8.785 -0.9860 -0.7101  0.2125
 1561SOL     OW 5260   4.718   9.687   0.928  0.7432 -0.2198  0.2553
 1561SOL    HW1 5261   4.740   9.619   0.865  0.8703 -0.4425  0.5370
 1561SOL    HW2 5262   4.645   9.650   0.979 -0.5546  0.6334 -0.8909
 1562SOL     OW 5263   2.777   2.533   9.995  0.2309 -0.5489 -0.1758
 1562SOL    HW1 5264   2.715   2.548   9.924 -0.2105 -0.0974  0.2980
 1562SOL    HW2 5265   2.824   2.617  10.004  0.1264 -0.5295  0.2128
 1563SOL     OW 5266   7.754   7.114   6.307 -0.6352  0.1500 -0.0702
 1563SOL    HW1 5267   7.692   7.050   6.341  0.9885 -1.0021  0.8535
 1563SOL    HW2 5268   7.735   7.118   6.213 -2.0211 -0.2267  0.1660
 1564SOL     OW 5269   5.640   7.504   5.623 -0.3775 -0.2204 -0.9620
 1564SOL    HW1 5270   5.703   7.451   5.574  0.2895  0.1287 -0.5029
 1564SOL    HW2 5271   5.626   7.581   5.569  1.4643  0.8603 -0.0118
 1565SOL     OW 5272   1.403   6.357   3.567 -0.2511  0.5655 -0.3017
 1565SOL    HW1 5273   1.419   6.436   3.618  1.9211 -0.1495  0.2391
 1565SOL    HW2 5274   1.489   6.315   3.560 -1.1655 -1.2633 -1.3833
 1566SOL     OW 5275   8.340   5.748   3.210  0.1441 -0.2464 -0.1957
 1566SOL    HW1 5276   8.373   5.786   3.129  3.1807  2.2904  1.9821
 1566SOL    HW2 5277   8.395   5.672   3.226 -0.9242 -1.1710 -0.8023
 1567SOL     OW 5278   5.454   6.867   7.690 -0.3502  0.1646  0.5235
 1567SOL    HW1 5279   5.460   6.819   7.773  1.3359 -1.5093 -0.4758
 1567SOL    HW2 5280   5.516   6.822   7.633 -0.1234  2.4228 -1.1029
 1568SOL     OW 5281   1.530   2.450   6.514  0.7433 -0.4562  0.2181
 1568SOL    HW1 5282   1.592   2.429   6.444 -0.6975  0.2102 -1.3420
 1568SOL    HW2 5283   1.448   2.409   6.487  0.3136 -0.7490  1.8775
 1569SOL     OW 5284   6.338   6.362   8.732 -0.0110 -0.2809 -0.2830
 1569SOL    HW1 5285   6.246   6.345   8.752 -0.1624  1.2064  0.4163
 1569SOL    HW2 5286   6.386   6.300   8.787 -0.5831 -0.2221  0.3014
 1570SOL     OW 5287   4.584   7.764   1.435 -0.2091 -0.2049  0.6763
 1570SOL    HW1 5288   4.567   7.733   1.524  0.7508 -2.9855  0.0108
 1570SOL    HW2 5289   4.530   7.706   1.380  2.2427 -1.2996 -0.7258
 1571SOL     OW 5290   3.116   0.550   1.219  0.2679 -0.5459 -0.1138
 1571SOL    HW1 5291   3.210   0.544   1.237 -0.1708 -2.4947  2.0930
 1571SOL    HW2 5292   3.090   0.635   1.254  1.0933 -0.2969 -0.0772
 1572SOL     OW 5293   1.885   6.986   0.649  0.1454  0.1369  0.7034
 1572SOL    HW1 5294   1.972   6.949   0.637 -0.5120 -1.0289 -0.7580
 1572SOL    HW2 5295   1.893   7.076   0.619  1.3664  0.7899  2.7591
 1573SOL     OW 5296   6.609   1.465   7.165 -0.2036  0.5070 -0.2375
 1573SOL    HW1 5297   6.686   1.508   7.129 -1.0414  2.0891 -0.2486
 1573SOL    HW2 5298   6.549   1.457   7.090 -0.6001  0.5874  0.0667
 1574SOL     OW 5299   5.030   8.680   9.022 -0.3897 -0.3898 -0.1608
 1574SOL    HW1 5300   5.025   8.669   8.927  3.6871  1.2202 -0.7386
 1574SOL    HW2 5301   4.981   8.761   9.039 -1.7375 -1.0521 -0.7011
 1575SOL     OW 5302   0.124   5.996   0.126 -0.1371  0.1539 -0.1348
 1575SOL    HW1 5303   0.219   6.001   0.136 -0.2145 -0.8168  1.4669
 1575SOL    HW2 5304   0.091   6.066   0.182 -0.3943 -0.7162  0.8377
 1576SOL     OW 5305   9.221   8.911   1.995  0.3953  0.1810 -0.0722
 1576SOL    HW1 5306   9.204   8.822   1.964  0.2842  0.1934 -0.0435
 1576SOL    HW2 5307   9.213   8.966   1.916  0.2090  0.1989 -0.0414
 1577SOL     OW 5308   8.158   9.686   0.577 -0.0816 -0.2072 -0.2647
 1577SOL    HW1 5309   8.072   9.718   0.553 -0.4691 -0.0966  1.1858
 1577SOL    HW2 5310   8.183   9.738   0.653  0.9093 -0.7992 -0.1639
 1578SOL     OW 5311   4.009   0.141   6.183  0.1429  0.3319  0.2869
 1578SOL    HW1 5312   4.013   0.228   6.223  3.0292  0.8072 -0.8521
 1578SOL    HW2 5313   4.068   0.146   6.108 -1.9680 -1.7547 -1.6609
 1579SOL     OW 5314   2.932   4.978   6.071  0.2851 -0.0861 -0.1174
 1579SOL    HW1 5315   2.845   4.938   6.082  0.8171 -0.8897  1.4485
 1579SOL    HW2 5316   2.988   4.929   6.131  1.5810  1.1867 -0.2534
 1580SOL     OW 5317   1.533   1.191   2.520 -0.0875 -0.0331 -0.2727
 1580SOL    HW1 5318   1.462   1.255   2.510  0.3983  0.5171 -0.2990
 1580SOL    HW2 5319   1.526   1.161   2.611 -0.2837  0.1148 -0.2383
 1581SOL     OW 5320   1.243   7.344   1.255  0.1321 -0.3335 -0.3927
 1581SOL    HW1 5321   1.322   7.391   1.282 -0.5220  0.7406 -0.2912
 1581SOL    HW2 5322   1.175   7.412   1.250 -0.9783 -1.3580  0.2786
 1582SOL     OW 5323   7.590   5.462   6.740 -0.3265  0.4192  0.5993
 1582SOL    HW1 5324   7.666   5.412   6.771 -0.8750  0.9055  2.9172
 1582SOL    HW2 5325   7.514   5.416   6.776 -1.0021  1.1878  0.1981
 1583SOL     OW 5326   1.518   2.020   6.114 -0.0390 -0.5167  0.2575
 1583SOL    HW1 5327   1.516   2.012   6.210 -0.0492  1.0078  0.4161
 1583SOL    HW2 5328   1.427   2.036   6.089  0.1572  0.6025  0.1814
 1584SOL     OW 5329   6.014   2.512   3.558 -0.1978 -0.3640  0.1704
 1584SOL    HW1 5330   6.002   2.599   3.596 -0.0674 -0.5226  0.5832
 1584SOL    HW2 5331   6.109   2.499   3.557 -0.2486 -1.3845  2.1952
 1585SOL     OW 5332   3.072   1.644   9.987  0.3329 -0.2302 -0.2318
 1585SOL    HW1 5333   3.057   1.586   9.912 -1.4951 -0.9119  0.5866
 1585SOL    HW2 5334   3.006   1.713   9.977  0.7631  0.2464  0.1906
 1586SOL     OW 5335   3.355   0.545   3.714 -0.2032 -0.5747 -0.5220
 1586SOL    HW1 5336   3.331   0.621   3.767 -0.1918  0.0481 -1.4026
 1586SOL    HW2 5337   3.420   0.578   3.652 -0.3316 -1.2613 -1.0346
 1587SOL     OW 5338   9.190   4.831   5.898  0.1075  0.0773  0.2280
 1587SOL    HW1 5339   9.286   4.829   5.900  0.1009 -0.7292  2.1464
 1587SOL    HW2 5340   9.164   4.805   5.986 -1.8855  1.9813  0.2707
 1588SOL     OW 5341   8.781   3.759   7.973  0.4796  1.0002  0.6024
 1588SOL    HW1 5342   8.699   3.794   7.938  1.8086  1.1847 -2.7884
 1588SOL    HW2 5343   8.786   3.671   7.936  1.9909  1.1891  0.3012
 1589SOL     OW 5344   5.026   1.945   4.157  0.0542  0.6018  0.0017
 1589SOL    HW1 5345   5.103   1.913   4.204 -1.8315 -3.0000  1.0311
 1589SOL    HW2 5346   4.987   2.009   4.217  0.1856 -0.4724  1.2949
 1590SOL     OW 5347   0.204   8.788   8.495  0.2798 -0.5777  0.2047
 1590SOL    HW1 5348   0.195   8.882   8.483 -0.1841 -0.4623  1.3209
 1590SOL    HW2 5349   0.277   8.763   8.438  1.5786  0.7543  1.2246
 1591SOL     OW 5350   8.098   9.539   4.851 -0.2916  0.8072 -0.0317
 1591SOL    HW1 5351   8.184   9.537   4.809 -0.0310  1.0107  0.4949
 1591SOL    HW2 5352   8.084   9.630   4.874 -0.0272  0.5652  1.1540
 1592SOL     OW 5353   9.579   1.185   7.104  0.4145  0.5167 -0.5918
 1592SOL    HW1 5354   9.578   1.271   7.060  2.4869  1.2087  0.5973
 1592SOL    HW2 5355   9.657   1.187   7.159  0.4581 -2.1303 -0.4455
 1593SOL     OW 5356   7.376   2.388   8.979 -0.8202  0.0686  0.4969
 1593SOL    HW1 5357   7.336   2.467   9.014  1.1236  1.0382  0.6487
 1593SOL    HW2 5358   7.465   2.414   8.954 -0.7929 -1.5690 -1.3837
 1594SOL     OW 5359   5.640   4.344   7.392 -0.2380 -0.1398  0.5602
 1594SOL    HW1 5360   5.583   4.393   7.333  0.4666  0.0603  0.0244
 1594SOL    HW2 5361   5.582   4.307   7.458 -1.0290 -0.2643 -0.1974
 1595SOL     OW 5362   9.453   8.854   1.139 -0.2895  0.2146  0.0051
 1595SOL    HW1 5363   9.480   8.868   1.230  0.0090  0.4873 -0.1212
 1595SOL    HW2 5364   9.376   8.909   1.129 -0.3452  0.1562  0.1028
 1596SOL     OW 5365   0.866   9.288   6.472 -0.0654  0.3327 -0.1336
 1596SOL    HW1 5366   0.930   9.227   6.510 -2.2392 -0.6300  2.2825
 1596SOL    HW2 5367   0.852   9.256   6.383  0.5134 -1.3303  0.3340
 1597SOL     OW 5368   6.119   9.181   5.385 -0.8180  0.3093  0.6291
 1597SOL    HW1 5369   6.098   9.092   5.412  0.3508  0.0991  0.8894
 1597SOL    HW2 5370   6.213   9.189   5.400  0.1281  0.0289 -3.8300
 1598SOL     OW 5371   4.702   4.471   2.871  0.4212  0.0225 -0.6574
 1598SOL    HW1 5372   4.736   4.526   2.941  0.1162  0.5312 -0.9038
 1598SOL    HW2 5373   4.779   4.449   2.818  0.7327 -0.7814  0.1091
 1599SOL     OW 5374   2.230   5.458   5.956  0.5190  0.2925  0.0032
 1599SOL    HW1 5375   2.272   5.425   6.036 -0.7509  0.6583  0.8618
 1599SOL    HW2 5376   2.138   5.435   5.966  0.3727  0.1218 -1.5018
 1600SOL     OW 5377   6.276   7.171   6.174 -0.1536 -0.0604 -0.6452
 1600SOL    HW1 5378   6.209   7.107   6.152  0.0569 -0.8355  0.8097
 1600SOL    HW2 5379   6.229   7.254   6.181 -0.6899 -0.3185 -1.1189
 1601SOL     OW 5380   6.675   8.238   8.933  0.5680  0.0528 -0.2902
 1601SOL    HW1 5381   6.587   8.202   8.939  0.3968 -0.1612 -3.0209
 1601SOL    HW2 5382   6.727   8.169   8.892  1.3722  1.1174 -1.1447
 1602SOL     OW 5383   6.446   0.103   8.527 -0.1474  0.4257  0.1905
 1602SOL    HW1 5384   6.444   0.061   8.442  0.1932  0.4078  0.1940
 1602SOL    HW2 5385   6.492   0.042   8.584  0.6199  0.9312  0.1242
 1603SOL     OW 5386   3.564   2.647   9.195 -0.0264  0.3177  0.6545
 1603SOL    HW1 5387   3.638   2.686   9.241  1.9071 -1.5266 -0.7368
 1603SOL    HW2 5388   3.517   2.598   9.263  0.5922  0.6855  1.3584
 1604SOL     OW 5389   6.551   3.101   0.533 -0.0587  0.2000 -0.2877
 1604SOL    HW1 5390   6.588   3.016   0.557 -1.5846  0.1156  2.0686
 1604SOL    HW2 5391   6.513   3.135   0.614 -2.8964  1.3760 -1.9494
 1605SOL     OW 5392   4.397   5.213   1.625  0.3074 -0.2324 -0.0465
 1605SOL    HW1 5393   4.397   5.132   1.676  0.4313 -0.0184  0.2979
 1605SOL    HW2 5394   4.305   5.241   1.624  0.0367 -1.0698 -1.2932
 1606SOL     OW 5395   4.865   6.624   6.449 -0.2244 -0.1646  0.1375
 1606SOL    HW1 5396   4.801   6.580   6.505  0.8293 -2.6561 -0.4684
 1606SOL    HW2 5397   4.882   6.562   6.379  2.1070  0.8185 -0.2682
 1607SOL     OW 5398   9.632   3.431   3.091 -0.3136 -0.0023 -0.2465
 1607SOL    HW1 5399   9.693   3.369   3.132 -0.6834  0.0179  0.3443
 1607SOL    HW2 5400   9.634   3.507   3.149 -1.0416 -0.0737 -0.1224
 1608SOL     OW 5401   0.024   5.795   3.167 -0.2979  0.4680  0.0568
 1608SOL    HW1 5402  -0.047   5.732   3.155  0.3848 -0.0720 -1.4246
 1608SOL    HW2 5403   0.026   5.845   3.086  2.5638 -1.2106 -1.0840
 1609SOL     OW 5404   6.429   9.672   5.039  0.1288 -0.5346  0.7708
 1609SOL    HW1 5405   6.339   9.642   5.031  0.4016 -1.1419 -0.2510
 1609SOL    HW2 5406   6.432   9.718   5.123 -1.7969  1.9147 -0.3626
 1610SOL     OW 5407   9.840   8.227   3.540 -1.0256 -0.4062  0.2627
 1610SOL    HW1 5408   9.934   8.216   3.532 -0.5951  0.7059  2.7955
 1610SOL    HW2 5409   9.803   8.144   3.510  0.6763 -0.6247 -1.3993
 1611SOL     OW 5410   5.078   2.639   9.043 -0.1890 -0.1011  0.1622
 1611SOL    HW1 5411   5.077   2.586   8.963 -0.2691 -0.7741  0.6002
 1611SOL    HW2 5412   5.092   2.728   9.012 -0.5349 -0.3097 -0.6265
 1612SOL     OW 5413   0.523   6.203   4.524  0.2447  0.1690  0.9616
 1612SOL    HW1 5414   0.455   6.235   4.464  0.1626  0.9099  1.4340
 1612SOL    HW2 5415   0.536   6.112   4.498 -0.4922  0.1892  0.4606
 1613SOL     OW 5416   4.215   1.194   8.986  0.4636 -0.2729  0.1801
 1613SOL    HW1 5417   4.298   1.203   8.939 -0.4664 -1.2599 -1.8082
 1613SOL    HW2 5418   4.215   1.103   9.017 -1.3682 -1.5923 -3.1733
 1614SOL     OW 5419   6.540   5.298   5.722 -0.2279 -0.1193  0.2033
 1614SOL    HW1 5420   6.466   5.254   5.680  0.9259 -0.7287 -1.2957
 1614SOL    HW2 5421   6.617   5.254   5.687  0.9108  1.5683  0.4359
 1615SOL     OW 5422   7.946   2.435   5.234  0.1146 -0.5795  0.7894
 1615SOL    HW1 5423   7.972   2.523   5.208 -3.4012  0.3376 -0.1425
 1615SOL    HW2 5424   7.886   2.449   5.307  0.0320 -2.2574  1.0742
 1616SOL     OW 5425   9.056   1.546   4.330  0.1996 -0.0483  0.6854
 1616SOL    HW1 5426   9.031   1.638   4.336 -1.2099 -0.2237 -1.3502
 1616SOL    HW2 5427   8.973   1.499   4.320  0.9938 -1.0489 -2.6514
 1617SOL     OW 5428   0.409   8.484   3.100 -0.2146  0.3192  0.2328
 1617SOL    HW1 5429   0.390   8.546   3.171 -1.7366  0.0733  0.0821
 1617SOL    HW2 5430   0.435   8.404   3.145  1.3544  0.9186  0.4382
 1618SOL     OW 5431   7.184   9.295   0.718  0.2235 -0.1898  1.2145
 1618SOL    HW1 5432   7.251   9.263   0.778  0.0472 -0.2930  1.3573
 1618SOL    HW2 5433   7.226   9.367   0.671  1.2804 -1.8356 -0.4984
 1619SOL     OW 5434   8.648   2.456   9.878  0.5443  0.2766 -0.2652
 1619SOL    HW1 5435   8.559   2.472   9.908  0.1586 -0.2658 -1.1079
 1619SOL    HW2 5436   8.689   2.543   9.877  0.0299  0.5268  0.1051
 1620SOL     OW 5437   0.210   9.278   4.821 -0.5796 -0.5802 -0.1078
 1620SOL    HW1 5438   0.185   9.357   4.775  1.1745  1.0854  1.6221
 1620SOL    HW2 5439   0.231   9.215   4.752 -0.3239  1.0091 -1.5273
 1621SOL     OW 5440   0.117   2.313   8.588  0.1230  0.1924 -0.4958
 1621SOL    HW1 5441   0.140   2.220   8.584  2.0630  0.6788 -2.9300
 1621SOL    HW2 5442   0.035   2.315   8.637 -0.0409 -2.8077 -0.4597
 1622SOL     OW 5443   7.678   0.527   8.717  0.3437  0.5718 -0.5088
 1622SOL    HW1 5444   7.609   0.462   8.708  1.0546 -0.1931 -0.6106
 1622SOL    HW2 5445   7.669   0.561   8.806 -0.5513  0.9466 -0.7348
 1623SOL     OW 5446   1.016   5.176   4.721  0.0175 -0.0083  0.4045
 1623SOL    HW1 5447   1.069   5.172   4.641  2.0464  3.0070  1.4202
 1623SOL    HW2 5448   0.953   5.105   4.711  0.6722 -0.2880 -3.4892
 1624SOL     OW 5449   2.492   3.221   0.468  0.1856  0.4219 -0.0239
 1624SOL    HW1 5450   2.482   3.303   0.516  3.2661  1.0907 -0.2730
 1624SOL    HW2 5451   2.585   3.199   0.479 -0.5481 -3.1057  0.0690
 1625SOL     OW 5452   3.069   2.541   6.384  0.0064 -0.1289 -0.0428
 1625SOL    HW1 5453   3.099   2.475   6.446  0.5521  0.3234  0.1812
 1625SOL    HW2 5454   3.092   2.505   6.298  1.1442  0.1691  0.1192
 1626SOL     OW 5455   8.130   6.288   2.431 -0.7756 -0.0421  1.0215
 1626SOL    HW1 5456   8.090   6.278   2.345 -3.2182 -2.0675  2.2430
 1626SOL    HW2 5457   8.073   6.348   2.478  0.8296  1.4733  1.1507
 1627SOL     OW 5458   7.034   9.514   3.076 -0.4285  0.0616 -0.2129
 1627SOL    HW1 5459   7.023   9.583   3.142 -1.9483 -1.0325  0.7462
 1627SOL    HW2 5460   7.122   9.479   3.093  0.2597  1.5577 -0.5473
 1628SOL     OW 5461   0.601   1.926   3.477  0.8961 -0.3542  0.0878
 1628SOL    HW1 5462   0.583   1.964   3.391  1.7084  1.2376  0.5764
 1628SOL    HW2 5463   0.692   1.898   3.471  0.6239 -1.2564  0.0903
 1629SOL     OW 5464   2.869   9.266   9.166 -0.1753  0.2148 -0.3966
 1629SOL    HW1 5465   2.952   9.303   9.137  0.9042 -2.1757 -0.6175
 1629SOL    HW2 5466   2.831   9.227   9.087 -1.3140  0.8784 -0.2017
 1630SOL     OW 5467   3.585   6.768   8.709  0.0095 -0.2973  0.5594
 1630SOL    HW1 5468   3.677   6.740   8.711 -0.2952 -1.3666  0.4988
 1630SOL    HW2 5469   3.584   6.845   8.652  0.9641  0.1166  1.0849
 1631SOL     OW 5470   1.506   9.336   0.836 -0.5534 -0.0540 -0.9520
 1631SOL    HW1 5471   1.550   9.253   0.817  0.2595 -0.1088  0.9119
 1631SOL    HW2 5472   1.420   9.310   0.870  0.3894 -0.3094  1.4486
 1632SOL     OW 5473   2.557   0.990   9.238  0.2948  0.0025 -0.3940
 1632SOL    HW1 5474   2.569   1.000   9.333  2.5966  0.8904 -0.6940
 1632SOL    HW2 5475   2.554   1.080   9.205  0.1300 -0.2987 -1.2119
 1633SOL     OW 5476   3.490   3.900   7.669  0.0351  0.3224 -0.4002
 1633SOL    HW1 5477   3.567   3.955   7.656  0.5732 -0.5282 -0.8605
 1633SOL    HW2 5478   3.514   3.815   7.633  0.2640 -1.1112  2.7576
 1634SOL     OW 5479   4.375   6.308   1.815 -0.1900  0.4559 -0.1097
 1634SOL    HW1 5480   4.406   6.240   1.755  0.7171  0.2395  0.5737
 1634SOL    HW2 5481   4.280   6.300   1.813 -0.0931 -1.6139  0.8018
 1635SOL     OW 5482   1.482   4.236   3.642  0.0031 -0.7975 -0.0559
 1635SOL    HW1 5483   1.481   4.317   3.591  0.7440 -0.9359 -0.3135
 1635SOL    HW2 5484   1.420   4.251   3.713  0.1594  0.0133 -0.0829
 1636SOL     OW 5485   7.654   4.208   5.484 -0.0314  0.4114  0.4158
 1636SOL    HW1 5486   7.641   4.142   5.552  0.4585  0.3380  0.4438
 1636SOL    HW2 5487   7.571   4.256   5.481 -0.6831 -0.7165 -0.1735
 1637SOL     OW 5488   0.568   4.600   5.254  0.0370  0.2506  0.0172
 1637SOL    HW1 5489   0.537   4.516   5.289  2.4272 -0.3006  1.0505
 1637SOL    HW2 5490   0.642   4.577   5.197 -0.6099  1.5352 -1.4133
 1638SOL     OW 5491   2.677   5.899   6.991 -0.2578  0.4413 -0.1353
 1638SOL    HW1 5492   2.769   5.877   7.007 -0.4869  0.1561  0.8534
 1638SOL    HW2 5493   2.654   5.847   6.914 -0.4780 -2.0663  1.5042
 1639SOL     OW 5494   9.161   5.771   6.720 -0.4232 -0.2306 -0.3194
 1639SOL    HW1 5495   9.083   5.728   6.684  0.0584 -0.4210 -1.1436
 1639SOL    HW2 5496   9.128   5.817   6.797 -0.8735 -2.4376  0.9000
 1640SOL     OW 5497   6.826   4.440   1.853  0.4572  0.1327 -0.3439
 1640SOL    HW1 5498   6.736   4.409   1.865  0.6441  0.2843  1.9359
 1640SOL    HW2 5499   6.879   4.378   1.903  1.5173  0.6835 -0.7454
 1641SOL     OW 5500   0.914   9.500   9.094 -0.3724 -0.1699 -0.1498
 1641SOL    HW1 5501   0.848   9.447   9.139 -0.4405  0.1040  0.0757
 1641SOL    HW2 5502   0.985   9.509   9.157  0.4102 -1.4366 -0.7907
 1642SOL     OW 5503   0.845   4.700   7.093  0.5235 -0.1431 -0.1361
 1642SOL    HW1 5504   0.781   4.644   7.049  2.2997 -0.9778 -1.7808
 1642SOL    HW2 5505   0.925   4.647   7.097  1.5027  1.3330  0.6628
 1643SOL     OW 5506   8.708   1.808   6.530  1.0008 -0.3927 -0.1674
 1643SOL    HW1 5507   8.710   1.864   6.608  0.2006 -1.8850  0.9719
 1643SOL    HW2 5508   8.634   1.749   6.544  2.2560 -2.2555 -0.9577
 1644SOL     OW 5509   1.368   6.964   9.393  0.1264 -0.4756 -0.1240
 1644SOL    HW1 5510   1.335   6.926   9.474 -0.8257 -1.8995 -1.1334
 1644SOL    HW2 5511   1.295   7.017   9.360  0.4213 -0.1072 -0.1924
 1645SOL     OW 5512   1.129   3.911   8.449 -0.6176  0.9367  0.3274
 1645SOL    HW1 5513   1.070   3.898   8.375 -1.3464  1.1298  0.8618
 1645SOL    HW2 5514   1.115   3.834   8.504 -0.0479  0.7719  0.2447
 1646SOL     OW 5515   5.907   2.770   0.236 -0.2674  0.1254 -0.2537
 1646SOL    HW1 5516   5.982   2.733   0.282 -0.7235  0.2785  0.6253
 1646SOL    HW2 5517   5.900   2.860   0.267  0.6612  0.9248 -2.1725
 1647SOL     OW 5518   2.706   6.298   6.971 -1.0116 -0.2582  0.2645
 1647SOL    HW1 5519   2.780   6.332   7.022 -0.5116 -0.4379 -0.3279
 1647SOL    HW2 5520   2.721   6.332   6.883 -1.2971 -0.8221 -0.0004
 1648SOL     OW 5521   2.378   0.299   5.152  0.3891  0.2205  0.7699
 1648SOL    HW1 5522   2.342   0.318   5.066  1.0823 -0.7288  0.2506
 1648SOL    HW2 5523   2.352   0.208   5.170  1.1192  0.0644  1.0990
 1649SOL     OW 5524   2.552   0.035   5.881 -0.1030  0.0476 -0.3392
 1649SOL    HW1 5525   2.505  -0.048   5.888 -0.1928 -0.1226 -2.3293
 1649SOL    HW2 5526   2.484   0.102   5.890 -0.0529 -0.0764  1.1149
 1650SOL     OW 5527   0.394   8.080   1.017  0.0286 -0.2119  0.5196
 1650SOL    HW1 5528   0.415   8.033   1.098  0.0656  0.4511  0.8990
 1650SOL    HW2 5529   0.364   8.166   1.047 -0.4333 -0.1368 -0.1506
 1651SOL     OW 5530   7.832  -0.010   2.120  0.2702 -0.0185 -0.3182
 1651SOL    HW1 5531   7.838   0.085   2.132 -0.2748 -0.0182 -0.0354
 1651SOL    HW2 5532   7.739  -0.027   2.105  0.4704 -0.4235 -1.1651
 1652SOL     OW 5533   7.950   3.475   3.718 -0.4159 -0.4298 -0.5699
 1652SOL    HW1 5534   7.954   3.564   3.751 -1.3095 -0.5988  0.0398
 1652SOL    HW2 5535   7.987   3.422   3.788 -0.7877 -0.6240 -0.5144
 1653SOL     OW 5536   7.540   9.426   3.375  0.4192  0.0783  0.2376
 1653SOL    HW1 5537   7.563   9.512   3.410 -1.2030  0.8221 -0.4545
 1653SOL    HW2 5538   7.583   9.422   3.289 -0.9656  0.9857 -0.5357
 1654SOL     OW 5539   4.209   4.405   3.241 -0.3708  0.2121 -0.2921
 1654SOL    HW1 5540   4.125   4.371   3.269 -0.8964 -0.1806 -2.1672
 1654SOL    HW2 5541   4.266   4.328   3.237 -0.5127  0.1298 -0.9443
 1655SOL     OW 5542   6.492   4.716   0.357 -0.1764  0.4539 -0.4275
 1655SOL    HW1 5543   6.472   4.810   0.356 -0.6051  0.3634 -1.2140
 1655SOL    HW2 5544   6.557   4.706   0.427 -1.5514  1.0418  0.9824
 1656SOL     OW 5545   2.232   4.804   5.745  0.3846  0.1711 -0.1937
 1656SOL    HW1 5546   2.202   4.832   5.831 -2.2525 -1.5043 -0.4696
 1656SOL    HW2 5547   2.300   4.867   5.721  0.0149  1.6551  2.3691
 1657SOL     OW 5548   4.804   8.412   9.219 -0.5404  0.0407  0.1175
 1657SOL    HW1 5549   4.825   8.360   9.297 -1.1102 -1.3095 -0.5991
 1657SOL    HW2 5550   4.811   8.503   9.249  0.5185 -0.4192  1.4046
 1658SOL     OW 5551   8.321   3.639   3.521 -0.2622  0.1614 -0.3331
 1658SOL    HW1 5552   8.269   3.635   3.441 -0.6494  1.1954 -0.1505
 1658SOL    HW2 5553   8.273   3.700   3.577  1.3301  1.4328 -0.2966
 1659SOL     OW 5554   1.841   0.693   4.028  0.4757 -0.4870 -0.3377
 1659SOL    HW1 5555   1.914   0.721   3.973  0.0021  1.0090 -0.2412
 1659SOL    HW2 5556   1.779   0.652   3.967  0.2790  0.5099 -0.8276
 1660SOL     OW 5557   2.913   1.553   4.525 -0.3276  0.0146 -0.5737
 1660SOL    HW1 5558   2.819   1.532   4.534 -0.2786 -0.3778 -0.9008
 1660SOL    HW2 5559   2.914   1.640   4.485 -0.5634 -0.1532 -0.9617
 1661SOL     OW 5560   0.173   7.479   0.128  0.3929  0.5111 -0.5539
 1661SOL    HW1 5561   0.139   7.564   0.158 -1.0575 -0.2293 -0.0137
 1661SOL    HW2 5562   0.121   7.460   0.049  1.6974  0.7634 -1.5014
 1662SOL     OW 5563   0.848   6.876   0.747  0.1602  0.3600  0.9479
 1662SOL    HW1 5564   0.756   6.895   0.727  0.3491  1.7234  1.2688
 1662SOL    HW2 5565   0.859   6.784   0.723 -1.1148  0.3544  0.2863
 1663SOL     OW 5566   6.821   7.270   9.173 -0.2640 -0.2462 -0.4793
 1663SOL    HW1 5567   6.879   7.216   9.119  0.9164 -1.9178  2.2609
 1663SOL    HW2 5568   6.852   7.257   9.262 -2.9704  1.2798  0.8088
 1664SOL     OW 5569   8.291   0.463   5.705 -0.0809  0.2774  0.1385
 1664SOL    HW1 5570   8.349   0.521   5.655 -1.6033  1.9749  0.2263
 1664SOL    HW2 5571   8.205   0.506   5.701 -0.8307 -0.9314  1.9688
 1665SOL     OW 5572   5.325   3.754   2.006 -0.3415 -0.1269  0.3310
 1665SOL    HW1 5573   5.262   3.697   1.961 -0.8744  0.1164  0.7580
 1665SOL    HW2 5574   5.387   3.779   1.938  0.6232 -2.1931  0.3824
 1666SOL     OW 5575   9.636   0.011   7.257  0.1547  0.1726 -0.0125
 1666SOL    HW1 5576   9.720   0.050   7.235  0.8849 -1.1373  0.3039
 1666SOL    HW2 5577   9.634   0.012   7.353 -0.4359  0.6629 -0.0217
 1667SOL     OW 5578   9.447   4.205   6.501  0.2734 -0.4891  0.2594
 1667SOL    HW1 5579   9.493   4.285   6.523  3.2341 -1.7433 -0.9125
 1667SOL    HW2 5580   9.373   4.202   6.563 -0.1183  3.1762  0.1675
 1668SOL     OW 5581   8.430   4.189   6.188 -0.3396  0.0251  0.1824
 1668SOL    HW1 5582   8.457   4.205   6.097 -1.1956  0.2654 -0.0419
 1668SOL    HW2 5583   8.477   4.255   6.239  0.9427 -0.7715  0.0548
 1669SOL     OW 5584   5.537   5.492   0.359  0.0067  0.1951 -0.0900
 1669SOL    HW1 5585   5.572   5.509   0.272 -1.5303  0.3952 -0.6897
 1669SOL    HW2 5586   5.454   5.539   0.362 -1.3324 -2.0390  0.4464
 1670SOL     OW 5587   0.986   3.382   8.870 -0.0758 -1.0814  0.0582
 1670SOL    HW1 5588   0.950   3.456   8.918  0.7767 -0.0530 -0.8392
 1670SOL    HW2 5589   1.027   3.327   8.937 -2.4305 -1.8214  0.9973
 1671SOL     OW 5590   1.824   3.278   2.205  0.4516 -0.3345  0.1799
 1671SOL    HW1 5591   1.908   3.319   2.188  0.3710  0.3767  1.4038
 1671SOL    HW2 5592   1.787   3.327   2.279 -0.2098 -1.8064  0.8652
 1672SOL     OW 5593   2.012   0.338   9.538 -0.3957  0.0717 -0.4347
 1672SOL    HW1 5594   1.973   0.348   9.452  2.3788  0.4926 -1.7730
 1672SOL    HW2 5595   2.066   0.416   9.549  2.6820 -1.8953 -0.3059
 1673SOL     OW 5596   8.212   6.555   2.922 -0.0835 -0.0689 -0.1675
 1673SOL    HW1 5597   8.232   6.463   2.939 -0.8178 -0.2715 -0.3507
 1673SOL    HW2 5598   8.125   6.568   2.960 -0.0879  0.4884 -0.3559
 1674SOL     OW 5599   0.429   1.271   9.730  0.6968 -0.1846 -0.1723
 1674SOL    HW1 5600   0.457   1.348   9.680 -0.9013 -0.0833 -0.9792
 1674SOL    HW2 5601   0.394   1.211   9.664 -1.7604  0.0876  0.7975
 1675SOL     OW 5602   8.291   2.811   5.994 -0.6855 -0.6152  0.1901
 1675SOL    HW1 5603   8.197   2.805   6.011 -0.6503  1.2800  1.3145
 1675SOL    HW2 5604   8.330   2.830   6.080  0.5585  0.0665 -0.4903
 1676SOL     OW 5605   5.988   2.203   0.820  0.6472 -0.3958 -0.1546
 1676SOL    HW1 5606   6.068   2.253   0.801  1.3270 -1.2601  0.3623
 1676SOL    HW2 5607   5.940   2.257   0.883  1.4951 -0.4888  0.5922
 1677SOL     OW 5608   6.920   1.570   6.426 -0.4643 -0.5398 -0.9120
 1677SOL    HW1 5609   6.849   1.506   6.422 -0.6593 -0.4124  0.1599
 1677SOL    HW2 5610   6.949   1.567   6.517  0.3958 -0.0371 -1.1650
 1678SOL     OW 5611   9.185   8.093   2.977 -0.1981 -0.4653 -1.4291
 1678SOL    HW1 5612   9.126   8.114   2.904 -2.3729 -1.6350 -0.1075
 1678SOL    HW2 5613   9.165   8.002   2.999  2.2114 -0.9446 -0.9405
 1679SOL     OW 5614   5.109   3.035   9.513 -0.1211 -0.2121 -0.1155
 1679SOL    HW1 5615   5.013   3.032   9.515 -0.0899 -1.5631  0.5714
 1679SOL    HW2 5616   5.135   2.959   9.462  0.5946  0.0947 -0.2289
 1680SOL     OW 5617   7.835   4.893   0.159 -0.1685  0.3688 -0.0754
 1680SOL    HW1 5618   7.858   4.950   0.233  1.7372 -1.3143  0.7144
 1680SOL    HW2 5619   7.917   4.881   0.111  0.4967 -4.1637  1.6358
 1681SOL     OW 5620   5.535   7.680   2.739  0.8039 -0.2109 -0.4920
 1681SOL    HW1 5621   5.464   7.653   2.796  0.6245 -1.3417 -1.2214
 1681SOL    HW2 5622   5.586   7.743   2.791 -0.1649 -0.1300  0.3712
 1682SOL     OW 5623   3.785   0.859   1.168 -0.2309 -0.0709 -0.0131
 1682SOL    HW1 5624   3.761   0.785   1.223 -0.0781  0.0533  0.2279
 1682SOL    HW2 5625   3.703   0.906   1.153 -0.1271  0.4435  0.9421
 1683SOL     OW 5626   3.527   5.217   5.274 -0.4933  0.1862  0.2097
 1683SOL    HW1 5627   3.472   5.175   5.207  2.6624 -2.5318 -0.9621
 1683SOL    HW2 5628   3.568   5.291   5.229 -1.3810  0.8294  0.4210
 1684SOL     OW 5629   3.465   3.976   7.180  0.1445 -0.1593  0.1607
 1684SOL    HW1 5630   3.552   4.006   7.208  1.0151 -0.4664 -2.0159
 1684SOL    HW2 5631   3.474   3.881   7.170 -0.8349 -0.3770  1.0948
 1685SOL     OW 5632   6.512   5.344   1.795 -0.3653 -0.2778 -0.0168
 1685SOL    HW1 5633   6.563   5.325   1.716 -1.2454 -0.4507 -0.5604
 1685SOL    HW2 5634   6.425   5.309   1.776 -0.1978 -1.7419  1.6389
 1686SOL     OW 5635   0.760   8.452   0.842 -0.0608 -0.1045 -0.6049
 1686SOL    HW1 5636   0.719   8.479   0.759  0.3775  0.0780 -0.7680
 1686SOL    HW2 5637   0.829   8.392   0.815  0.6324  0.6020 -0.4455
 1687SOL     OW 5638   6.089   9.030   8.223  0.2185 -0.0048 -0.6988
 1687SOL    HW1 5639   6.009   9.081   8.232 -0.1573 -0.6641 -0.1460
 1687SOL    HW2 5640   6.112   9.036   8.131  0.1815  1.1442 -0.6420
 1688SOL     OW 5641   9.419   0.732   7.680  0.4041  0.3374  0.1814
 1688SOL    HW1 5642   9.453   0.780   7.756  1.0798  0.2413 -0.0594
 1688SOL    HW2 5643   9.496   0.695   7.638 -0.0973 -1.1286  0.4616
 1689SOL     OW 5644   8.602   6.296   0.994 -0.2084 -0.0163  0.1351
 1689SOL    HW1 5645   8.557   6.278   1.076 -0.7168  0.9067  0.0715
 1689SOL    HW2 5646   8.666   6.225   0.986 -1.1250 -0.9282  0.5965
 1690SOL     OW 5647   0.315  -0.014   5.880 -0.1755 -0.3161  0.3018
 1690SOL    HW1 5648   0.280   0.052   5.939 -0.1618  1.2696 -1.3866
 1690SOL    HW2 5649   0.276   0.006   5.794  2.1740 -0.5675 -0.9106
 1691SOL     OW 5650   0.711   9.545   5.026  0.1979 -0.0850 -0.2464
 1691SOL    HW1 5651   0.664   9.492   4.961 -1.7312  0.6671  0.4806
 1691SOL    HW2 5652   0.705   9.495   5.107 -1.2048  0.9701  0.3307
 1692SOL     OW 5653   5.339   1.944   6.730 -0.4946 -0.4835  0.1748
 1692SOL    HW1 5654   5.274   1.937   6.800  1.0647  0.3812  1.7901
 1692SOL    HW2 5655   5.349   1.854   6.698 -0.8998 -0.9830  1.3960
 1693SOL     OW 5656   3.897   1.238   4.155  0.7175 -0.3106 -0.3202
 1693SOL    HW1 5657   3.988   1.209   4.152  1.5426  2.0437 -0.2819
 1693SOL    HW2 5658   3.857   1.198   4.078  2.2560  0.0102 -1.3467
 1694SOL     OW 5659   3.031   4.749   1.466 -0.4647  0.0824 -0.2046
 1694SOL    HW1 5660   2.967   4.694   1.421 -0.3615  0.0512 -0.3129
 1694SOL    HW2 5661   3.016   4.733   1.559 -1.2827  0.8238 -0.1954
 1695SOL     OW 5662   1.915   3.055   7.839 -0.0368  0.9889 -0.0529
 1695SOL    HW1 5663   1.992   3.074   7.892  0.5262  1.6892 -1.0959
 1695SOL    HW2 5664   1.950   3.023   7.755 -0.9072 -0.0886 -0.0420
 1696SOL     OW 5665   6.519   6.333   5.088  0.1701 -0.2690 -0.8093
 1696SOL    HW1 5666   6.597   6.352   5.140 -0.9611  3.6193 -0.1446
 1696SOL    HW2 5667   6.481   6.255   5.129  2.5117 -0.9230  0.2659
 1697SOL     OW 5668   1.140   2.549   2.180 -0.6610  0.2498  0.5828
 1697SOL    HW1 5669   1.203   2.538   2.250  0.0984 -1.6160 -0.3171
 1697SOL    HW2 5670   1.058   2.572   2.224  0.2010  0.8729  1.9015
 1698SOL     OW 5671   6.745   7.013   6.399 -0.0488  0.2538  0.5512
 1698SOL    HW1 5672   6.676   7.078   6.408 -0.1438  0.4787 -1.3323
 1698SOL    HW2 5673   6.705   6.943   6.346  0.3652 -0.8712  1.6763
 1699SOL     OW 5674   9.910   0.382   8.573 -0.8115  0.4941  0.2513
 1699SOL    HW1 5675   9.844   0.397   8.640 -1.2923 -0.7282  0.0750
 1699SOL    HW2 5676   9.883   0.438   8.500 -1.5476  0.1573  0.2563
 1700SOL     OW 5677   6.758   7.470   6.172  0.1882 -0.0118 -0.0812
 1700SOL    HW1 5678   6.694   7.402   6.189  1.6720 -1.8562 -1.5088
 1700SOL    HW2 5679   6.735   7.505   6.086  0.1690  0.4578  0.1084
 1701SOL     OW 5680   3.788   6.073   3.005  0.6115  0.0727 -0.2018
 1701SOL    HW1 5681   3.712   6.016   2.997 -0.7597  1.4578  2.1028
 1701SOL    HW2 5682   3.777   6.138   2.936 -0.4691  0.4536  0.3235
 1702SOL     OW 5683   2.048   0.070   7.245 -0.0281  0.3067 -0.2536
 1702SOL    HW1 5684   2.100   0.062   7.325 -0.5105  1.0686  0.1374
 1702SOL    HW2 5685   2.019   0.161   7.243  0.1410  0.3558 -1.4022
 1703SOL     OW 5686   5.925   9.952   1.719  0.2749 -0.0454  0.0974
 1703SOL    HW1 5687   5.831   9.961   1.705 -0.0350  1.5677  2.6070
 1703SOL    HW2 5688   5.934   9.881   1.783  0.5819  0.9436  1.1884
 1704SOL     OW 5689   6.700   3.674   4.963 -0.0918  0.2624  0.3794
 1704SOL    HW1 5690   6.721   3.715   5.046 -1.4969  1.0499  0.3796
 1704SOL    HW2 5691   6.671   3.746   4.907  0.9084 -0.2367 -0.8371
 1705SOL     OW 5692   0.590   2.790   0.678 -0.0018 -0.0795 -0.0592
 1705SOL    HW1 5693   0.673   2.762   0.638  0.0021  0.2252 -0.2674
 1705SOL    HW2 5694   0.607   2.879   0.708  0.5616 -0.8701  2.2253
 1706SOL     OW 5695   7.759   7.752   8.855  0.3740 -0.2037 -0.5002
 1706SOL    HW1 5696   7.666   7.767   8.838 -0.9655 -4.1381  2.0212
 1706SOL    HW2 5697   7.768   7.762   8.950  2.9470  1.4099 -0.8045
 1707SOL     OW 5698   4.898   5.601   9.258 -0.5913  0.6075  0.5130
 1707SOL    HW1 5699   4.929   5.681   9.217  0.2021 -0.2721 -0.6804
 1707SOL    HW2 5700   4.974   5.568   9.307 -0.1738 -0.5014 -0.7801
 1708SOL     OW 5701   2.786   4.676   6.999  0.7603  0.1432  0.1290
 1708SOL    HW1 5702   2.848   4.605   6.984  0.4638  0.0183 -0.5457
 1708SOL    HW2 5703   2.769   4.674   7.094  3.1428  1.3322  0.6635
 1709SOL     OW 5704   4.395   8.561   6.615  0.4892  0.1453  0.4535
 1709SOL    HW1 5705   4.485   8.564   6.583  0.7145  0.1421  1.0817
 1709SOL    HW2 5706   4.344   8.534   6.539  0.7979  1.6768 -0.3299
 1710SOL     OW 5707   6.247   3.369   1.974  0.5042  0.0061  0.1137
 1710SOL    HW1 5708   6.232   3.434   2.043  0.4822 -1.0788  1.1785
 1710SOL    HW2 5709   6.162   3.325   1.965  0.7732 -0.5138  0.0996
 1711SOL     OW 5710   9.592   3.959   6.327  0.5247  0.5195  0.0228
 1711SOL    HW1 5711   9.568   4.040   6.282 -1.0194  0.4384  0.6264
 1711SOL    HW2 5712   9.617   3.987   6.415  0.9288  0.4254 -0.0609
 1712SOL     OW 5713   0.328   9.111   6.388  0.3772  0.6857  0.3251
 1712SOL    HW1 5714   0.406   9.075   6.429 -0.3240  1.2605  2.3028
 1712SOL    HW2 5715   0.262   9.111   6.458 -1.1523  0.9810 -1.0493
 1713SOL     OW 5716   6.519   1.330   2.239  0.1795  0.3268 -0.1205
 1713SOL    HW1 5717   6.453   1.260   2.238 -0.4699  0.9356 -1.2550
 1713SOL    HW2 5718   6.591   1.294   2.291  0.0259 -1.3353 -0.9839
 1714SOL     OW 5719   9.906   0.037   8.335  0.0112  0.3952 -0.1215
 1714SOL    HW1 5720   9.938  -0.049   8.363  1.6878  0.8573 -0.4833
 1714SOL    HW2 5721   9.813   0.036   8.357 -0.2471 -1.8657 -0.9721
 1715SOL     OW 5722   8.825   5.028   8.159 -0.4810  0.0017  1.3180
 1715SOL    HW1 5723   8.855   4.937   8.153 -0.3019  0.1598 -1.4199
 1715SOL    HW2 5724   8.894   5.079   8.116 -1.5347  1.1732  0.9491
 1716SOL     OW 5725   1.773   3.151   6.598 -0.4636  0.4438  0.4163
 1716SOL    HW1 5726   1.799   3.062   6.624  1.0577 -0.2084 -2.8234
 1716SOL    HW2 5727   1.678   3.151   6.608 -0.6758 -2.0663 -0.6888
 1717SOL     OW 5728   7.645   9.911   4.410 -0.0161 -0.4204  0.0412
 1717SOL    HW1 5729   7.580   9.982   4.408  1.3390  0.8808 -0.1259
 1717SOL    HW2 5730   7.593   9.831   4.412 -1.6906  0.4170 -3.1575
 1718SOL     OW 5731   0.107   9.094   6.576 -0.2791 -0.1925  0.0133
 1718SOL    HW1 5732   0.083   9.174   6.623  1.3489  0.2329  0.2131
 1718SOL    HW2 5733   0.121   9.029   6.646  0.4697 -0.0406  0.0129
 1719SOL     OW 5734   4.464   3.871   8.767  0.2737  0.3359  0.6449
 1719SOL    HW1 5735   4.390   3.818   8.735 -1.2107  2.9682 -0.6637
 1719SOL    HW2 5736   4.531   3.861   8.700 -0.2591  0.5922  0.0558
 1720SOL     OW 5737   8.756   4.657   6.329  0.4274 -0.4378 -0.2194
 1720SOL    HW1 5738   8.739   4.745   6.296  0.6981  0.6640  2.2829
 1720SOL    HW2 5739   8.843   4.634   6.295 -0.5649 -0.7457 -2.7073
 1721SOL     OW 5740   5.335   2.943   0.742  0.1842  0.2523  0.0455
 1721SOL    HW1 5741   5.341   2.889   0.820  0.9315  0.3525  0.0621
 1721SOL    HW2 5742   5.346   2.882   0.669  0.4637  0.2968  0.0489
 1722SOL     OW 5743   1.497   3.698   9.833  0.3092 -1.0527 -0.4802
 1722SOL    HW1 5744   1.561   3.640   9.790  0.9150 -0.4060 -0.4710
 1722SOL    HW2 5745   1.543   3.781   9.842  0.4231 -1.3027  1.9530
 1723SOL     OW 5746   8.217   2.799   2.195 -0.2876  0.3371 -0.0238
 1723SOL    HW1 5747   8.154   2.727   2.197  0.3274 -0.1946  0.5292
 1723SOL    HW2 5748   8.301   2.758   2.216 -0.1947  1.4987  2.0720
 1724SOL     OW 5749   8.669   0.748   7.913 -0.1652  0.2543  0.2314
 1724SOL    HW1 5750   8.591   0.774   7.962 -0.9440  0.5567 -1.1324
 1724SOL    HW2 5751   8.742   0.768   7.973 -0.9609  2.3053  0.6149
 1725SOL     OW 5752   9.760   9.837   6.526 -0.3654  0.0214 -0.6640
 1725SOL    HW1 5753   9.718   9.764   6.482 -1.5057  0.8492 -0.9955
 1725SOL    HW2 5754   9.740   9.913   6.471  0.2421  0.6844  0.0090
 1726SOL     OW 5755   5.338   3.947   8.687 -0.2842  0.2115  0.0670
 1726SOL    HW1 5756   5.347   3.877   8.752 -1.1974 -0.3993 -0.4509
 1726SOL    HW2 5757   5.400   3.923   8.618 -0.8363 -0.2729 -0.2657
 1727SOL     OW 5758   3.247   0.515   6.105 -0.2357 -0.5555 -0.1465
 1727SOL    HW1 5759   3.164   0.508   6.059 -0.1332 -1.2125 -0.2365
 1727SOL    HW2 5760   3.249   0.441   6.165  0.3144 -0.5918 -0.1987
 1728SOL     OW 5761   6.155   5.688   4.934  0.1959 -0.1405 -0.3026
 1728SOL    HW1 5762   6.207   5.741   4.994 -0.2248 -0.3404  0.2474
 1728SOL    HW2 5763   6.217   5.661   4.866  1.2108 -1.6698  1.1564
 1729SOL     OW 5764   1.888   3.635   5.178 -0.3190 -0.4072 -0.1098
 1729SOL    HW1 5765   1.961   3.696   5.191 -0.9526  0.7319 -1.6759
 1729SOL    HW2 5766   1.819   3.668   5.236 -0.2132 -0.4222  0.0260
 1730SOL     OW 5767   4.932   1.332   4.734 -0.3448  0.4364  0.4714
 1730SOL    HW1 5768   4.865   1.264   4.735 -1.7202  1.7461  1.0331
 1730SOL    HW2 5769   5.007   1.292   4.691 -1.7922 -0.7975 -1.0023
 1731SOL     OW 5770   7.286   0.680   5.565 -0.0402 -0.1234  0.0614
 1731SOL    HW1 5771   7.365   0.668   5.619 -1.6259  0.6703  2.7552
 1731SOL    HW2 5772   7.245   0.593   5.564 -0.2229 -0.0436  0.5032
 1732SOL     OW 5773   6.610   8.123   6.251 -0.0486  0.1652  0.0510
 1732SOL    HW1 5774   6.651   8.043   6.284 -1.2976 -1.4040 -1.9943
 1732SOL    HW2 5775   6.517   8.112   6.271 -0.2367  1.1403 -0.2298
 1733SOL     OW 5776   9.252   3.200   4.175  0.5635  0.5125  0.8923
 1733SOL    HW1 5777   9.177   3.142   4.161  1.2475  0.3494 -3.0602
 1733SOL    HW2 5778   9.221   3.286   4.148  1.8331  0.3313 -1.3991
 1734SOL     OW 5779   3.883   0.756   2.013 -0.3519  1.0975  0.3026
 1734SOL    HW1 5780   3.883   0.768   1.918  0.3929  1.7254  0.3704
 1734SOL    HW2 5781   3.821   0.684   2.028 -1.8345  2.1301 -0.5087
 1735SOL     OW 5782   8.020   2.803   4.679  0.1915  0.2807  0.5224
 1735SOL    HW1 5783   7.960   2.866   4.719  0.5123  1.5981 -0.9572
 1735SOL    HW2 5784   7.995   2.719   4.717 -1.0778  1.1131  1.6446
 1736SOL     OW 5785   3.836   7.328   6.636 -0.0625 -0.2294  0.2243
 1736SOL    HW1 5786   3.813   7.420   6.652 -1.2291 -0.0760 -1.9992
 1736SOL    HW2 5787   3.797   7.308   6.552 -0.4276 -3.0085  0.9739
 1737SOL     OW 5788   5.464   2.512   4.800  0.3432  0.0701  0.1839
 1737SOL    HW1 5789   5.388   2.455   4.804  0.2406  0.2499  0.8455
 1737SOL    HW2 5790   5.444   2.584   4.860  1.5798 -0.5418  1.3814
 1738SOL     OW 5791   4.016   8.095   3.622 -0.3569  1.0311 -0.1193
 1738SOL    HW1 5792   4.037   8.107   3.529 -1.3602 -1.8075 -0.8222
 1738SOL    HW2 5793   3.927   8.127   3.631 -1.1019 -0.7371 -0.7415
 1739SOL     OW 5794   3.811   0.633   3.149 -0.0574 -0.1549  0.5131
 1739SOL    HW1 5795   3.801   0.660   3.058 -1.9436  0.4928  0.8717
 1739SOL    HW2 5796   3.889   0.577   3.149  0.4563  0.4827 -1.3317
 1740SOL     OW 5797   7.889   7.547   9.236 -0.2098  0.5408 -0.2340
 1740SOL    HW1 5798   7.846   7.471   9.196  1.1619 -0.5245  0.2520
 1740SOL    HW2 5799   7.856   7.549   9.326  1.0633 -0.5546  0.2785
 1741SOL     OW 5800   4.683   6.348   7.063 -0.3774  0.2933  0.4514
 1741SOL    HW1 5801   4.759   6.294   7.084 -1.4640 -1.0323  1.1233
 1741SOL    HW2 5802   4.719   6.424   7.018  1.2685 -0.6613  0.0861
 1742SOL     OW 5803   3.478   4.927   6.410 -0.1246  0.2307 -0.5863
 1742SOL    HW1 5804   3.403   4.916   6.352 -0.3335 -0.2398 -0.2273
 1742SOL    HW2 5805   3.542   4.863   6.379 -0.2935 -0.1264 -0.2127
 1743SOL     OW 5806   0.240   2.695   3.357 -0.0311  0.2249  0.3758
 1743SOL    HW1 5807   0.216   2.631   3.423  2.2249 -1.0670  0.0800
 1743SOL    HW2 5808   0.333   2.711   3.373  0.2169  0.9715 -1.5503
 1744SOL     OW 5809   8.766   1.012   0.751  0.5040  0.1693  0.1035
 1744SOL    HW1 5810   8.846   1.019   0.802 -0.2469 -0.3950  1.4012
 1744SOL    HW2 5811   8.700   1.059   0.802 -0.1672 -0.0150 -0.5636
 1745SOL     OW 5812   3.710   1.628   0.804 -0.3119  0.0773  0.4357
 1745SOL    HW1 5813   3.787   1.634   0.861  0.9308  4.2270 -1.2631
 1745SOL    HW2 5814   3.742   1.580   0.728  0.4193  0.9890  0.1341
 1746SOL     OW 5815   1.876   4.606   2.529 -0.2176 -0.0136  0.1828
 1746SOL    HW1 5816   1.971   4.606   2.531 -0.1623  2.2009  0.0999
 1746SOL    HW2 5817   1.852   4.698   2.541 -2.3999 -0.7332  2.1567
 1747SOL     OW 5818   2.895   7.555   6.433  0.0831 -0.3390 -0.2424
 1747SOL    HW1 5819   2.840   7.480   6.409  1.0218 -1.2117  0.2527
 1747SOL    HW2 5820   2.841   7.631   6.414 -0.7579 -1.1277 -1.1254
 1748SOL     OW 5821   8.181   5.154   8.716  0.0580 -0.0839 -0.8714
 1748SOL    HW1 5822   8.193   5.244   8.749 -0.7037 -0.0649 -0.6394
 1748SOL    HW2 5823   8.264   5.110   8.738 -0.0497  0.2057  0.1928
 1749SOL     OW 5824   5.904   0.295   0.234  0.3213 -0.6494 -0.0340
 1749SOL    HW1 5825   5.954   0.350   0.174 -2.7175  1.2069 -1.1129
 1749SOL    HW2 5826   5.955   0.295   0.315  1.3325  2.4014 -0.5304
 1750SOL     OW 5827   4.866   0.870   8.077  0.2382  0.5957 -0.1367
 1750SOL    HW1 5828   4.788   0.871   8.134  0.2777 -2.9450  0.2164
 1750SOL    HW2 5829   4.938   0.893   8.136 -0.2978  2.2654 -0.0809
 1751SOL     OW 5830   4.260   7.854   9.904 -0.1186  0.7870 -0.1202
 1751SOL    HW1 5831   4.188   7.917   9.902 -0.1039  0.8041 -2.4784
 1751SOL    HW2 5832   4.337   7.906   9.926 -0.8111  0.6747  3.0625
 1752SOL     OW 5833   2.596   5.403   4.612  0.3246 -0.1640 -0.3407
 1752SOL    HW1 5834   2.516   5.438   4.651 -0.1139 -2.1447  0.6952
 1752SOL    HW2 5835   2.665   5.424   4.674  0.2565 -0.1481 -0.2693
 1753SOL     OW 5836   9.861   5.554   1.347  0.6195  0.0645 -0.8211
 1753SOL    HW1 5837   9.801   5.559   1.273 -0.3858 -0.2484 -0.0490
 1753SOL    HW2 5838   9.830   5.479   1.398  0.5253  1.0058  0.5520
 1754SOL     OW 5839   0.818   5.502   3.034  0.4949  0.5668  0.2528
 1754SOL    HW1 5840   0.787   5.417   3.004  0.6934 -0.6999  3.2291
 1754SOL    HW2 5841   0.740   5.544   3.070  0.4915  1.4741 -0.7769
 1755SOL     OW 5842   4.375   4.897   5.408 -1.1137 -0.3213 -0.0182
 1755SOL    HW1 5843   4.331   4.879   5.325 -1.3798  1.5209 -0.3261
 1755SOL    HW2 5844   4.363   4.818   5.460  0.5804 -2.2576 -2.3308
 1756SOL     OW 5845   7.071   9.963   0.972 -0.2002  0.1482 -0.5384
 1756SOL    HW1 5846   7.015   9.886   0.962 -2.0729  1.1604  1.3751
 1756SOL    HW2 5847   7.125   9.943   1.048 -0.5581  0.6612 -0.1527
 1757SOL     OW 5848   6.796   4.648   7.809  0.4845 -0.2292 -0.2211
 1757SOL    HW1 5849   6.859   4.714   7.781 -0.5915  1.0987  0.3728
 1757SOL    HW2 5850   6.761   4.612   7.728 -0.0563  1.0642 -0.5833
 1758SOL     OW 5851   1.730   1.624   3.034  0.5645  0.3637  0.1708
 1758SOL    HW1 5852   1.663   1.598   3.098  0.2247 -1.5728 -0.8899
 1758SOL    HW2 5853   1.811   1.589   3.071  0.8276  1.6162  0.8358
 1759SOL     OW 5854   9.951   2.129   7.854  0.2391  0.2742 -0.3084
 1759SOL    HW1 5855   9.978   2.219   7.835 -0.6204  0.1757 -2.2016
 1759SOL    HW2 5856   9.860   2.125   7.824 -0.9202 -0.3113  2.8373
 1760SOL     OW 5857   2.226   4.496   4.014  0.1498  0.0848  0.5716
 1760SOL    HW1 5858   2.258   4.438   4.083 -2.0840 -0.2472  1.3871
 1760SOL    HW2 5859   2.235   4.584   4.050  0.5169  0.0295  0.6183
 1761SOL     OW 5860   2.998   7.157   9.476  0.4133  0.3355  0.3941
 1761SOL    HW1 5861   3.031   7.069   9.458 -0.5019 -0.4186  2.2027
 1761SOL    HW2 5862   2.904   7.150   9.460  0.3531  1.0348  0.4277
 1762SOL     OW 5863   9.417   8.443   8.912  0.2368  0.5443  0.4857
 1762SOL    HW1 5864   9.378   8.356   8.920  1.6830 -0.4385 -2.0391
 1762SOL    HW2 5865   9.372   8.483   8.839  0.8258  1.2040  0.4762
 1763SOL     OW 5866   0.907   7.520   8.064 -0.3454 -0.0583 -0.0772
 1763SOL    HW1 5867   0.970   7.466   8.111 -1.0648 -0.4286  0.4869
 1763SOL    HW2 5868   0.945   7.533   7.978  0.0883 -1.0228 -0.0342
 1764SOL     OW 5869   9.728   2.976   4.827 -0.3846 -0.2461  1.0793
 1764SOL    HW1 5870   9.661   3.034   4.865 -1.0896 -1.8842  2.4835
 1764SOL    HW2 5871   9.799   2.977   4.891 -0.3124 -0.7472  1.0121
 1765SOL     OW 5872   4.326   6.011   9.529  0.2711 -0.7183  0.0463
 1765SOL    HW1 5873   4.302   5.923   9.555 -1.2196 -0.0123  1.1679
 1765SOL    HW2 5874   4.243   6.058   9.521  0.9899  0.4437 -1.1150
 1766SOL     OW 5875   3.423   6.252   6.651  0.4998  0.4834  0.6093
 1766SOL    HW1 5876   3.384   6.247   6.738  1.0954 -0.1730  0.8455
 1766SOL    HW2 5877   3.489   6.183   6.649  0.0532  0.0596 -0.6012
 1767SOL     OW 5878   5.607   9.547   4.328  0.1425  0.7316 -0.7709
 1767SOL    HW1 5879   5.594   9.505   4.243  0.3848 -0.5148 -0.2005
 1767SOL    HW2 5880   5.701   9.546   4.341  0.3115  2.8374 -1.4126
 1768SOL     OW 5881   9.231   2.940   9.065 -0.5823 -0.0262  0.1384
 1768SOL    HW1 5882   9.324   2.922   9.076 -0.4261  0.4938 -0.3018
 1768SOL    HW2 5883   9.189   2.854   9.075 -0.0305 -0.3134  0.0484
 1769SOL     OW 5884   1.222   7.218   3.971  0.2824 -0.6238  0.7385
 1769SOL    HW1 5885   1.171   7.152   3.924  0.0756 -0.6329  0.9713
 1769SOL    HW2 5886   1.301   7.171   3.999  0.1031 -0.7943  0.9645
 1770SOL     OW 5887   1.369   8.929   8.499 -0.4959 -0.2705  0.0246
 1770SOL    HW1 5888   1.292   8.985   8.489  0.3258  0.7904 -0.6727
 1770SOL    HW2 5889   1.384   8.893   8.411  0.0758 -0.0776  0.0377
 1771SOL     OW 5890   5.864   8.587   7.264 -0.3511  0.8131  0.6193
 1771SOL    HW1 5891   5.901   8.606   7.178 -2.6773 -1.4420 -1.0224
 1771SOL    HW2 5892   5.928   8.530   7.306 -0.4490 -0.4902 -0.8984
 1772SOL     OW 5893   2.128   5.842   7.275  0.0730  0.4846 -0.5666
 1772SOL    HW1 5894   2.099   5.750   7.281 -0.0603  0.5798  0.4358
 1772SOL    HW2 5895   2.223   5.837   7.268  0.1697  0.2867  0.6610
 1773SOL     OW 5896   5.045   0.589   2.258 -0.1525 -0.0757  0.7087
 1773SOL    HW1 5897   5.012   0.505   2.228 -0.5931  0.4354 -0.2932
 1773SOL    HW2 5898   4.999   0.654   2.204  1.5299  0.7153  0.1366
 1774SOL     OW 5899   4.001   8.227   3.968  0.2753  0.4546  0.5201
 1774SOL    HW1 5900   4.027   8.152   4.022 -2.9526  1.3964  3.8078
 1774SOL    HW2 5901   3.954   8.189   3.894 -0.4784 -0.8623  1.6318
 1775SOL     OW 5902   2.628   0.377   4.953  0.4788  0.3129  0.6976
 1775SOL    HW1 5903   2.693   0.341   4.892 -0.3923  0.0637 -0.1131
 1775SOL    HW2 5904   2.586   0.300   4.991  1.1877  0.4663  1.8291
 1776SOL     OW 5905   2.688   4.650   1.377  0.0670  0.5031  0.2400
 1776SOL    HW1 5906   2.763   4.650   1.319 -0.2551  1.0616 -0.1805
 1776SOL    HW2 5907   2.665   4.557   1.388 -0.5571  0.4363 -1.4229
 1777SOL     OW 5908   6.211   9.591   3.124  0.0079  0.6556 -0.1561
 1777SOL    HW1 5909   6.304   9.569   3.123 -0.0980  0.0352  1.3781
 1777SOL    HW2 5910   6.201   9.649   3.199 -1.0031 -0.0621  0.2840
 1778SOL     OW 5911   3.074   4.835   0.149 -0.0548  0.4087 -0.7533
 1778SOL    HW1 5912   3.044   4.926   0.152  0.5021  0.6128 -1.2022
 1778SOL    HW2 5913   3.104   4.817   0.238 -1.5696  0.1596 -0.2544
 1779SOL     OW 5914   4.936   0.194   9.777  0.1185 -0.5717 -0.1019
 1779SOL    HW1 5915   4.978   0.230   9.699 -0.7946 -0.4698 -0.5641
 1779SOL    HW2 5916   4.947   0.262   9.844  0.4531 -0.4423 -0.2881
 1780SOL     OW 5917   9.872   3.236   9.787 -0.0528  0.1185 -0.9717
 1780SOL    HW1 5918   9.927   3.236   9.866  2.0963 -1.2086 -2.3672
 1780SOL    HW2 5919   9.785   3.208   9.818  0.6836 -0.1742  0.9464
 1781SOL     OW 5920   1.663   9.952   8.315  0.3277  0.2209 -0.4449
 1781SOL    HW1 5921   1.582   9.952   8.264 -0.2656 -0.1459  0.4859
 1781SOL    HW2 5922   1.634   9.953   8.406  1.3094 -3.0206 -0.0017
 1782SOL     OW 5923   5.709   7.062   1.074  0.1467 -0.0352 -0.1917
 1782SOL    HW1 5924   5.656   7.110   1.010 -0.9376 -0.7870  0.1078
 1782SOL    HW2 5925   5.645   7.030   1.138  0.9874 -0.9099  0.2250
 1783SOL     OW 5926   3.173   1.144   1.212  0.2818 -0.7511  0.1121
 1783SOL    HW1 5927   3.191   1.214   1.274 -2.1647 -0.3442  0.4644
 1783SOL    HW2 5928   3.091   1.105   1.243  0.0422 -1.8399 -1.7315
 1784SOL     OW 5929   3.531   5.936   1.128 -0.0861 -0.4037  0.0079
 1784SOL    HW1 5930   3.616   5.907   1.094  0.4765 -0.4101  1.3608
 1784SOL    HW2 5931   3.480   5.856   1.136  0.3932 -0.6381  0.8254
 1785SOL     OW 5932   8.584   8.300   6.886 -0.2049  0.0154 -0.6838
 1785SOL    HW1 5933   8.574   8.329   6.977  1.3699  1.7135 -0.9774
 1785SOL    HW2 5934   8.504   8.251   6.867 -0.0914 -1.3385  1.9336
 1786SOL     OW 5935   8.007   2.456   6.411  0.1861  0.7993  0.3383
 1786SOL    HW1 5936   8.075   2.405   6.367 -1.0936 -0.9173  0.2850
 1786SOL    HW2 5937   7.978   2.519   6.345  0.7815  0.6607 -0.0657
 1787SOL     OW 5938   3.314   6.102   4.584  0.2271  0.0126 -0.1326
 1787SOL    HW1 5939   3.272   6.185   4.559 -0.2263  0.1684  1.0783
 1787SOL    HW2 5940   3.405   6.125   4.599  0.0439  0.3641  0.4818
 1788SOL     OW 5941   6.163   8.754   8.621 -0.4113  0.0748  0.2406
 1788SOL    HW1 5942   6.198   8.665   8.615 -1.2508 -0.3666  1.4131
 1788SOL    HW2 5943   6.081   8.752   8.572 -2.8021 -1.1490  3.8490
 1789SOL     OW 5944   7.735   9.498   3.690 -0.1932  0.0075  0.2850
 1789SOL    HW1 5945   7.680   9.424   3.666 -0.7359  0.2345  0.8090
 1789SOL    HW2 5946   7.687   9.575   3.658 -2.1148  0.5430  3.9577
 1790SOL     OW 5947   8.401   5.034   9.559 -0.0458  0.3270 -0.6524
 1790SOL    HW1 5948   8.367   4.950   9.590 -0.6269  0.6597 -0.3859
 1790SOL    HW2 5949   8.491   5.037   9.592 -0.2920  0.1769  0.0511
 1791SOL     OW 5950   7.424   8.310   6.713 -0.0806  0.3692 -0.3165
 1791SOL    HW1 5951   7.416   8.312   6.618  0.1258  2.0675 -0.3409
 1791SOL    HW2 5952   7.336   8.333   6.744  0.0959  0.8055 -0.1321
 1792SOL     OW 5953   6.661   1.930   9.877  0.2319  0.5552  0.2720
 1792SOL    HW1 5954   6.584   1.898   9.922  0.3317  1.1490  0.8831
 1792SOL    HW2 5955   6.732   1.923   9.941  0.7674 -0.2961 -0.3832
 1793SOL     OW 5956   2.417   8.144   2.163 -0.1232  0.1646 -0.0950
 1793SOL    HW1 5957   2.493   8.199   2.147 -0.3833  0.3898 -0.6029
 1793SOL    HW2 5958   2.408   8.091   2.083  0.8841 -1.5583  0.8695
 1794SOL     OW 5959   7.100   3.670   0.205 -0.3272  0.0213 -0.0748
 1794SOL    HW1 5960   7.158   3.601   0.237  0.0460 -0.0689 -0.9391
 1794SOL    HW2 5961   7.026   3.624   0.166 -0.6747  0.1325  0.4334
 1795SOL     OW 5962   3.632   8.635   6.967  0.0141  0.2831 -0.0379
 1795SOL    HW1 5963   3.600   8.579   7.038 -0.1582  0.5436  0.0906
 1795SOL    HW2 5964   3.598   8.594   6.888 -1.7487  1.2491  0.1650
 1796SOL     OW 5965   3.132   2.764   2.310 -0.1933  0.1272  0.1795
 1796SOL    HW1 5966   3.065   2.744   2.374 -1.2759  0.4416 -0.8200
 1796SOL    HW2 5967   3.188   2.686   2.308 -0.8688 -0.3735  0.5979
 1797SOL     OW 5968   2.434   5.815   9.979 -0.1221  0.1014 -0.3155
 1797SOL    HW1 5969   2.508   5.756   9.963  0.1091  0.7511 -1.7966
 1797SOL    HW2 5970   2.357   5.759   9.971  0.1409 -0.2231 -0.6367
 1798SOL     OW 5971   2.667   1.505   8.984  0.1453 -0.4496  0.4365
 1798SOL    HW1 5972   2.637   1.573   9.045 -2.6798 -2.7539  1.8601
 1798SOL    HW2 5973   2.624   1.527   8.901 -1.9283 -1.1371  1.2567
 1799SOL     OW 5974   9.293   5.470   8.352 -0.1998  0.9407  0.5072
 1799SOL    HW1 5975   9.340   5.527   8.291  0.4306  0.1725  0.2524
 1799SOL    HW2 5976   9.222   5.433   8.300  1.0192 -0.6162 -0.1473
 1800SOL     OW 5977   0.217   7.374   6.853 -0.0712  0.0533 -0.2452
 1800SOL    HW1 5978   0.141   7.404   6.804  1.3726  2.7331 -1.0086
 1800SOL    HW2 5979   0.192   7.385   6.945 -0.6768  0.7564 -0.4803
 1801SOL     OW 5980   0.403   7.833   8.664  0.0903 -0.2003 -0.2269
 1801SOL    HW1 5981   0.425   7.892   8.591  0.8388  2.2256  1.8249
 1801SOL    HW2 5982   0.447   7.751   8.642 -0.6228  0.0582 -2.9939
 1802SOL     OW 5983   0.632   1.156   0.285 -0.4923  0.0704 -0.0869
 1802SOL    HW1 5984   0.637   1.071   0.240  0.6297  0.3000 -0.4282
 1802SOL    HW2 5985   0.617   1.219   0.215 -1.2700  0.1692  0.1612
 1803SOL     OW 5986   0.592   2.483   6.118  0.2523 -0.4361 -0.1055
 1803SOL    HW1 5987   0.511   2.456   6.162 -1.4462  0.6663 -2.3463
 1803SOL    HW2 5988   0.645   2.520   6.188 -1.1819 -1.1713  1.4505
 1804SOL     OW 5989   6.055   9.055   6.500 -0.4282 -0.1031  0.5192
 1804SOL    HW1 5990   6.056   9.087   6.590  0.0314  0.0390  0.4626
 1804SOL    HW2 5991   6.085   8.964   6.506 -2.6417 -0.8786  0.8056
 1805SOL     OW 5992   9.838   4.544   7.311  0.0456 -0.1835  0.2978
 1805SOL    HW1 5993   9.874   4.501   7.234  0.2553  1.2202 -0.4105
 1805SOL    HW2 5994   9.750   4.570   7.285  0.1751  0.4369  0.4786
 1806SOL     OW 5995   6.597   7.263   1.256  0.3932  0.5768  0.0279
 1806SOL    HW1 5996   6.621   7.352   1.283 -1.9534  1.5961 -0.9260
 1806SOL    HW2 5997   6.547   7.229   1.331  1.3468  0.0036  0.4184
 1807SOL     OW 5998   8.669   1.560   0.988  0.0694  0.3135 -0.5032
 1807SOL    HW1 5999   8.716   1.477   0.998  1.7196  1.0459 -1.8312
 1807SOL    HW2 6000   8.737   1.626   0.980 -1.2129  1.6825 -0.5081
 1808SOL     OW 6001   9.145   8.997   4.323 -0.6560  0.2103 -0.3718
 1808SOL    HW1 6002   9.152   8.971   4.231  0.1584  2.5968 -1.0660
 1808SOL    HW2 6003   9.096   9.080   4.321 -3.6567 -1.2908  1.7224
 1809SOL     OW 6004   5.364   8.407   8.204 -0.1685 -0.9901  0.0598
 1809SOL    HW1 6005   5.430   8.438   8.143 -0.6416 -1.3320 -0.6519
 1809SOL    HW2 6006   5.325   8.486   8.241  1.0886 -0.7818  1.0258
 1810SOL     OW 6007   4.195   5.819   7.567  0.1279  0.0710 -0.0911
 1810SOL    HW1 6008   4.203   5.741   7.622  0.5912  0.9182  1.0776
 1810SOL    HW2 6009   4.101   5.826   7.548 -0.0722 -0.0881  0.8119
 1811SOL     OW 6010   1.428   1.753   8.874  0.3951 -0.3788 -0.2287
 1811SOL    HW1 6011   1.417   1.660   8.895 -0.6510  0.1203  1.6713
 1811SOL    HW2 6012   1.353   1.775   8.818 -0.8524 -0.1197  1.4765
 1812SOL     OW 6013   3.535   0.398   5.155  0.3672  0.1463  0.1616
 1812SOL    HW1 6014   3.598   0.382   5.084  1.7042  1.9647  0.8312
 1812SOL    HW2 6015   3.585   0.381   5.235  0.4211  2.5718  0.7382
 1813SOL     OW 6016   3.317   6.964   0.362 -0.4618  0.2905  0.0570
 1813SOL    HW1 6017   3.281   6.952   0.274 -0.3183  0.8658 -0.0838
 1813SOL    HW2 6018   3.409   6.937   0.353 -1.0196 -2.0507  0.6256
 1814SOL     OW 6019   6.221   6.424   5.830  0.6266 -0.3326  1.1275
 1814SOL    HW1 6020   6.303   6.458   5.793  0.3856  0.5498  1.3929
 1814SOL    HW2 6021   6.213   6.337   5.792  0.5188  0.4368 -0.7083
 1815SOL     OW 6022   6.744   4.308   4.974  0.1459 -0.4560 -0.1730
 1815SOL    HW1 6023   6.697   4.259   5.042  0.3123 -1.7690 -0.9780
 1815SOL    HW2 6024   6.733   4.256   4.895  1.1688  0.3150 -0.8430
 1816SOL     OW 6025   1.071   8.384   8.948 -0.8489  0.0898 -0.2091
 1816SOL    HW1 6026   1.080   8.391   9.043 -1.0050  1.2906 -0.2635
 1816SOL    HW2 6027   1.143   8.437   8.913 -0.1839 -1.1614 -0.7798
 1817SOL     OW 6028   7.375   0.211   9.839 -0.1775 -0.1302 -0.6911
 1817SOL    HW1 6029   7.350   0.301   9.816 -0.7376 -0.1113 -0.0643
 1817SOL    HW2 6030   7.438   0.221   9.910 -0.9557 -0.2434  0.0268
 1818SOL     OW 6031   9.185   3.951   9.252 -0.6504  0.2291  0.3467
 1818SOL    HW1 6032   9.257   4.007   9.221 -1.2079  0.6326 -0.2356
 1818SOL    HW2 6033   9.229   3.880   9.298  0.1601  0.1371 -0.5377
 1819SOL     OW 6034   0.135   1.651   6.400 -0.3657 -0.0934 -0.4540
 1819SOL    HW1 6035   0.212   1.678   6.450  0.4692 -1.1365 -1.1346
 1819SOL    HW2 6036   0.116   1.725   6.342 -0.2639  0.4185  0.1646
 1820SOL     OW 6037   7.850   8.920   3.769 -0.0403  0.0770  0.6290
 1820SOL    HW1 6038   7.842   8.997   3.824 -2.7184 -1.6447  2.9508
 1820SOL    HW2 6039   7.870   8.849   3.830 -0.9179 -1.5818 -0.9184
 1821SOL     OW 6040   8.191   8.897   0.712 -0.0543  0.3302  0.1460
 1821SOL    HW1 6041   8.110   8.943   0.731  0.4695  1.3969 -0.1527
 1821SOL    HW2 6042   8.201   8.834   0.784  0.1873  1.9902  1.6369
 1822SOL     OW 6043   8.077   5.389   8.257 -0.5459  0.1599  0.5224
 1822SOL    HW1 6044   8.042   5.374   8.345 -0.2818  0.3966  0.6712
 1822SOL    HW2 6045   8.112   5.304   8.230 -0.2443  0.1855  0.8227
 1823SOL     OW 6046   2.592   2.669   9.829 -0.1112  0.3394  0.0838
 1823SOL    HW1 6047   2.526   2.643   9.765  0.7304  0.8099 -0.9985
 1823SOL    HW2 6048   2.546   2.728   9.888 -1.0260 -0.4942  0.2394
 1824SOL     OW 6049   2.122   4.131   3.031  0.0655  0.0184 -0.8072
 1824SOL    HW1 6050   2.035   4.123   3.069 -1.1296 -0.0675 -3.3787
 1824SOL    HW2 6051   2.155   4.214   3.066 -1.7332  0.8779 -1.0318
 1825SOL     OW 6052   1.620   6.552   8.119  0.1551 -0.1131 -0.0009
 1825SOL    HW1 6053   1.589   6.464   8.097 -0.1608  0.0574 -0.2544
 1825SOL    HW2 6054   1.548   6.610   8.092  1.2245  0.4210 -1.8803
 1826SOL     OW 6055   3.036   1.226   7.137  0.5759  0.1744 -0.1297
 1826SOL    HW1 6056   2.956   1.239   7.085  2.3611 -0.0451 -3.1771
 1826SOL    HW2 6057   3.015   1.263   7.222 -1.9575  2.4845 -1.5800
 1827SOL     OW 6058   7.764   1.844   5.080  0.1231  0.3249 -0.3250
 1827SOL    HW1 6059   7.856   1.865   5.064  0.0224  0.0279 -1.4093
 1827SOL    HW2 6060   7.763   1.749   5.091 -0.1476  0.2189 -1.1706
 1828SOL     OW 6061   1.408   0.636   4.037  0.1422  0.0442  0.1939
 1828SOL    HW1 6062   1.487   0.592   4.006  0.4943  1.5653 -1.1951
 1828SOL    HW2 6063   1.409   0.622   4.132  0.9106 -1.7874 -0.0528
 1829SOL     OW 6064   4.221   6.003   3.727 -0.1066  0.9317  0.1542
 1829SOL    HW1 6065   4.132   5.968   3.729  0.0950  0.2453 -1.2492
 1829SOL    HW2 6066   4.277   5.925   3.727  0.4920  1.3524  0.9306
 1830SOL     OW 6067   2.363   9.490   5.312 -0.3233 -0.2958 -0.4137
 1830SOL    HW1 6068   2.446   9.510   5.354 -0.9255  0.1898  0.5645
 1830SOL    HW2 6069   2.363   9.543   5.232  0.8350 -1.2493 -1.0959
 1831SOL     OW 6070   0.167   6.842   4.497 -0.1267  0.5253  0.9095
 1831SOL    HW1 6071   0.205   6.826   4.584  1.7334 -0.5223 -0.0464
 1831SOL    HW2 6072   0.139   6.755   4.467  2.6561  0.1925 -1.0191
 1832SOL     OW 6073   3.900   9.981   1.462  0.0655 -0.2363 -0.4481
 1832SOL    HW1 6074   3.916   9.892   1.493 -1.2468 -0.3104  0.0758
 1832SOL    HW2 6075   3.986  10.015   1.438  1.2107 -0.1935  3.2081
 1833SOL     OW 6076   6.037   7.539   5.532  0.0582  0.2289 -0.6341
 1833SOL    HW1 6077   6.128   7.530   5.504  0.1992  2.8877 -1.3766
 1833SOL    HW2 6078   6.041   7.587   5.615 -0.6616  0.2658 -0.6075
 1834SOL     OW 6079   4.328   1.234   2.913  0.2057 -0.2427  0.3397
 1834SOL    HW1 6080   4.331   1.174   2.987 -2.4659 -1.1932 -0.1931
 1834SOL    HW2 6081   4.378   1.190   2.844  0.1396 -0.8059  0.6493
 1835SOL     OW 6082   3.541   6.465   8.449 -0.1643 -0.1709  0.5783
 1835SOL    HW1 6083   3.628   6.477   8.411 -0.0980  0.1657  0.8274
 1835SOL    HW2 6084   3.542   6.377   8.487 -1.1013 -1.6194 -2.4586
 1836SOL     OW 6085   4.424   3.695   3.035 -0.7889  0.3453 -0.6135
 1836SOL    HW1 6086   4.400   3.780   2.997 -1.3954  0.3724 -0.1780
 1836SOL    HW2 6087   4.349   3.639   3.017 -0.5984  0.0382 -0.4568
 1837SOL     OW 6088   0.301   8.151   8.509 -0.4223  0.1193 -0.2747
 1837SOL    HW1 6089   0.370   8.171   8.571 -0.9031  2.1163 -0.3191
 1837SOL    HW2 6090   0.345   8.102   8.439  1.0028  1.4685 -0.3730
 1838SOL     OW 6091   2.543   9.931   0.879 -0.0930  0.1364  0.2795
 1838SOL    HW1 6092   2.473   9.876   0.915 -0.2048  0.6375  0.8269
 1838SOL    HW2 6093   2.615   9.920   0.940  0.0576  0.2077  0.1136
 1839SOL     OW 6094   9.573   6.301   7.134  0.2302 -0.1416 -0.1391
 1839SOL    HW1 6095   9.576   6.259   7.048  0.4611 -1.1527  0.3521
 1839SOL    HW2 6096   9.640   6.369   7.130  0.0829 -0.0325 -0.8360
 1840SOL     OW 6097   8.929   1.858   2.408 -0.3626 -0.0580  0.0125
 1840SOL    HW1 6098   8.870   1.871   2.333  0.3504  0.0065 -0.5583
 1840SOL    HW2 6099   9.011   1.901   2.381 -0.0397 -0.1804  0.7679
 1841SOL     OW 6100   2.663   3.475   7.563 -0.0814  0.1838 -0.5176
 1841SOL    HW1 6101   2.640   3.557   7.519 -0.4452  0.0099 -0.6547
 1841SOL    HW2 6102   2.758   3.470   7.556 -0.1458  0.0497 -1.4970
 1842SOL     OW 6103   4.413   2.124   1.589  0.6347 -0.2649 -0.0586
 1842SOL    HW1 6104   4.356   2.180   1.536 -0.0615  0.3552  1.3210
 1842SOL    HW2 6105   4.372   2.038   1.586  0.0776 -0.0135  0.2437
 1843SOL     OW 6106   3.166   1.913   2.705 -0.7535  0.0625  0.3516
 1843SOL    HW1 6107   3.213   1.961   2.774 -1.6809  0.2648  0.8567
 1843SOL    HW2 6108   3.079   1.952   2.704 -0.3380  1.0709 -1.9633
 1844SOL     OW 6109   5.195   1.437   7.630 -0.0718 -0.3722 -0.0105
 1844SOL    HW1 6110   5.193   1.530   7.606 -0.1292 -0.5303 -0.6496
 1844SOL    HW2 6111   5.268   1.429   7.692  0.5082 -0.0530 -0.6397
 1845SOL     OW 6112   0.034   7.137   4.380 -0.1475 -0.3235  0.2511
 1845SOL    HW1 6113  -0.060   7.147   4.398  0.1885  0.3201  1.8534
 1845SOL    HW2 6114   0.047   7.042   4.377 -0.8249 -0.4215  0.1690
 1846SOL     OW 6115   1.755   3.858   4.956  0.2568  0.2521  0.2132
 1846SOL    HW1 6116   1.673   3.813   4.938  0.3180  0.7569 -1.4783
 1846SOL    HW2 6117   1.757   3.867   5.051 -0.9797 -0.9893  0.3890
 1847SOL     OW 6118   0.965   6.361   0.297  0.0056 -0.2628  0.0924
 1847SOL    HW1 6119   0.994   6.300   0.365 -0.1967 -1.5047 -0.8757
 1847SOL    HW2 6120   1.038   6.422   0.287 -1.0754  1.7687  3.3676
 1848SOL     OW 6121   4.423   3.509   7.653  0.1600 -0.0174  0.3106
 1848SOL    HW1 6122   4.482   3.503   7.577  0.1121 -0.4110  0.3037
 1848SOL    HW2 6123   4.347   3.558   7.620  0.3999  0.3345  0.2709
 1849SOL     OW 6124   3.678   4.658   5.599  0.3812 -0.6463  0.0754
 1849SOL    HW1 6125   3.709   4.742   5.567 -2.8936  0.6406 -0.1227
 1849SOL    HW2 6126   3.728   4.593   5.550  0.7649  1.2137 -2.1532
 1850SOL     OW 6127   0.332   3.853   2.884 -0.3497  0.6313  0.3301
 1850SOL    HW1 6128   0.274   3.786   2.848 -1.6575  2.0557 -0.3345
 1850SOL    HW2 6129   0.419   3.829   2.853 -0.5326 -1.5428  1.3268
 1851SOL     OW 6130   3.010   5.045   8.093 -0.2050 -0.0563 -0.4440
 1851SOL    HW1 6131   3.096   5.085   8.084  1.2447 -2.6687  0.5371
 1851SOL    HW2 6132   2.973   5.083   8.172 -0.1707  1.3570 -1.0724
 1852SOL     OW 6133   0.351   6.992   9.446  0.1307  0.0356  0.1647
 1852SOL    HW1 6134   0.325   6.912   9.492 -0.5380  0.7362  1.0421
 1852SOL    HW2 6135   0.435   7.016   9.486 -0.2558  0.4243  0.7608
 1853SOL     OW 6136   4.879   8.350   6.419  0.3302  0.3789  0.3916
 1853SOL    HW1 6137   4.854   8.442   6.417  0.4098  0.3940  0.1128
 1853SOL    HW2 6138   4.974   8.351   6.417  0.3260  0.2829  0.1268
 1854SOL     OW 6139   4.131   6.416   9.460 -0.0112 -0.1249 -0.3665
 1854SOL    HW1 6140   4.065   6.462   9.407 -1.4884  0.3438  1.7423
 1854SOL    HW2 6141   4.168   6.484   9.517 -0.3892 -1.0372  1.0246
 1855SOL     OW 6142   9.152   0.387   3.295 -0.0527  0.2541 -0.2303
 1855SOL    HW1 6143   9.167   0.298   3.261 -0.6984 -0.0407  0.2347
 1855SOL    HW2 6144   9.097   0.374   3.372 -0.9368  1.1339 -0.7014
 1856SOL     OW 6145   6.695   6.584   2.677  0.4545  1.0911 -0.0663
 1856SOL    HW1 6146   6.676   6.647   2.747 -0.5160 -0.3566  1.0323
 1856SOL    HW2 6147   6.626   6.600   2.612  0.0495  0.9964  0.3324
 1857SOL     OW 6148   5.955   6.752   1.704 -0.5640 -0.0476  0.3865
 1857SOL    HW1 6149   5.865   6.763   1.734 -0.3504  0.8713  0.7239
 1857SOL    HW2 6150   6.001   6.717   1.780 -0.6497 -0.6097  0.1846
 1858SOL     OW 6151   3.294   6.070   8.959  0.0685 -0.2437  0.0778
 1858SOL    HW1 6152   3.389   6.061   8.953  0.1041  0.1616  0.0153
 1858SOL    HW2 6153   3.276   6.067   9.053  0.5430  3.4210  0.4254
 1859SOL     OW 6154   1.903   9.087   1.445 -0.7793 -0.1128 -0.0393
 1859SOL    HW1 6155   1.985   9.130   1.470 -0.4304 -1.0542  0.4752
 1859SOL    HW2 6156   1.871   9.138   1.370 -1.0265  1.7800  1.2904
 1860SOL     OW 6157   0.133   8.245   2.863  0.1737  0.0969 -0.3947
 1860SOL    HW1 6158   0.158   8.174   2.923  0.1080  0.7044  0.3735
 1860SOL    HW2 6159   0.173   8.221   2.780  0.6644 -0.5388  0.0106
 1861SOL     OW 6160   3.990   8.268   8.993 -1.0248  0.3277  0.7807
 1861SOL    HW1 6161   4.021   8.355   9.016 -1.1909  1.0148 -1.3325
 1861SOL    HW2 6162   4.062   8.210   9.017  0.3087  1.4191 -0.4089
 1862SOL     OW 6163   7.892   8.973   4.761 -0.1216 -0.0367 -0.0358
 1862SOL    HW1 6164   7.866   8.948   4.672 -0.0292  0.1210 -0.1069
 1862SOL    HW2 6165   7.816   9.022   4.794 -0.1792 -0.1473 -0.0065
 1863SOL     OW 6166   9.348   3.870   6.488 -0.0530  0.7961 -0.2056
 1863SOL    HW1 6167   9.276   3.927   6.514  0.5629  1.5313 -0.0816
 1863SOL    HW2 6168   9.391   3.917   6.417 -0.4141 -0.1960 -1.1153
 1864SOL     OW 6169   2.379   5.438   9.429 -0.2510  0.1607  0.0897
 1864SOL    HW1 6170   2.326   5.411   9.503  1.4790 -0.2780  1.2379
 1864SOL    HW2 6171   2.354   5.529   9.412 -0.2653  0.4633  1.6204
 1865SOL     OW 6172   1.105   8.287   6.958 -0.2716 -0.6820 -0.0755
 1865SOL    HW1 6173   1.177   8.320   6.905  0.2947 -2.8215 -0.7486
 1865SOL    HW2 6174   1.130   8.308   7.048 -1.4693  3.4190 -0.5258
 1866SOL     OW 6175   8.267   2.522   1.982 -0.2588 -0.1031 -0.3425
 1866SOL    HW1 6176   8.231   2.459   2.043  0.2520 -0.0680  0.0007
 1866SOL    HW2 6177   8.345   2.555   2.025 -0.8330  1.1961 -0.2665
 1867SOL     OW 6178   8.786   4.923   8.575  0.0143 -0.5255  0.3441
 1867SOL    HW1 6179   8.716   4.943   8.637 -0.5877 -0.4699 -0.3432
 1867SOL    HW2 6180   8.774   4.986   8.504  1.2191 -0.0274  0.5645
 1868SOL     OW 6181   2.407   5.288   8.660  0.0514  0.0951 -0.0434
 1868SOL    HW1 6182   2.426   5.195   8.673 -3.4508 -0.7525  0.0887
 1868SOL    HW2 6183   2.377   5.318   8.746 -0.7674  0.7536 -0.5406
 1869SOL     OW 6184   1.469   5.271   0.301 -0.1598  0.1712 -0.2521
 1869SOL    HW1 6185   1.430   5.356   0.323 -2.0807 -0.6449 -0.2686
 1869SOL    HW2 6186   1.396   5.221   0.264  0.7639 -1.7162  0.3774
 1870SOL     OW 6187   8.238   0.861   4.080  0.5031  0.4902  0.5993
 1870SOL    HW1 6188   8.308   0.800   4.104  0.9617  0.0091 -1.7167
 1870SOL    HW2 6189   8.259   0.887   3.990 -1.3252  1.7442  0.4857
 1871SOL     OW 6190   3.775   2.935   4.608  0.3300  0.0174 -0.4789
 1871SOL    HW1 6191   3.808   2.869   4.548  0.3816 -0.6098  0.2213
 1871SOL    HW2 6192   3.759   2.888   4.690 -0.9453  0.5891 -0.3637
 1872SOL     OW 6193   6.366   9.817   4.686 -0.2388 -0.2023 -0.0598
 1872SOL    HW1 6194   6.277   9.785   4.700  0.1372 -0.8358  0.9690
 1872SOL    HW2 6195   6.367   9.904   4.728 -0.7848  0.4880 -1.4093
 1873SOL     OW 6196   8.260   7.919   4.550  0.2253  0.1661 -0.2302
 1873SOL    HW1 6197   8.242   7.943   4.641 -1.4612 -2.9655  0.4039
 1873SOL    HW2 6198   8.340   7.867   4.555  1.7419  2.3141 -1.0294
 1874SOL     OW 6199   4.698   2.680   1.388  0.0779  0.1281  0.3828
 1874SOL    HW1 6200   4.713   2.587   1.369  1.6140  0.2079  1.0768
 1874SOL    HW2 6201   4.637   2.680   1.462 -1.1281 -0.2710 -0.5699
 1875SOL     OW 6202   3.600   9.025   3.315  0.3081 -0.1699 -0.4840
 1875SOL    HW1 6203   3.544   9.099   3.341 -0.1187 -0.6935  0.1400
 1875SOL    HW2 6204   3.585   8.959   3.383  2.1608 -0.1026  0.0351
 1876SOL     OW 6205   4.309   0.391   6.413 -0.0081 -0.4784 -0.0309
 1876SOL    HW1 6206   4.243   0.460   6.413 -0.1202 -0.5836  0.3733
 1876SOL    HW2 6207   4.332   0.379   6.320 -1.6028 -1.4455 -0.3383
 1877SOL     OW 6208   7.186   5.354   9.204 -0.1305  0.1600  0.7064
 1877SOL    HW1 6209   7.174   5.260   9.186 -1.2913  0.3295  0.4634
 1877SOL    HW2 6210   7.229   5.388   9.126 -1.8673  0.2274 -0.2858
 1878SOL     OW 6211   1.384   5.527   6.539 -0.0210  0.4208  0.7159
 1878SOL    HW1 6212   1.335   5.470   6.481  1.8366 -1.3465  0.7806
 1878SOL    HW2 6213   1.317   5.568   6.594 -1.6290  0.4589 -1.1691
 1879SOL     OW 6214   9.503   6.961   5.401 -0.3508  0.5356  0.5860
 1879SOL    HW1 6215   9.581   6.918   5.435 -0.5205  0.0100  0.3117
 1879SOL    HW2 6216   9.484   6.917   5.318 -0.0134  1.7234 -0.1500
 1880SOL     OW 6217   1.180   0.355   9.877 -0.0197  0.0064 -0.4548
 1880SOL    HW1 6218   1.229   0.275   9.895 -1.3845 -0.7272  0.2146
 1880SOL    HW2 6219   1.097   0.325   9.839 -0.4168  1.1216 -0.5298
 1881SOL     OW 6220   1.387   7.056   0.902  0.0891  0.3260 -0.0611
 1881SOL    HW1 6221   1.417   7.071   0.991  1.6109 -3.2993  0.2217
 1881SOL    HW2 6222   1.446   7.110   0.848  1.2848  0.1250  0.9794
 1882SOL     OW 6223   4.051   7.456   3.593 -0.1001  0.0089 -0.1942
 1882SOL    HW1 6224   3.996   7.511   3.648  0.1189 -0.3238  0.3635
 1882SOL    HW2 6225   4.046   7.496   3.506 -0.1967  0.7159  0.1332
 1883SOL     OW 6226   0.314   7.410   7.752  0.0832 -0.1354 -0.2519
 1883SOL    HW1 6227   0.257   7.359   7.694  1.5447 -0.3807 -1.5668
 1883SOL    HW2 6228   0.386   7.350   7.772  1.4458  1.1077 -1.2076
 1884SOL     OW 6229   8.559   9.079   9.100 -0.0905  0.2566 -0.0336
 1884SOL    HW1 6230   8.464   9.087   9.099 -0.0248  1.1073 -0.4343
 1884SOL    HW2 6231   8.585   9.092   9.009  0.4798  0.9894  0.2292
 1885SOL     OW 6232   3.197   3.068   3.942  0.2771  0.0365 -0.1037
 1885SOL    HW1 6233   3.124   3.035   3.890  0.7742  0.0656 -0.8277
 1885SOL    HW2 6234   3.247   2.989   3.966  0.0850  0.0285  0.2862
 1886SOL     OW 6235   2.962   1.015   5.580 -0.5815 -0.0992  0.3895
 1886SOL    HW1 6236   2.904   1.045   5.649 -1.7939  1.1348 -1.1215
 1886SOL    HW2 6237   3.006   1.094   5.549  0.9482 -0.8232  0.5770
 1887SOL     OW 6238   1.142   6.773   6.002  0.3776  0.0862  0.0154
 1887SOL    HW1 6239   1.080   6.711   5.962 -0.8967 -0.0295  2.0117
 1887SOL    HW2 6240   1.086   6.845   6.032  1.2324  0.0763  1.6995
 1888SOL     OW 6241   0.055   9.354   4.224 -0.6069  0.1944  0.4055
 1888SOL    HW1 6242   0.115   9.291   4.264 -0.2676 -0.1800 -0.6662
 1888SOL    HW2 6243  -0.032   9.320   4.242 -0.4767  0.2377  1.1491
 1889SOL     OW 6244   9.848   3.598   6.033  0.1406  0.2529  0.3678
 1889SOL    HW1 6245   9.797   3.661   6.083  0.9350  1.0524  0.1806
 1889SOL    HW2 6246   9.936   3.634   6.032 -0.2351  1.4219 -3.4377
 1890SOL     OW 6247   2.320   2.073   6.029 -0.4900  0.1470 -0.5012
 1890SOL    HW1 6248   2.409   2.065   6.061 -0.4554  0.7566 -0.4355
 1890SOL    HW2 6249   2.299   1.986   5.994 -0.1762 -0.2390  0.2470
 1891SOL     OW 6250   1.979   5.234   5.420 -0.0367 -0.2087 -0.1961
 1891SOL    HW1 6251   2.024   5.179   5.355 -2.5576 -1.4572 -1.0312
 1891SOL    HW2 6252   1.983   5.322   5.383  3.7876  0.3360  1.0045
 1892SOL     OW 6253   5.245   6.283   7.428  0.1914 -0.3917 -0.6664
 1892SOL    HW1 6254   5.218   6.374   7.417 -3.0376 -1.1534  0.1124
 1892SOL    HW2 6255   5.336   6.282   7.397  0.5083  3.1386 -0.3133
 1893SOL     OW 6256   6.967   3.549   6.416 -0.1002 -0.1976  0.3770
 1893SOL    HW1 6257   6.936   3.462   6.441 -1.0183 -0.3859 -1.2912
 1893SOL    HW2 6258   7.040   3.533   6.356  2.7345  0.2445  3.3634
 1894SOL     OW 6259   6.551   5.641   9.075 -0.0446 -0.5179  0.0667
 1894SOL    HW1 6260   6.513   5.651   8.987 -2.3228  0.3987  1.0757
 1894SOL    HW2 6261   6.640   5.674   9.066 -0.2717 -0.3313 -1.8783
 1895SOL     OW 6262   6.080   7.498   5.054  0.1363  0.2262  0.7117
 1895SOL    HW1 6263   6.045   7.443   4.984  0.8326  0.4312  0.1857
 1895SOL    HW2 6264   6.124   7.570   5.008  2.1716 -0.5915  1.2888
 1896SOL     OW 6265   1.474   3.823   1.324 -0.1015 -0.2434  0.0999
 1896SOL    HW1 6266   1.435   3.741   1.295 -0.4001 -0.4014  0.9173
 1896SOL    HW2 6267   1.551   3.797   1.373 -1.0037 -0.1370  1.6289
 1897SOL     OW 6268   5.819   6.168   6.006  0.1561  0.1279  0.1348
 1897SOL    HW1 6269   5.854   6.250   5.970 -0.8543  0.8959  0.8335
 1897SOL    HW2 6270   5.740   6.195   6.053  0.0662 -1.1965  0.7736
 1898SOL     OW 6271   9.272   6.799   0.181  0.1798 -0.2600  0.0326
 1898SOL    HW1 6272   9.252   6.868   0.244  0.7053  0.9852 -1.1190
 1898SOL    HW2 6273   9.203   6.807   0.115  1.8526  1.1544 -1.6502
 1899SOL     OW 6274   6.736   2.960   9.028 -0.3995 -0.1513 -0.3728
 1899SOL    HW1 6275   6.768   2.921   8.947  0.1798 -0.8196  0.1703
 1899SOL    HW2 6276   6.642   2.940   9.028 -0.6137  0.7120 -1.3436
 1900SOL     OW 6277   8.528   0.130   2.337 -0.3790  0.0848  0.0715
 1900SOL    HW1 6278   8.500   0.077   2.261 -0.9683  1.0631 -0.4089
 1900SOL    HW2 6279   8.451   0.182   2.359  0.0358  0.3594  0.8755
 1901SOL     OW 6280   6.897   0.949   2.341  0.3109  0.8060 -0.4574
 1901SOL    HW1 6281   6.824   0.933   2.281 -0.5521 -1.5061  1.0461
 1901SOL    HW2 6282   6.956   1.007   2.293 -0.3458 -0.8468 -3.5000
 1902SOL     OW 6283   9.190   3.036   3.529  0.2342  0.8454  0.5765
 1902SOL    HW1 6284   9.104   3.001   3.507  0.6861 -0.2500  0.5271
 1902SOL    HW2 6285   9.229   3.059   3.444  0.8674 -0.7661  0.4027
 1903SOL     OW 6286   6.619   1.195   4.001 -0.5194  0.4233 -0.1419
 1903SOL    HW1 6287   6.553   1.216   4.067 -0.4354  1.0528 -0.2475
 1903SOL    HW2 6288   6.697   1.243   4.029 -0.6834  1.2706 -1.0619
 1904SOL     OW 6289   4.069   1.842   7.584 -0.0011 -0.5712  0.7576
 1904SOL    HW1 6290   4.159   1.808   7.587  0.3565  0.2636  0.0221
 1904SOL    HW2 6291   4.014   1.763   7.579  0.8833 -1.1477 -2.6780
 1905SOL     OW 6292   6.011   6.011   2.023  0.5174  0.4786  0.4741
 1905SOL    HW1 6293   6.097   6.053   2.032  1.1884 -0.5708 -0.6488
 1905SOL    HW2 6294   6.022   5.925   2.064  0.2338  0.0639 -0.2916
 1906SOL     OW 6295   8.200   2.959   8.633 -0.8064  0.5327  0.9295
 1906SOL    HW1 6296   8.244   3.040   8.658  0.4451 -0.4854  2.2433
 1906SOL    HW2 6297   8.186   2.913   8.716 -3.5374  0.3533  0.4591
 1907SOL     OW 6298   8.489   9.789   1.054  0.5117 -0.1446 -0.5395
 1907SOL    HW1 6299   8.435   9.710   1.051  1.4353 -0.8498  0.5822
 1907SOL    HW2 6300   8.492   9.814   1.146  2.4701 -0.4287 -0.4788
 1908SOL     OW 6301   6.128   3.868   0.571 -0.2817 -0.1247 -0.4327
 1908SOL    HW1 6302   6.092   3.882   0.483 -1.0405 -0.4508 -0.1818
 1908SOL    HW2 6303   6.072   3.919   0.628 -0.0146 -0.2066 -0.0953
 1909SOL     OW 6304   2.611   0.860   3.035  0.0936 -0.0118 -0.4087
 1909SOL    HW1 6305   2.530   0.832   2.993  0.4405  0.5883 -1.5232
 1909SOL    HW2 6306   2.662   0.900   2.964 -0.2806  3.2421  0.9617
 1910SOL     OW 6307   5.473   9.768   4.419 -0.1183 -0.1549 -0.1736
 1910SOL    HW1 6308   5.538   9.703   4.392  1.1469 -0.0820  2.3749
 1910SOL    HW2 6309   5.516   9.817   4.489 -2.2305  1.2391  0.2369
 1911SOL     OW 6310   3.789   3.660   1.608  0.2849  0.8013  0.5241
 1911SOL    HW1 6311   3.868   3.708   1.585 -0.0116  1.4177  0.7707
 1911SOL    HW2 6312   3.750   3.636   1.525  0.3329  1.1627  0.3956
 1912SOL     OW 6313   1.542   8.678   7.295  0.5510  0.6588 -0.0516
 1912SOL    HW1 6314   1.448   8.680   7.279  1.0322  1.2368 -3.5783
 1912SOL    HW2 6315   1.572   8.597   7.253  1.9600  2.0086 -1.7912
 1913SOL     OW 6316   8.122   9.905   1.429 -0.0319 -0.2073  0.2259
 1913SOL    HW1 6317   8.183   9.869   1.493 -1.1173 -0.0304  1.3992
 1913SOL    HW2 6318   8.036   9.900   1.471 -0.7313  0.3059 -1.0533
 1914SOL     OW 6319   4.880   1.816   6.231  0.0773  0.6709  0.8895
 1914SOL    HW1 6320   4.893   1.726   6.200 -1.6557 -0.4072  3.0056
 1914SOL    HW2 6321   4.816   1.853   6.170 -0.2427 -0.0063  0.8061
 1915SOL     OW 6322   7.393   2.962   2.676 -0.4940  0.0891  0.4121
 1915SOL    HW1 6323   7.399   2.867   2.682 -0.6212 -0.1415 -2.1741
 1915SOL    HW2 6324   7.452   2.986   2.605 -1.0367  1.8837  0.5173
 1916SOL     OW 6325   2.680   6.148   6.366  0.1734 -0.1086 -0.1677
 1916SOL    HW1 6326   2.692   6.100   6.284  0.6101 -0.6478  0.2033
 1916SOL    HW2 6327   2.601   6.200   6.352  0.1283 -0.3525 -0.8590
 1917SOL     OW 6328   6.228   8.677   7.934  0.5660  0.1534  0.1566
 1917SOL    HW1 6329   6.168   8.749   7.914  1.0917  0.5057 -0.1965
 1917SOL    HW2 6330   6.172   8.600   7.938  0.1962  0.3376 -1.0081
 1918SOL     OW 6331   7.998   4.352   0.860 -0.0204 -0.3370  0.0650
 1918SOL    HW1 6332   8.008   4.434   0.907 -0.9597 -1.0806  1.6414
 1918SOL    HW2 6333   8.056   4.360   0.784  0.3729  1.5070  0.5283
 1919SOL     OW 6334   2.278   9.043   0.091  0.3875  0.2599  0.3991
 1919SOL    HW1 6335   2.200   9.098   0.097 -0.3663 -0.8191  0.5703
 1919SOL    HW2 6336   2.253   8.960   0.130  1.5898 -0.1467  0.3545
 1920SOL     OW 6337   2.096   8.594   6.295 -0.9042 -0.3502 -0.0864
 1920SOL    HW1 6338   2.071   8.652   6.367  0.0576 -0.4408  0.3334
 1920SOL    HW2 6339   2.014   8.550   6.270 -1.1809 -0.6580  1.2552
 1921SOL     OW 6340   7.140   3.619   1.541 -0.8769 -0.4742 -0.1228
 1921SOL    HW1 6341   7.126   3.557   1.612 -0.0360  0.3351  0.7712
 1921SOL    HW2 6342   7.235   3.634   1.540 -1.0665  0.8601 -0.2420
 1922SOL     OW 6343   2.307   5.962   2.680 -0.3875 -0.3887 -0.3406
 1922SOL    HW1 6344   2.280   5.982   2.770  0.1414 -0.8103 -0.0795
 1922SOL    HW2 6345   2.393   5.920   2.690  0.2378  0.6708 -1.1345
 1923SOL     OW 6346   3.661   9.403   6.093 -0.0801 -0.0563  0.6969
 1923SOL    HW1 6347   3.743   9.432   6.053 -1.1559  1.2872 -0.6257
 1923SOL    HW2 6348   3.666   9.436   6.183  0.1985  1.3002  0.1989
 1924SOL     OW 6349   3.178   3.786   9.762  0.7897 -0.2437 -0.4105
 1924SOL    HW1 6350   3.233   3.719   9.802  0.8231 -0.6312 -1.0840
 1924SOL    HW2 6351   3.192   3.864   9.816  0.5852 -0.8322  0.5053
 1925SOL     OW 6352   5.347   8.542   5.182 -0.5919  0.2355 -0.4724
 1925SOL    HW1 6353   5.396   8.492   5.247 -1.4027 -0.2056 -0.1951
 1925SOL    HW2 6354   5.406   8.613   5.157 -0.6107  0.9819  1.4399
 1926SOL     OW 6355   8.974   1.304   0.588 -0.7664  0.7709  0.2149
 1926SOL    HW1 6356   8.903   1.330   0.647  0.0531  1.8414  0.7532
 1926SOL    HW2 6357   8.950   1.341   0.504 -1.5370 -0.0691  0.0518
 1927SOL     OW 6358   2.304   3.249   1.945  0.0347 -0.1668  0.2824
 1927SOL    HW1 6359   2.321   3.265   2.038  0.2015  1.0416  0.0522
 1927SOL    HW2 6360   2.313   3.334   1.903 -1.2689 -0.4716 -0.6689
 1928SOL     OW 6361   3.780   8.226   3.635  0.0479 -0.4324 -0.2308
 1928SOL    HW1 6362   3.817   8.314   3.638  0.0611 -0.4641  0.7175
 1928SOL    HW2 6363   3.691   8.235   3.668 -0.1417 -0.6837 -0.6648
 1929SOL     OW 6364   7.341   5.841   4.112 -0.0928  0.0483  0.4173
 1929SOL    HW1 6365   7.390   5.875   4.187  1.0874  0.1607 -0.3700
 1929SOL    HW2 6366   7.350   5.746   4.119 -0.1590  0.0501  0.5294
 1930SOL     OW 6367   8.299   4.644   8.413  0.2862 -0.4699  0.3143
 1930SOL    HW1 6368   8.205   4.623   8.409  0.7689 -2.9255  0.0978
 1930SOL    HW2 6369   8.321   4.633   8.505  0.3068  0.3933  0.4115
 1931SOL     OW 6370   2.492   8.328   1.283  0.1895 -0.2771  0.2166
 1931SOL    HW1 6371   2.500   8.329   1.187 -0.3252  2.7316  0.0996
 1931SOL    HW2 6372   2.582   8.321   1.315  0.6039  1.2421 -0.5511
 1932SOL     OW 6373   8.725   8.380   7.496  0.5943 -0.5908 -0.4015
 1932SOL    HW1 6374   8.727   8.330   7.577 -1.3811 -1.1056 -0.6034
 1932SOL    HW2 6375   8.691   8.466   7.522  2.8262  0.2997 -0.2484
 1933SOL     OW 6376   4.210   7.725   7.488  0.0930  0.1550 -0.7021
 1933SOL    HW1 6377   4.299   7.709   7.458  0.2334 -1.1098  0.3018
 1933SOL    HW2 6378   4.219   7.795   7.553  0.5446 -0.6830  0.1802
 1934SOL     OW 6379   4.094   1.201   6.828 -0.4221  0.2673  0.1167
 1934SOL    HW1 6380   4.080   1.112   6.796 -2.8073  0.4553  0.4433
 1934SOL    HW2 6381   4.166   1.193   6.891 -2.1899 -1.9956  2.0475
 1935SOL     OW 6382   3.647   7.425   9.367  0.1965 -0.0854 -0.0206
 1935SOL    HW1 6383   3.566   7.449   9.412  0.1443 -1.0543  0.4389
 1935SOL    HW2 6384   3.636   7.332   9.348 -0.3713  0.5529 -3.2990
 1936SOL     OW 6385   6.410   9.755   0.654 -0.3478 -0.6104 -0.1188
 1936SOL    HW1 6386   6.415   9.711   0.740  0.2725 -1.1470 -0.4146
 1936SOL    HW2 6387   6.367   9.691   0.597 -1.0940 -0.1088 -0.1275
 1937SOL     OW 6388   8.431   9.229   6.786  0.5737 -0.5013 -0.2202
 1937SOL    HW1 6389   8.486   9.286   6.731  1.0051 -0.6808  0.0199
 1937SOL    HW2 6390   8.428   9.272   6.871  0.3522 -0.4993 -0.2284
 1938SOL     OW 6391   6.163   8.103   9.099 -0.5080  0.3106  0.2633
 1938SOL    HW1 6392   6.222   8.042   9.056  0.3969  0.4432  1.2680
 1938SOL    HW2 6393   6.084   8.102   9.046  0.2664 -0.1381 -0.9179
 1939SOL     OW 6394   5.706   8.893   3.644 -0.8035 -0.5289 -0.2800
 1939SOL    HW1 6395   5.788   8.844   3.643 -0.2259  0.4162 -0.1069
 1939SOL    HW2 6396   5.712   8.950   3.567 -0.7282  0.4493  0.4382
 1940SOL     OW 6397   0.748   8.225   5.764  0.1681  0.1205  0.5854
 1940SOL    HW1 6398   0.750   8.237   5.669 -0.4313  1.9018  0.7662
 1940SOL    HW2 6399   0.686   8.291   5.795 -1.5682 -2.0246  1.9978
 1941SOL     OW 6400   3.215   3.754   8.976  0.6335  0.1380  0.2521
 1941SOL    HW1 6401   3.283   3.821   8.970  0.7531 -0.0337 -0.4663
 1941SOL    HW2 6402   3.135   3.798   8.946  0.7146 -0.0386 -0.2331
 1942SOL     OW 6403   4.063   7.580   4.568  0.4382  0.6512  0.2538
 1942SOL    HW1 6404   4.073   7.497   4.614 -0.5430  0.3020 -0.1235
 1942SOL    HW2 6405   4.083   7.647   4.633  1.1588  0.1199  0.5859
 1943SOL     OW 6406   7.691   7.078   6.027  0.7403 -0.5304  0.4933
 1943SOL    HW1 6407   7.737   6.994   6.022  1.0480 -0.3206 -0.5328
 1943SOL    HW2 6408   7.751   7.140   5.986 -0.3595 -0.2077 -0.6767
 1944SOL     OW 6409   7.467   0.116   0.284 -0.6428 -0.1611  0.1510
 1944SOL    HW1 6410   7.396   0.171   0.252 -0.3072  0.8431  1.0678
 1944SOL    HW2 6411   7.504   0.075   0.205 -0.5977  1.2954 -0.6120
 1945SOL     OW 6412   7.442   8.934   1.007  0.5237  0.2594  0.3207
 1945SOL    HW1 6413   7.528   8.966   1.034  0.3308  2.0629 -1.0321
 1945SOL    HW2 6414   7.381   8.973   1.070  0.5573  0.1105  0.4466
 1946SOL     OW 6415   0.116   7.188   2.466 -0.4785 -0.2227 -0.0528
 1946SOL    HW1 6416   0.092   7.142   2.546  1.3318  1.4974  1.6118
 1946SOL    HW2 6417   0.167   7.125   2.415 -0.3908 -0.8980  0.8608
 1947SOL     OW 6418   0.717   7.840   6.928 -0.2852 -0.5912 -0.0850
 1947SOL    HW1 6419   0.802   7.812   6.960  0.1765  1.1557  0.2829
 1947SOL    HW2 6420   0.660   7.837   7.005  0.1135  0.7685  0.2945
 1948SOL     OW 6421   4.091   5.618   2.168  0.1737 -0.2163  0.4670
 1948SOL    HW1 6422   4.017   5.586   2.219  0.7796  0.5697  1.8985
 1948SOL    HW2 6423   4.153   5.650   2.233  1.5203 -0.3020 -0.7250
 1949SOL     OW 6424   4.324   3.329   2.229 -0.4516 -0.4378 -0.4176
 1949SOL    HW1 6425   4.381   3.310   2.154 -0.0103 -0.5204 -0.0680
 1949SOL    HW2 6426   4.300   3.244   2.264  0.2287 -0.4029  0.1812
 1950SOL     OW 6427   4.578   6.555   0.578 -0.0527  0.4093 -0.8301
 1950SOL    HW1 6428   4.614   6.601   0.502  0.2668 -0.8981 -1.4875
 1950SOL    HW2 6429   4.484   6.570   0.572  0.0156  0.7085 -1.2098
 1951SOL     OW 6430   8.109   5.082   9.749  0.5473 -0.3060  0.4003
 1951SOL    HW1 6431   8.102   5.172   9.718 -0.6440 -0.9819 -1.4451
 1951SOL    HW2 6432   8.029   5.039   9.719  2.4319 -2.7807 -1.6225
 1952SOL     OW 6433   1.135   2.238   1.327  0.1416 -0.4070  0.1788
 1952SOL    HW1 6434   1.112   2.208   1.415  0.7731 -1.0561  0.1305
 1952SOL    HW2 6435   1.053   2.272   1.291  0.2380  1.6215  1.6783
 1953SOL     OW 6436   8.895   3.293   2.862 -0.6662 -0.0994  0.5726
 1953SOL    HW1 6437   8.835   3.331   2.798 -2.0818  0.6091  2.2547
 1953SOL    HW2 6438   8.928   3.213   2.820 -2.4175 -0.2522 -0.5881
 1954SOL     OW 6439   3.747   0.042   0.055 -0.1656 -0.7611  0.1444
 1954SOL    HW1 6440   3.664   0.043   0.007 -0.7612  1.2790  1.1403
 1954SOL    HW2 6441   3.727  -0.003   0.137  0.1174 -1.5820 -0.2193
 1955SOL     OW 6442   3.586   2.872   5.217 -0.3166  0.0763 -0.1552
 1955SOL    HW1 6443   3.503   2.851   5.261 -0.2258  0.9284  0.4587
 1955SOL    HW2 6444   3.563   2.940   5.154  0.3351  2.4928  2.0335
 1956SOL     OW 6445   3.233   7.235   0.402 -0.0189 -0.3856  0.4134
 1956SOL    HW1 6446   3.169   7.234   0.473  0.4420 -0.4546  0.8344
 1956SOL    HW2 6447   3.252   7.143   0.384  0.8415 -0.3613  1.1082
 1957SOL     OW 6448   0.474   6.923   0.111 -0.0992  0.2840 -0.2336
 1957SOL    HW1 6449   0.485   6.981   0.186  0.6047  0.9197 -0.8111
 1957SOL    HW2 6450   0.553   6.869   0.110  1.0416  1.8425 -1.8149
 1958SOL     OW 6451   3.490   2.447   8.076  0.4876  0.3503  0.0834
 1958SOL    HW1 6452   3.576   2.462   8.037  0.4869 -0.3287 -0.1961
 1958SOL    HW2 6453   3.498   2.482   8.165  1.1265  0.0823  0.1371
 1959SOL     OW 6454   6.455   8.206   9.431  0.2579 -0.0338  0.6197
 1959SOL    HW1 6455   6.417   8.244   9.352 -0.7744 -1.7687  0.2158
 1959SOL    HW2 6456   6.518   8.271   9.462 -0.9957  1.6986 -0.3185
 1960SOL     OW 6457   2.711   7.894   4.424  0.2443 -0.3069  0.4552
 1960SOL    HW1 6458   2.708   7.833   4.350  0.5352  1.5189 -1.1411
 1960SOL    HW2 6459   2.790   7.870   4.472  0.0076 -1.5701  0.2506
 1961SOL     OW 6460   2.403   5.781   3.067  0.2070  0.2965 -0.0119
 1961SOL    HW1 6461   2.444   5.823   2.992 -0.6338  2.1188  0.4693
 1961SOL    HW2 6462   2.437   5.829   3.143 -0.9853  0.3002  0.5512
 1962SOL     OW 6463   1.639   4.121   6.535  0.5715 -0.0979 -0.2369
 1962SOL    HW1 6464   1.603   4.175   6.463  0.1729 -1.0813 -0.7948
 1962SOL    HW2 6465   1.567   4.063   6.559  1.2000 -0.8377 -0.1031
 1963SOL     OW 6466   0.693   1.998   2.696 -0.3506  0.2824 -0.4744
 1963SOL    HW1 6467   0.689   2.092   2.711 -2.5796  0.0605  0.7047
 1963SOL    HW2 6468   0.619   1.979   2.639 -0.7373 -0.9204  0.3848
 1964SOL     OW 6469   7.543   5.263   9.488  0.6511 -0.1507 -0.1420
 1964SOL    HW1 6470   7.633   5.242   9.463  1.2739  0.7970  1.1499
 1964SOL    HW2 6471   7.526   5.349   9.450 -0.2416 -0.9233 -1.5663
 1965SOL     OW 6472   1.389   5.811   6.481  0.4828 -0.6589 -0.3198
 1965SOL    HW1 6473   1.387   5.734   6.424  2.2402 -1.2387  0.3198
 1965SOL    HW2 6474   1.302   5.813   6.522  0.2148 -1.9866 -0.7587
 1966SOL     OW 6475   7.231   0.930   6.465  0.0436 -0.3916 -0.0027
 1966SOL    HW1 6476   7.199   0.974   6.544 -1.0235  0.5684 -0.9362
 1966SOL    HW2 6477   7.281   0.855   6.497  0.6454  0.6555  1.6125
 1967SOL     OW 6478   4.847   1.954   7.875 -0.3542  0.0957 -0.5991
 1967SOL    HW1 6479   4.860   1.915   7.962 -0.4647 -0.4942 -0.8422
 1967SOL    HW2 6480   4.826   1.879   7.819  2.2230  0.1017 -1.6828
 1968SOL     OW 6481   0.503   8.878   5.612 -0.0231 -0.1517  0.2751
 1968SOL    HW1 6482   0.531   8.815   5.547 -1.5523 -0.6626  0.0860
 1968SOL    HW2 6483   0.432   8.835   5.660 -0.7046  1.1823  0.5305
 1969SOL     OW 6484   8.204   5.369   0.561 -0.1530 -0.0662  0.2080
 1969SOL    HW1 6485   8.176   5.314   0.634  0.0298  0.8440  0.9818
 1969SOL    HW2 6486   8.180   5.457   0.588  0.1665  0.3075 -0.7225
 1970SOL     OW 6487   2.133   1.520   2.829  0.1524 -0.2147  0.0206
 1970SOL    HW1 6488   2.127   1.500   2.735  2.1973 -2.2969  0.2657
 1970SOL    HW2 6489   2.214   1.569   2.838 -0.2585  0.3656  0.6933
 1971SOL     OW 6490   6.998   9.801   4.843  0.0332 -0.5533 -0.4794
 1971SOL    HW1 6491   6.996   9.867   4.774  0.9319  0.1328  0.1262
 1971SOL    HW2 6492   6.917   9.752   4.832 -0.8685  0.9134 -0.6996
 1972SOL     OW 6493   1.056   2.031   3.604 -0.0441 -0.1383 -0.3390
 1972SOL    HW1 6494   1.011   2.115   3.607  0.5927  0.1906  0.0715
 1972SOL    HW2 6495   1.136   2.048   3.553 -1.0287 -1.0395 -2.3060
 1973SOL     OW 6496   9.728   1.014   4.318 -0.0698 -0.3132 -0.0069
 1973SOL    HW1 6497   9.664   1.079   4.291  0.9631  1.1029  0.8225
 1973SOL    HW2 6498   9.677   0.934   4.333 -1.6521  0.7982  0.7516
 1974SOL     OW 6499   5.139   7.408   2.717  0.1605 -0.2797 -0.5843
 1974SOL    HW1 6500   5.107   7.496   2.695 -1.3488 -0.0185  2.1499
 1974SOL    HW2 6501   5.069   7.370   2.770  1.3108 -2.6935 -0.6665
 1975SOL     OW 6502   4.932   8.017   4.649  0.4102  0.0281  0.6683
 1975SOL    HW1 6503   4.889   7.993   4.567 -0.8816 -1.1014  1.6133
 1975SOL    HW2 6504   5.026   8.009   4.631  0.1548  0.0318 -0.7451
 1976SOL     OW 6505   1.083   2.125   1.617 -0.6622 -0.2971 -0.3584
 1976SOL    HW1 6506   1.100   2.157   1.705 -3.1052  0.1099  0.0579
 1976SOL    HW2 6507   0.998   2.165   1.594 -0.1845 -0.5549 -2.8063
 1977SOL     OW 6508   2.690   2.370   0.279 -0.4530 -0.7880  0.6780
 1977SOL    HW1 6509   2.637   2.334   0.208 -0.9346  2.2378 -0.6086
 1977SOL    HW2 6510   2.779   2.371   0.245 -0.4536 -0.6356  0.6831
 1978SOL     OW 6511   9.609   2.495   4.710 -0.3505  0.4924 -0.2405
 1978SOL    HW1 6512   9.692   2.465   4.746 -1.0271 -0.0469  0.9184
 1978SOL    HW2 6513   9.627   2.585   4.681  0.6247  0.3930  0.0201
 1979SOL     OW 6514   9.124   8.657   2.804 -0.2933  0.3110  0.2202
 1979SOL    HW1 6515   9.207   8.688   2.766  0.0226 -0.9174 -0.1307
 1979SOL    HW2 6516   9.057   8.685   2.741  0.0033  0.1535 -0.1692
 1980SOL     OW 6517   5.349   5.161   5.095 -0.3217  0.2120 -0.2836
 1980SOL    HW1 6518   5.416   5.118   5.148  0.1736  1.2885  0.0005
 1980SOL    HW2 6519   5.268   5.149   5.144  0.0229  0.6324  0.4139
 1981SOL     OW 6520   8.969   5.128   1.546  0.1992 -0.5760  0.0428
 1981SOL    HW1 6521   8.983   5.105   1.454  0.5401  0.0975 -0.0846
 1981SOL    HW2 6522   9.057   5.142   1.580  0.0116  2.4563 -0.4218
 1982SOL     OW 6523   7.277   5.112   8.377 -0.3270  0.0252 -0.3217
 1982SOL    HW1 6524   7.326   5.030   8.363 -0.6227 -0.3880  0.9706
 1982SOL    HW2 6525   7.337   5.168   8.425 -0.8137 -0.1851  0.5543
 1983SOL     OW 6526   5.625   7.394   1.941 -0.6674 -0.3096  0.3925
 1983SOL    HW1 6527   5.657   7.353   1.860  0.9129  0.5030  0.5544
 1983SOL    HW2 6528   5.563   7.460   1.912  2.0502  2.0732 -0.5222
 1984SOL     OW 6529   7.323   6.828   8.823  0.5476 -0.0094 -0.4955
 1984SOL    HW1 6530   7.413   6.822   8.790  1.7228 -2.5343  2.5760
 1984SOL    HW2 6531   7.313   6.920   8.847  2.7548  0.1544  0.0288
 1985SOL     OW 6532   7.704   5.846   0.359 -0.0635 -0.1720  0.3449
 1985SOL    HW1 6533   7.775   5.782   0.354  0.7007  0.6875 -0.1706
 1985SOL    HW2 6534   7.737   5.922   0.311 -0.9092  0.6451  1.0182
 1986SOL     OW 6535   1.747   8.116   3.073  0.3493  0.4925  0.5623
 1986SOL    HW1 6536   1.708   8.029   3.084  4.1277 -1.4176  0.5116
 1986SOL    HW2 6537   1.763   8.146   3.162  0.4039  0.4539  0.5653
 1987SOL     OW 6538   4.816   7.600   2.231 -0.0034 -0.3606 -0.2105
 1987SOL    HW1 6539   4.792   7.541   2.159  0.4347 -1.3814  0.4609
 1987SOL    HW2 6540   4.893   7.648   2.198 -0.3262 -0.1916 -0.7374
 1988SOL     OW 6541   0.346   2.928   5.984  0.1040  0.6607  0.5581
 1988SOL    HW1 6542   0.402   2.868   6.033 -0.1029  2.6509  3.5016
 1988SOL    HW2 6543   0.387   3.014   5.995  0.0986  1.2785 -3.0174
 1989SOL     OW 6544   2.859   3.040   9.988  0.1046  0.7796 -0.1477
 1989SOL    HW1 6545   2.881   3.051   9.895  0.2467 -0.8097 -0.3248
 1989SOL    HW2 6546   2.851   3.130  10.021 -0.4865  1.3859 -1.8158
 1990SOL     OW 6547   6.696   7.918   0.845 -0.0466  0.5546  0.0775
 1990SOL    HW1 6548   6.744   7.999   0.862  0.5331  0.0279  1.0190
 1990SOL    HW2 6549   6.636   7.910   0.919  1.4332 -0.9803  1.1920
 1991SOL     OW 6550   0.190   8.316   3.300 -0.0722 -0.4171 -0.3589
 1991SOL    HW1 6551   0.162   8.399   3.341 -1.1854 -0.0308 -1.8162
 1991SOL    HW2 6552   0.134   8.250   3.340 -0.2143 -0.2453 -0.2692
 1992SOL     OW 6553   5.138   2.751   6.846 -0.2368  0.1891  0.0971
 1992SOL    HW1 6554   5.060   2.731   6.795  2.1262 -0.9872 -3.4885
 1992SOL    HW2 6555   5.177   2.665   6.863  0.9006  0.7984  0.6587
 1993SOL     OW 6556   8.854   0.363   4.981 -0.2294 -0.2121 -0.1368
 1993SOL    HW1 6557   8.862   0.272   4.953 -0.0284 -0.2167 -0.0676
 1993SOL    HW2 6558   8.904   0.367   5.063 -0.2221 -0.0346 -0.1494
 1994SOL     OW 6559   7.453   1.431   6.562 -0.4064 -0.3795 -0.5141
 1994SOL    HW1 6560   7.432   1.513   6.518 -1.2603  0.7878  1.8660
 1994SOL    HW2 6561   7.528   1.453   6.618  0.2590 -1.6252 -0.8751
 1995SOL     OW 6562   1.015   5.404   2.556  0.2084 -0.3780 -0.5278
 1995SOL    HW1 6563   1.093   5.416   2.610  0.0601 -1.5410 -0.0268
 1995SOL    HW2 6564   0.961   5.343   2.605 -0.7522 -0.0539 -1.1608
 1996SOL     OW 6565   6.833   2.526   6.182  0.0780 -0.0425  0.1797
 1996SOL    HW1 6566   6.744   2.536   6.148  0.3228 -1.4074 -0.9395
 1996SOL    HW2 6567   6.826   2.453   6.244  0.0221  1.2174  1.7257
 1997SOL     OW 6568   8.209   3.470   1.884 -0.0757  0.0127 -0.1754
 1997SOL    HW1 6569   8.156   3.394   1.859 -0.6632  0.5297 -0.5291
 1997SOL    HW2 6570   8.155   3.545   1.860  0.6311  0.5454 -0.1066
 1998SOL     OW 6571   4.596   0.602   9.002  0.4819 -0.3411 -0.3949
 1998SOL    HW1 6572   4.637   0.607   9.088  0.1828  0.0174 -0.2714
 1998SOL    HW2 6573   4.502   0.606   9.020  0.4091 -0.5863 -0.7152
 1999SOL     OW 6574   4.850   4.408   1.046  0.1570 -0.3838  0.3794
 1999SOL    HW1 6575   4.861   4.353   0.969  0.3658  2.0192 -1.4164
 1999SOL    HW2 6576   4.937   4.409   1.087  0.8927  0.7416 -1.1277
 2000SOL     OW 6577   2.758   0.775   5.559 -0.3988 -0.5506 -0.7558
 2000SOL    HW1 6578   2.783   0.693   5.601 -3.3135  0.0034  2.5351
 2000SOL    HW2 6579   2.835   0.831   5.568 -0.0451 -1.3086  1.7171
 2001SOL     OW 6580   9.015   1.590   1.504 -0.1291  0.2764 -0.3105
 2001SOL    HW1 6581   9.069   1.564   1.579 -0.7037 -1.3528 -0.4339
 2001SOL    HW2 6582   8.945   1.643   1.543  1.2670  2.0810 -0.1089
 2002SOL     OW 6583   1.457   8.428   5.059  0.0449  0.1529  0.2374
 2002SOL    HW1 6584   1.526   8.364   5.077 -0.1401  0.0834  0.7227
 2002SOL    HW2 6585   1.493   8.511   5.090 -0.2818  0.0300  0.9601
 2003SOL     OW 6586   5.365   6.054   1.005 -0.5034 -0.2229 -0.4953
 2003SOL    HW1 6587   5.366   5.958   1.006 -0.0046 -0.2367  1.3835
 2003SOL    HW2 6588   5.457   6.079   1.003 -0.6436  0.2468 -1.9143
 2004SOL     OW 6589   1.118   8.483   5.342 -0.0707  0.3145 -0.4722
 2004SOL    HW1 6590   1.038   8.492   5.292 -0.5491  0.6852  0.3316
 2004SOL    HW2 6591   1.163   8.408   5.304 -1.6614 -1.0411  0.2065
 2005SOL     OW 6592   1.779   6.746   8.257  0.3967  0.2147  0.1615
 2005SOL    HW1 6593   1.860   6.778   8.217  0.8320  2.2722  2.4977
 2005SOL    HW2 6594   1.754   6.671   8.202  2.6882  0.8218 -1.9044
 2006SOL     OW 6595   1.663   3.915   1.005  0.1774 -0.0247 -0.1653
 2006SOL    HW1 6596   1.594   3.875   0.951  1.2563  0.4358 -1.9628
 2006SOL    HW2 6597   1.626   4.000   1.031 -0.9643 -0.8845  1.2250
 2007SOL     OW 6598   9.496   1.364   3.964  0.1281  0.1052 -0.2873
 2007SOL    HW1 6599   9.443   1.347   3.887 -0.6246  0.1595  0.2119
 2007SOL    HW2 6600   9.586   1.346   3.936  0.0225  1.4333 -1.5575
 2008SOL     OW 6601   0.813   1.306   1.881 -0.1033  0.3153 -0.0343
 2008SOL    HW1 6602   0.796   1.347   1.967 -0.2718 -0.8549  0.5069
 2008SOL    HW2 6603   0.796   1.376   1.818 -2.8369  0.4695  0.7128
 2009SOL     OW 6604   2.865   8.509   1.249  0.0984 -0.1206 -0.7151
 2009SOL    HW1 6605   2.914   8.431   1.277 -0.2128 -0.0056  0.1943
 2009SOL    HW2 6606   2.810   8.530   1.325 -0.0589  0.7944 -1.0789
 2010SOL     OW 6607   5.622   6.187   6.979 -0.1838 -0.5039 -0.1857
 2010SOL    HW1 6608   5.549   6.136   6.945 -0.9530  0.3996  0.0759
 2010SOL    HW2 6609   5.612   6.273   6.938  1.3989 -0.6811 -1.0401
 2011SOL     OW 6610   9.632   7.259   7.939  0.1641 -0.3997  0.7251
 2011SOL    HW1 6611   9.612   7.203   8.014 -1.4116 -2.9341 -1.4432
 2011SOL    HW2 6612   9.725   7.245   7.922  0.0394 -1.5033  0.9111
 2012SOL     OW 6613   8.017   1.863   6.081  0.3752 -0.9088 -0.3630
 2012SOL    HW1 6614   8.064   1.921   6.021 -1.1807  2.2271  1.2337
 2012SOL    HW2 6615   8.086   1.814   6.126  1.7262 -0.7428 -2.1401
 2013SOL     OW 6616   6.018   6.042   6.135 -0.0998  0.2131  0.2088
 2013SOL    HW1 6617   5.972   5.958   6.138  0.3502 -0.0450  0.0450
 2013SOL    HW2 6618   5.949   6.107   6.123 -0.5876 -0.0116  1.6319
 2014SOL     OW 6619   7.414   2.470   8.457  0.0267 -0.1560 -0.5119
 2014SOL    HW1 6620   7.454   2.430   8.535 -0.3448 -0.2627 -0.3735
 2014SOL    HW2 6621   7.327   2.430   8.452  0.4915 -1.1065 -1.7110
 2015SOL     OW 6622   9.731   5.269   5.889 -0.0855 -0.1187  0.5560
 2015SOL    HW1 6623   9.778   5.206   5.835 -1.2926 -1.6689  1.2462
 2015SOL    HW2 6624   9.639   5.247   5.879 -0.3798 -0.2393  2.9270
 2016SOL     OW 6625   2.506   2.805   5.471 -0.2637 -0.3913 -0.0214
 2016SOL    HW1 6626   2.497   2.734   5.407 -1.1079 -0.0637 -0.2872
 2016SOL    HW2 6627   2.568   2.865   5.432  1.5204 -1.6183  0.8103
 2017SOL     OW 6628   0.613   2.267   5.502 -0.1835  0.0371  0.2909
 2017SOL    HW1 6629   0.586   2.187   5.547  0.7008 -0.8419 -0.6669
 2017SOL    HW2 6630   0.537   2.293   5.451 -0.1398 -0.8258 -0.2295
 2018SOL     OW 6631   5.439   8.963   3.130 -0.0059  0.1105 -0.5694
 2018SOL    HW1 6632   5.386   8.899   3.083  2.0762 -1.0021 -1.5139
 2018SOL    HW2 6633   5.429   8.940   3.222 -2.6786  1.1844 -0.4998
 2019SOL     OW 6634   0.136   2.997   1.048  0.2076  0.3196 -0.0178
 2019SOL    HW1 6635   0.176   2.959   0.970  0.8949 -1.9371  1.3537
 2019SOL    HW2 6636   0.051   2.952   1.056 -0.2894  1.2341  0.0375
 2020SOL     OW 6637   6.858   5.753   6.824 -0.0197 -0.0992 -0.1192
 2020SOL    HW1 6638   6.774   5.751   6.869  0.8310  1.2066  1.6416
 2020SOL    HW2 6639   6.880   5.661   6.810 -0.5586 -0.5573  1.7627
 2021SOL     OW 6640   8.944   7.469   9.254 -0.5678  0.0161  0.2506
 2021SOL    HW1 6641   8.959   7.535   9.322  1.1776 -1.0683  1.0075
 2021SOL    HW2 6642   8.906   7.395   9.301 -1.1380 -0.0500 -0.3117
 2022SOL     OW 6643   3.632   0.575   0.003 -0.5580  0.2994  0.0468
 2022SOL    HW1 6644   3.582   0.610   0.077 -2.3038 -1.2233 -0.3390
 2022SOL    HW2 6645   3.656   0.487   0.031 -0.1656  0.1567 -0.7257
 2023SOL     OW 6646   2.186   8.168   6.026 -0.5458  0.0998  0.5842
 2023SOL    HW1 6647   2.128   8.104   5.985  0.4696 -0.1220 -0.5740
 2023SOL    HW2 6648   2.135   8.205   6.097 -2.1144 -0.0662 -0.4115
 2024SOL     OW 6649   3.829   4.625   3.591 -0.8928 -0.0740  0.1141
 2024SOL    HW1 6650   3.817   4.531   3.604 -0.0241 -0.1370  0.4960
 2024SOL    HW2 6651   3.905   4.648   3.645 -1.1476  0.8650  0.0971
 2025SOL     OW 6652   0.942   6.638   7.776  0.4957  0.2997 -0.3819
 2025SOL    HW1 6653   0.853   6.618   7.749  0.2096  1.3044 -0.2210
 2025SOL    HW2 6654   0.974   6.701   7.711  1.0458  0.0299 -0.3813
 2026SOL     OW 6655   2.238   6.424   6.836  0.3310 -0.1190  0.0644
 2026SOL    HW1 6656   2.245   6.329   6.841 -2.2568 -0.3493  0.2115
 2026SOL    HW2 6657   2.217   6.442   6.744  0.4506  0.2964  0.1133
 2027SOL     OW 6658   4.366   7.626   1.603 -0.3010 -0.3518  0.1572
 2027SOL    HW1 6659   4.407   7.589   1.681  1.1593 -0.1162 -0.4753
 2027SOL    HW2 6660   4.341   7.549   1.551 -0.2301 -0.4874  0.3202
 2028SOL     OW 6661   1.775   1.849   6.006 -0.0300 -0.2732 -0.1511
 2028SOL    HW1 6662   1.819   1.851   5.921  2.7475 -0.0396  1.1724
 2028SOL    HW2 6663   1.815   1.921   6.055 -2.5911  0.5263  0.9454
 2029SOL     OW 6664   7.560   2.704   9.120 -0.3942  0.2091 -0.0632
 2029SOL    HW1 6665   7.600   2.662   9.197 -0.7911  0.2340  0.1558
 2029SOL    HW2 6666   7.551   2.796   9.144  1.1429  0.5899 -0.8072
 2030SOL     OW 6667   2.906   3.859   8.974 -0.0938 -0.0578 -0.2211
 2030SOL    HW1 6668   2.916   3.953   8.960 -0.4550  0.0942  0.4947
 2030SOL    HW2 6669   2.867   3.852   9.061  1.9460 -0.9562  0.6784
 2031SOL     OW 6670   0.775   0.974   0.940 -0.0459 -0.3320 -0.4666
 2031SOL    HW1 6671   0.724   1.041   0.987 -0.8146 -0.4383 -1.1160
 2031SOL    HW2 6672   0.777   1.006   0.850 -0.4313 -1.1870 -0.7839
 2032SOL     OW 6673   5.777   3.903   6.269  0.0343  0.2235 -0.4838
 2032SOL    HW1 6674   5.709   3.970   6.266 -0.1046  0.2501  1.5074
 2032SOL    HW2 6675   5.853   3.948   6.308  0.4822 -0.3480 -0.6823
 2033SOL     OW 6676   0.285   0.043   9.253 -0.7792  0.3226 -0.1739
 2033SOL    HW1 6677   0.254  -0.040   9.288  0.8300 -0.2351  0.0268
 2033SOL    HW2 6678   0.371   0.023   9.216 -0.3040  1.9169 -0.0221
 2034SOL     OW 6679   4.861   2.489   7.748  0.5770  0.2846  0.1287
 2034SOL    HW1 6680   4.777   2.510   7.789 -2.1059 -1.1920 -4.0141
 2034SOL    HW2 6681   4.858   2.395   7.733  1.1563  0.6891 -3.3908
 2035SOL     OW 6682   3.943   8.948   8.277  0.1451  0.2005 -0.0525
 2035SOL    HW1 6683   4.025   8.973   8.321  0.4594  1.6225 -1.3521
 2035SOL    HW2 6684   3.898   8.894   8.341  2.1493 -0.7399  0.6575
 2036SOL     OW 6685   3.534   8.499   7.896  0.4207 -0.0768  0.2632
 2036SOL    HW1 6686   3.616   8.473   7.938  0.0848 -1.4561  0.1165
 2036SOL    HW2 6687   3.509   8.580   7.940  1.8340  0.3550  0.3388
 2037SOL     OW 6688   6.826   3.733   2.630 -0.3306  1.1883 -0.1621
 2037SOL    HW1 6689   6.828   3.829   2.623  0.0944  1.1661 -0.4168
 2037SOL    HW2 6690   6.823   3.716   2.724 -0.0635  1.4533 -0.1018
 2038SOL     OW 6691   7.868   0.785   1.484 -1.1878  0.3769 -0.6240
 2038SOL    HW1 6692   7.923   0.798   1.407 -1.7766  1.7579 -0.8434
 2038SOL    HW2 6693   7.822   0.703   1.468 -0.0016 -0.2509 -0.9197
 2039SOL     OW 6694   6.773   8.402   5.916 -0.4614 -0.5439 -0.2733
 2039SOL    HW1 6695   6.822   8.484   5.914 -0.9401 -0.1917  1.2441
 2039SOL    HW2 6696   6.731   8.397   5.830  1.4450 -0.3886 -1.2559
 2040SOL     OW 6697   3.222   1.473   3.705 -0.1022 -0.7462  0.4071
 2040SOL    HW1 6698   3.245   1.384   3.730 -0.4242 -0.6429  1.0818
 2040SOL    HW2 6699   3.127   1.471   3.691 -0.5761  0.0721  3.0273
 2041SOL     OW 6700   5.869   6.032   9.395 -0.0180  0.1152 -0.4920
 2041SOL    HW1 6701   5.878   5.954   9.340 -2.2061 -1.5298  1.3133
 2041SOL    HW2 6702   5.894   6.003   9.482  0.6125  1.9016 -0.0320
 2042SOL     OW 6703   8.308   8.238   7.217  0.0043 -0.6383 -0.0985
 2042SOL    HW1 6704   8.397   8.247   7.253 -0.2464  0.2302  0.3299
 2042SOL    HW2 6705   8.305   8.300   7.145  0.0598 -1.4050 -0.7836
 2043SOL     OW 6706   6.994   8.722   8.574 -0.0421 -0.2222  0.0083
 2043SOL    HW1 6707   7.052   8.714   8.498  0.0015 -1.4878  0.1647
 2043SOL    HW2 6708   6.977   8.632   8.602 -1.3174  0.1635  0.5515
 2044SOL     OW 6709   0.275   3.681   1.253  0.1504  0.7260 -0.0517
 2044SOL    HW1 6710   0.362   3.696   1.217  0.2401  0.8062  0.2000
 2044SOL    HW2 6711   0.246   3.600   1.212 -0.3644  1.5808 -1.4878
 2045SOL     OW 6712   3.736   2.226   8.049 -0.4891 -0.2626  0.5727
 2045SOL    HW1 6713   3.762   2.186   7.965  0.2672 -0.9457  1.1199
 2045SOL    HW2 6714   3.657   2.177   8.075 -0.3013 -0.5436  0.6164
 2046SOL     OW 6715   3.484   5.971   7.579  0.0288 -0.3813 -0.2300
 2046SOL    HW1 6716   3.512   5.879   7.584  1.7296  0.0634 -0.7069
 2046SOL    HW2 6717   3.453   5.991   7.667 -0.5051 -1.4542 -0.1605
 2047SOL     OW 6718   9.427   5.850   7.609 -0.3753 -0.2535 -0.5639
 2047SOL    HW1 6719   9.367   5.855   7.683  1.1205 -0.1244  0.6849
 2047SOL    HW2 6720   9.390   5.782   7.553 -1.5733 -0.3128  0.2490
 2048SOL     OW 6721   0.440   0.920   8.850  0.3523 -0.5120 -0.4441
 2048SOL    HW1 6722   0.526   0.931   8.893  0.0921  3.3938 -0.5768
 2048SOL    HW2 6723   0.461   0.898   8.760  1.1043 -1.3137 -0.0979
 2049SOL     OW 6724   7.219   9.019   1.312 -0.9601  0.3168  0.2968
 2049SOL    HW1 6725   7.257   8.936   1.342  0.4935  1.5451  2.0281
 2049SOL    HW2 6726   7.292   9.065   1.270 -2.2619 -0.1201 -2.7353
 2050SOL     OW 6727   5.338   2.582   4.545  0.2082  0.4010  0.3825
 2050SOL    HW1 6728   5.296   2.496   4.550  1.3789 -0.3119 -0.9311
 2050SOL    HW2 6729   5.426   2.568   4.579 -0.4283  1.7859  2.7992
 2051SOL     OW 6730   5.098   6.963   4.469 -0.3064 -0.3070  0.0008
 2051SOL    HW1 6731   5.121   6.871   4.481 -1.1676 -0.3575  1.5128
 2051SOL    HW2 6732   5.136   7.008   4.544 -2.4685  0.0615  0.9569
 2052SOL     OW 6733   2.694   3.764   7.587  0.4862  0.3336 -0.3514
 2052SOL    HW1 6734   2.701   3.841   7.529  1.2213 -1.6020 -3.0285
 2052SOL    HW2 6735   2.784   3.735   7.599  0.3382  0.5884  1.7913
 2053SOL     OW 6736   1.420   5.800   8.559 -0.4033  0.1710  0.3553
 2053SOL    HW1 6737   1.325   5.788   8.566 -0.4328 -0.2911 -0.6555
 2053SOL    HW2 6738   1.443   5.764   8.473  0.5347  1.2329  0.1290
 2054SOL     OW 6739   8.569   3.151   6.849  0.5470  0.6140 -0.1854
 2054SOL    HW1 6740   8.551   3.058   6.864 -0.8869  1.2559  2.6850
 2054SOL    HW2 6741   8.501   3.179   6.787 -0.9285  0.3660  1.2748
 2055SOL     OW 6742   2.675   1.416   2.498  0.1558  0.2737  0.0149
 2055SOL    HW1 6743   2.622   1.337   2.513  0.7956 -0.1274  0.2103
 2055SOL    HW2 6744   2.706   1.441   2.585  1.6959 -0.5091 -0.2776
 2056SOL     OW 6745   1.925   3.625   3.315 -1.5130 -0.3875 -0.0976
 2056SOL    HW1 6746   1.958   3.579   3.237 -0.7874  0.7053 -0.4527
 2056SOL    HW2 6747   1.936   3.718   3.294  0.8481 -0.0467  2.1791
 2057SOL     OW 6748   3.831   1.713   1.205 -0.2387  0.3715  0.3072
 2057SOL    HW1 6749   3.834   1.808   1.202 -2.1053  0.4281 -1.0375
 2057SOL    HW2 6750   3.882   1.690   1.283 -1.9000  2.6079  2.1887
 2058SOL     OW 6751   7.765   1.816   9.567 -0.4012 -0.0931  0.4270
 2058SOL    HW1 6752   7.812   1.838   9.648  1.6383  1.4530 -1.0813
 2058SOL    HW2 6753   7.757   1.721   9.570  1.9309 -0.3395  1.2944
 2059SOL     OW 6754   2.257   0.948   7.448 -0.2122  0.1141 -0.2473
 2059SOL    HW1 6755   2.166   0.978   7.448 -0.2248  0.0882 -0.8953
 2059SOL    HW2 6756   2.273   0.921   7.538 -0.8728  0.0382 -0.1472
 2060SOL     OW 6757   5.846   2.203   4.451  0.0471  0.3290 -0.2322
 2060SOL    HW1 6758   5.895   2.143   4.394 -1.4839 -0.1087 -1.1344
 2060SOL    HW2 6759   5.906   2.277   4.464  0.6299  0.2212 -2.0187
 2061SOL     OW 6760   0.828   1.986   8.900  0.1100  0.3139  0.2870
 2061SOL    HW1 6761   0.862   2.073   8.882 -0.3636  0.6086  0.7695
 2061SOL    HW2 6762   0.741   2.002   8.938 -1.4234 -0.4142 -2.5438
 2062SOL     OW 6763   6.653   1.155   8.481 -0.4243  0.2620 -0.1541
 2062SOL    HW1 6764   6.589   1.224   8.496 -1.4202 -0.8181  0.7603
 2062SOL    HW2 6765   6.738   1.196   8.499 -0.8728  1.5940 -0.9601
 2063SOL     OW 6766   9.103   9.567   0.286 -0.1775  0.3098 -0.1118
 2063SOL    HW1 6767   9.172   9.541   0.226  0.7600 -1.7479  1.7386
 2063SOL    HW2 6768   9.116   9.661   0.298  1.9307  0.0789 -0.2692
 2064SOL     OW 6769   0.805   4.693   6.481  0.1439  0.6992 -0.1557
 2064SOL    HW1 6770   0.820   4.706   6.388  0.3185  0.1253 -0.2112
 2064SOL    HW2 6771   0.859   4.759   6.524  0.3890  0.6872 -0.4477
 2065SOL     OW 6772   7.185   9.232   0.092 -0.1054  0.1146  0.1613
 2065SOL    HW1 6773   7.247   9.164   0.068  1.0441  1.0071  0.5075
 2065SOL    HW2 6774   7.163   9.214   0.183 -1.1758 -0.7931 -0.2509
 2066SOL     OW 6775   5.476   4.446   7.055  0.1618 -0.2629  0.5010
 2066SOL    HW1 6776   5.468   4.370   7.112  0.8617 -1.6288 -1.1426
 2066SOL    HW2 6777   5.569   4.467   7.055  0.6827 -2.0108 -2.1412
 2067SOL     OW 6778   2.379   3.980   3.708 -0.2978  0.5082  0.5504
 2067SOL    HW1 6779   2.384   3.930   3.627 -1.2225 -0.3650  1.0088
 2067SOL    HW2 6780   2.470   4.002   3.729  0.1623 -1.2702  0.5157
 2068SOL     OW 6781   3.447   9.523   6.581 -0.0842  0.2064 -0.5170
 2068SOL    HW1 6782   3.371   9.502   6.527 -0.0687 -1.1806 -0.0306
 2068SOL    HW2 6783   3.437   9.468   6.659  1.7048 -0.4205 -0.6913
 2069SOL     OW 6784   9.293   8.591   8.677 -0.0354  0.1637 -0.1059
 2069SOL    HW1 6785   9.352   8.551   8.614  0.6591  1.2766 -0.2101
 2069SOL    HW2 6786   9.207   8.589   8.636 -0.1327 -1.6810  0.1356
 2070SOL     OW 6787   6.963   3.349   0.966  0.3699  0.3258  0.0355
 2070SOL    HW1 6788   6.975   3.426   1.022  3.6165 -0.3721  0.4969
 2070SOL    HW2 6789   6.932   3.385   0.883  0.3139  1.9660  0.7241
 2071SOL     OW 6790   3.132   9.796   4.320  0.0669 -0.5291 -0.3053
 2071SOL    HW1 6791   3.227   9.812   4.326 -0.1339  0.5789  0.1876
 2071SOL    HW2 6792   3.097   9.835   4.400 -0.7422 -1.5136 -0.1716
 2072SOL     OW 6793   9.788   6.186   3.633  0.8611  0.1866 -0.5804
 2072SOL    HW1 6794   9.818   6.095   3.627  0.8641  0.2105 -0.9659
 2072SOL    HW2 6795   9.693   6.180   3.641  0.7112  0.1801 -2.0575
 2073SOL     OW 6796   8.539   9.644   9.766 -0.1209  0.0410  0.1429
 2073SOL    HW1 6797   8.622   9.623   9.724  0.6176  1.0826  0.9972
 2073SOL    HW2 6798   8.474   9.593   9.719  0.8809 -0.0801 -1.1580
 2074SOL     OW 6799   5.961   7.488   3.963 -0.7661  0.2731 -0.3260
 2074SOL    HW1 6800   5.896   7.420   3.948 -0.1802 -0.5208  0.5683
 2074SOL    HW2 6801   5.958   7.503   4.058 -1.0683  1.6972 -0.5446
 2075SOL     OW 6802   2.770   3.339   4.552  0.2983 -0.3341  0.2066
 2075SOL    HW1 6803   2.759   3.262   4.608 -0.8988  0.4126  1.0489
 2075SOL    HW2 6804   2.864   3.355   4.552  0.6133 -2.0288 -0.3244
 2076SOL     OW 6805   9.653   1.986   6.223  0.7419  0.4924  0.4197
 2076SOL    HW1 6806   9.706   1.974   6.144 -0.9117  1.1156 -0.8264
 2076SOL    HW2 6807   9.717   1.984   6.294  2.3147  0.1461 -0.9252
 2077SOL     OW 6808   0.597   5.197   8.043 -0.1390 -0.4538 -0.2896
 2077SOL    HW1 6809   0.536   5.180   7.971  1.5433  0.0952 -1.9292
 2077SOL    HW2 6810   0.627   5.287   8.028  0.9056 -0.6339  0.5882
 2078SOL     OW 6811   5.379   6.029   2.658 -0.2453 -0.0578 -0.2793
 2078SOL    HW1 6812   5.426   5.979   2.726  0.1297 -1.0164 -1.2200
 2078SOL    HW2 6813   5.290   6.036   2.691  0.0035 -0.2491  0.4572
 2079SOL     OW 6814   9.764   4.391   4.341  0.3574  0.0291  0.0793
 2079SOL    HW1 6815   9.805   4.305   4.342 -0.0372 -0.2006 -1.4469
 2079SOL    HW2 6816   9.676   4.376   4.306 -0.1080  0.8900  0.8401
 2080SOL     OW 6817   4.115   2.853   7.592  0.0798 -0.3603 -0.4530
 2080SOL    HW1 6818   4.202   2.817   7.576  0.0237 -0.5007 -0.4465
 2080SOL    HW2 6819   4.078   2.796   7.660 -1.2773 -2.3581 -2.7170
 2081SOL     OW 6820   9.862   2.964   3.550  0.0167  0.3453  0.4007
 2081SOL    HW1 6821   9.901   3.017   3.619  3.0973 -2.0119  0.7110
 2081SOL    HW2 6822   9.817   2.893   3.595 -1.6579  1.0802 -0.0382
 2082SOL     OW 6823   0.727   0.466   4.616 -0.2801  0.3733  0.2356
 2082SOL    HW1 6824   0.777   0.459   4.535 -2.7754  1.2587 -1.4742
 2082SOL    HW2 6825   0.663   0.395   4.612 -3.3669  2.9680 -0.8730
 2083SOL     OW 6826   0.355   3.268   5.440  0.0273  0.3131 -0.1775
 2083SOL    HW1 6827   0.264   3.299   5.443  0.4628  1.8629 -1.5330
 2083SOL    HW2 6828   0.396   3.307   5.518 -0.8609 -1.9771  1.5483
 2084SOL     OW 6829   9.407   9.625   3.862 -0.2887 -0.0873 -0.0180
 2084SOL    HW1 6830   9.402   9.552   3.923 -2.7275  0.4142  0.4892
 2084SOL    HW2 6831   9.366   9.698   3.908 -0.9775  0.6624 -1.7374
 2085SOL     OW 6832   7.158   3.704   2.107  0.5729  0.7188  0.4039
 2085SOL    HW1 6833   7.214   3.697   2.030 -0.7917  0.0749 -0.5746
 2085SOL    HW2 6834   7.136   3.797   2.113 -2.2536  0.3779 -2.2525
 2086SOL     OW 6835   9.807   1.838   1.791  0.3711 -0.0726 -0.1458
 2086SOL    HW1 6836   9.716   1.858   1.816  0.5024  1.5246 -0.8253
 2086SOL    HW2 6837   9.856   1.840   1.873 -0.1453 -0.6018  0.1819
 2087SOL     OW 6838   9.375   6.613   0.451 -0.0817 -1.1506 -0.4695
 2087SOL    HW1 6839   9.332   6.661   0.380  0.3701 -1.0493 -0.6779
 2087SOL    HW2 6840   9.464   6.648   0.453 -0.2702 -0.6619  0.5916
 2088SOL     OW 6841   5.490   6.892   6.143  0.2701  0.5056  0.3957
 2088SOL    HW1 6842   5.416   6.831   6.133 -0.1253  1.2937 -2.7099
 2088SOL    HW2 6843   5.566   6.836   6.155 -0.4612 -0.4492  0.7211
 2089SOL     OW 6844   6.394   1.209   2.922 -0.1962  0.7337  0.2407
 2089SOL    HW1 6845   6.313   1.207   2.972 -0.6613 -0.1937 -0.5096
 2089SOL    HW2 6846   6.396   1.296   2.882 -0.3737  1.0704  0.9600
 2090SOL     OW 6847   7.374   8.630   9.022  0.1792  0.0442 -0.6236
 2090SOL    HW1 6848   7.425   8.588   9.092 -1.7924  1.0782  1.5784
 2090SOL    HW2 6849   7.436   8.639   8.950  1.7597 -3.0110  0.1544
 2091SOL     OW 6850   2.563   5.847   3.296  0.9624  0.0755 -0.4950
 2091SOL    HW1 6851   2.550   5.780   3.364  0.2708  0.8964  0.2167
 2091SOL    HW2 6852   2.647   5.826   3.256  0.9589 -0.9522  0.0171
 2092SOL     OW 6853   9.233   0.180   6.956 -0.2384 -0.3673  0.1955
 2092SOL    HW1 6854   9.315   0.195   7.004  0.4190 -1.0445 -0.6787
 2092SOL    HW2 6855   9.178   0.132   7.018  0.3018 -0.5589  0.5371
 2093SOL     OW 6856   4.468   1.563   7.460  0.2021 -0.5221 -0.0686
 2093SOL    HW1 6857   4.412   1.485   7.455 -0.9060  0.2332  0.3077
 2093SOL    HW2 6858   4.430   1.615   7.531  0.0359  1.0350 -1.2599
 2094SOL     OW 6859   8.549   2.110   6.161 -0.1052  0.2764  0.2747
 2094SOL    HW1 6860   8.610   2.076   6.228  0.0331 -0.5119 -0.2440
 2094SOL    HW2 6861   8.465   2.070   6.183  0.1218 -0.6443 -0.5125
 2095SOL     OW 6862   4.816   7.210   8.858  0.6516 -0.3016  0.1496
 2095SOL    HW1 6863   4.877   7.136   8.853  1.0624  0.0459 -0.0674
 2095SOL    HW2 6864   4.839   7.264   8.782  0.3719  0.0588  0.3206
 2096SOL     OW 6865   9.418   5.540   7.967 -0.0391 -0.3853 -0.3362
 2096SOL    HW1 6866   9.505   5.510   7.994  0.3262  1.6579  0.9759
 2096SOL    HW2 6867   9.384   5.587   8.044 -1.2870  0.9296 -1.6237
 2097SOL     OW 6868   4.035   7.361   8.637  0.4401 -0.2263 -0.5496
 2097SOL    HW1 6869   4.026   7.381   8.730  1.6651 -0.8535 -0.2862
 2097SOL    HW2 6870   4.128   7.374   8.618  0.6999 -2.5042 -1.1081
 2098SOL     OW 6871   8.170   6.835   1.185 -0.0833  0.2359 -0.2306
 2098SOL    HW1 6872   8.139   6.828   1.095  0.5915 -1.3724 -0.3576
 2098SOL    HW2 6873   8.249   6.889   1.179 -1.2462  2.0503 -0.2547
 2099SOL     OW 6874   8.780   1.700   6.308 -0.2113 -0.2001  0.2714
 2099SOL    HW1 6875   8.701   1.650   6.288 -1.6887  1.4909  1.5102
 2099SOL    HW2 6876   8.760   1.743   6.391  1.4607  1.4053 -0.1065
 2100SOL     OW 6877   8.173   4.993   0.473  0.1507 -0.1404 -0.0155
 2100SOL    HW1 6878   8.115   4.951   0.537 -0.5623  1.1920  0.2441
 2100SOL    HW2 6879   8.260   4.958   0.493 -0.4532 -1.7239 -0.0243
 2101SOL     OW 6880   5.385   3.919   2.211  0.0539  0.1897  0.4756
 2101SOL    HW1 6881   5.361   4.002   2.169  2.2090  1.2067  1.1359
 2101SOL    HW2 6882   5.405   3.861   2.138  1.6146  1.2626 -0.0069
 2102SOL     OW 6883   8.383   3.784   5.029 -0.5182  0.3150 -0.4819
 2102SOL    HW1 6884   8.472   3.798   4.997 -1.3893  0.6021 -3.0656
 2102SOL    HW2 6885   8.328   3.794   4.951 -2.8584  0.5286  1.0955
 2103SOL     OW 6886   6.467   9.562   4.668  0.6212  0.2932 -0.4745
 2103SOL    HW1 6887   6.427   9.522   4.590 -0.3532 -1.3717  0.8137
 2103SOL    HW2 6888   6.415   9.641   4.684 -2.6358 -1.9919  1.3653
 2104SOL     OW 6889   8.394   9.576   6.034  0.4513  0.4844  0.2031
 2104SOL    HW1 6890   8.388   9.486   6.001 -3.0957  1.0431 -1.0842
 2104SOL    HW2 6891   8.399   9.630   5.956  0.2468  1.5160  0.8899
 2105SOL     OW 6892   4.875   1.001   2.197 -0.4683 -0.1225  0.1165
 2105SOL    HW1 6893   4.879   1.053   2.118  0.7615 -1.1987 -0.5639
 2105SOL    HW2 6894   4.783   0.973   2.202 -0.8182  0.9056 -0.2634
 2106SOL     OW 6895   8.419   1.617   5.536  0.0119  0.5501  0.2103
 2106SOL    HW1 6896   8.378   1.658   5.612 -1.2054 -0.0017 -0.1220
 2106SOL    HW2 6897   8.510   1.603   5.562 -0.6143 -0.5521  1.9595
 2107SOL     OW 6898   9.859   8.549   7.465 -0.5438  0.2155  0.2683
 2107SOL    HW1 6899   9.952   8.562   7.447 -0.5916  1.2050  0.6520
 2107SOL    HW2 6900   9.823   8.638   7.468 -1.7406 -0.1892 -1.0679
 2108SOL     OW 6901   3.404   7.733   8.702 -0.0618 -0.3965 -0.1428
 2108SOL    HW1 6902   3.478   7.794   8.709 -0.1534 -0.1560 -1.1324
 2108SOL    HW2 6903   3.387   7.706   8.792  1.8006 -1.1319  0.0291
 2109SOL     OW 6904   9.368   9.259   9.232 -0.2888 -0.1212  0.4059
 2109SOL    HW1 6905   9.411   9.176   9.251  0.9853  0.2070 -0.8474
 2109SOL    HW2 6906   9.437   9.325   9.240 -0.5493  0.4508 -1.4149
 2110SOL     OW 6907   3.909   2.326   5.414  0.1804 -0.2751 -0.3417
 2110SOL    HW1 6908   3.969   2.312   5.340  0.7366 -0.7605  0.1877
 2110SOL    HW2 6909   3.960   2.376   5.477  0.6633 -2.1455  0.8566
 2111SOL     OW 6910   1.218   3.807   3.068  0.0029  0.0640  0.5031
 2111SOL    HW1 6911   1.124   3.802   3.088  0.0546  1.5989  1.2033
 2111SOL    HW2 6912   1.222   3.794   2.973 -1.0046  0.8986  0.3283
 2112SOL     OW 6913   9.345   5.042   0.739  0.1479 -0.2111 -0.3134
 2112SOL    HW1 6914   9.284   5.040   0.813  1.3446 -0.3032  0.7218
 2112SOL    HW2 6915   9.333   4.957   0.696  0.7912 -0.9971  0.9694
 2113SOL     OW 6916   0.246   3.720   6.425 -0.0227 -0.3974  0.6559
 2113SOL    HW1 6917   0.162   3.764   6.441 -0.1423 -0.1403 -0.5504
 2113SOL    HW2 6918   0.310   3.791   6.424 -0.1560 -0.2702 -0.8667
 2114SOL     OW 6919   7.475   4.604   8.911  0.3211 -0.0636 -0.3526
 2114SOL    HW1 6920   7.412   4.553   8.962  0.3691 -1.1780 -1.3370
 2114SOL    HW2 6921   7.453   4.582   8.820  1.1793  0.6993 -0.7465
 2115SOL     OW 6922   3.688   7.511   4.945 -0.1879 -0.3431  0.4587
 2115SOL    HW1 6923   3.595   7.511   4.923  0.2056 -2.7127 -1.7127
 2115SOL    HW2 6924   3.733   7.520   4.861  1.6047  1.1111  1.4832
 2116SOL     OW 6925   9.629   1.624   4.645  0.2370 -0.0364  0.7790
 2116SOL    HW1 6926   9.698   1.667   4.596  0.1098 -0.0365  0.5990
 2116SOL    HW2 6927   9.658   1.533   4.653 -0.0319 -0.1817  0.1642
 2117SOL     OW 6928   8.036   0.988   7.169 -0.3116 -0.2394  0.1086
 2117SOL    HW1 6929   7.953   1.020   7.204  0.4166  0.2237  1.4900
 2117SOL    HW2 6930   8.096   0.989   7.244  0.4413 -2.4233 -0.3788
 2118SOL     OW 6931   9.025   0.667   1.825  0.1098 -0.3233 -0.0175
 2118SOL    HW1 6932   9.071   0.600   1.774  0.2612  0.1769 -0.5420
 2118SOL    HW2 6933   9.094   0.707   1.879  0.2171  0.1338 -0.4886
 2119SOL     OW 6934   7.907   9.227   8.192  0.5551  0.0634  0.1485
 2119SOL    HW1 6935   7.999   9.252   8.205  0.5797 -0.6996  1.7445
 2119SOL    HW2 6936   7.912   9.139   8.156  0.4585  0.0997  0.0494
 2120SOL     OW 6937   6.356   3.587   3.725  0.1117  0.1799 -0.2736
 2120SOL    HW1 6938   6.373   3.633   3.807 -0.0261 -0.6666  0.2411
 2120SOL    HW2 6939   6.436   3.599   3.674  0.1164  0.8866 -0.1028
 2121SOL     OW 6940   0.633   6.723   6.608 -0.0171  0.0349  0.0212
 2121SOL    HW1 6941   0.584   6.668   6.669 -2.6693 -0.0290 -1.9435
 2121SOL    HW2 6942   0.586   6.807   6.609  1.3117  0.8081 -0.2179
 2122SOL     OW 6943   5.966   0.247   6.256  0.0605  0.3622 -0.0539
 2122SOL    HW1 6944   5.972   0.178   6.323 -0.8983 -0.0404 -0.3698
 2122SOL    HW2 6945   5.945   0.200   6.175 -0.2577  0.9870 -0.3385
 2123SOL     OW 6946   0.542   3.805   7.252  0.0757 -0.1583  0.4919
 2123SOL    HW1 6947   0.469   3.854   7.289  1.4143  2.1868  0.2559
 2123SOL    HW2 6948   0.525   3.804   7.158 -0.6092 -1.3798  0.6055
 2124SOL     OW 6949   4.174   2.248   7.634  0.7044  0.3988 -0.0148
 2124SOL    HW1 6950   4.157   2.239   7.540 -0.2399 -0.6767  0.2309
 2124SOL    HW2 6951   4.240   2.181   7.653 -0.2726 -0.5056  0.3433
 2125SOL     OW 6952   1.825   2.011   5.025  0.5081 -0.8155 -0.4423
 2125SOL    HW1 6953   1.905   2.009   5.078  1.0291 -3.1589 -1.2244
 2125SOL    HW2 6954   1.833   1.937   4.966 -1.8072 -0.5132 -1.2417
 2126SOL     OW 6955   9.185   1.219   4.430 -0.2198 -0.6124  0.2406
 2126SOL    HW1 6956   9.156   1.261   4.511 -0.5775 -0.6023  0.1084
 2126SOL    HW2 6957   9.191   1.126   4.451 -0.3836 -0.6189  0.2577
 2127SOL     OW 6958   8.241   0.823   7.366  0.5693 -0.2580 -0.2529
 2127SOL    HW1 6959   8.302   0.753   7.388  1.6374  0.7080 -0.0566
 2127SOL    HW2 6960   8.168   0.812   7.426  0.4437 -1.5547 -0.6237
 2128SOL     OW 6961   9.169   1.978   4.910 -0.2144 -0.2857  0.5709
 2128SOL    HW1 6962   9.170   2.071   4.887  0.7166 -0.6190 -0.8820
 2128SOL    HW2 6963   9.259   1.949   4.895 -0.8628 -1.7803 -0.6339
 2129SOL     OW 6964   2.715   9.372   4.627 -1.1473  0.2449 -0.5401
 2129SOL    HW1 6965   2.645   9.322   4.585 -1.9917 -0.8184  1.9155
 2129SOL    HW2 6966   2.796   9.332   4.595 -1.7583 -0.8093 -0.8051
 2130SOL     OW 6967   6.168   7.666   1.587  0.1771 -0.1876  0.0783
 2130SOL    HW1 6968   6.173   7.572   1.573  1.6952 -0.2030  0.5989
 2130SOL    HW2 6969   6.100   7.676   1.654 -0.8718 -0.7860 -0.8603
 2131SOL     OW 6970   3.547   2.152   2.638 -0.7872 -0.0701  0.4190
 2131SOL    HW1 6971   3.539   2.240   2.676 -3.6864  0.1397 -0.4106
 2131SOL    HW2 6972   3.547   2.094   2.714 -1.1891  0.5729  0.9267
 2132SOL     OW 6973   2.750   5.401   3.001  0.0173  0.1281  0.4563
 2132SOL    HW1 6974   2.710   5.316   3.021 -2.7490  1.5076  1.3609
 2132SOL    HW2 6975   2.726   5.418   2.910  1.1601 -0.3285  0.0578
 2133SOL     OW 6976   5.338   8.929   6.198 -0.0122 -0.2397  0.6996
 2133SOL    HW1 6977   5.276   8.994   6.166 -0.7103 -0.6445  1.1849
 2133SOL    HW2 6978   5.320   8.851   6.145  0.0021 -0.3867  0.9083
 2134SOL     OW 6979   7.121   0.787   9.002  0.2359 -0.0391 -0.1991
 2134SOL    HW1 6980   7.047   0.835   9.038  0.4655 -1.0938  1.8162
 2134SOL    HW2 6981   7.165   0.850   8.945 -0.3378  1.6535  1.1464
 2135SOL     OW 6982   9.042   2.057   5.159  0.4819  0.1389 -0.1280
 2135SOL    HW1 6983   9.099   1.993   5.115 -0.0665 -0.5249  0.1091
 2135SOL    HW2 6984   9.098   2.099   5.223  0.6794 -0.6005  0.1937
 2136SOL     OW 6985   6.109   2.892   1.893 -0.2626  0.1509 -0.4276
 2136SOL    HW1 6986   6.169   2.830   1.853 -2.0448 -1.5067 -0.6753
 2136SOL    HW2 6987   6.024   2.871   1.855 -0.9459  2.8944 -0.6606
 2137SOL     OW 6988   9.677   5.462   6.782 -0.3858 -0.5346  0.2222
 2137SOL    HW1 6989   9.767   5.449   6.750 -0.9366 -0.3221 -1.4866
 2137SOL    HW2 6990   9.622   5.445   6.706 -1.8103 -0.6622  1.2598
 2138SOL     OW 6991   2.476   7.407   9.201 -0.2408 -0.4434 -0.1919
 2138SOL    HW1 6992   2.510   7.481   9.150 -0.4084  0.0686  0.4287
 2138SOL    HW2 6993   2.530   7.333   9.174 -1.3324 -0.5557 -2.3003
 2139SOL     OW 6994   6.779   6.608   6.731  0.2186 -0.1905  0.4577
 2139SOL    HW1 6995   6.844   6.584   6.797  0.6171  0.5190  0.3214
 2139SOL    HW2 6996   6.742   6.690   6.762  1.2791  0.8059 -0.8094
 2140SOL     OW 6997   8.086   1.372   3.521 -0.0107  0.3009 -0.5469
 2140SOL    HW1 6998   8.009   1.327   3.556 -0.4030  0.1327 -1.5746
 2140SOL    HW2 6999   8.159   1.339   3.573 -0.4952 -0.3889 -0.2921
 2141SOL     OW 7000   2.602   2.762   6.038 -0.1723  0.0919 -0.1685
 2141SOL    HW1 7001   2.635   2.818   5.967  0.4689 -0.0301  0.0303
 2141SOL    HW2 7002   2.672   2.761   6.102 -1.9262  2.8477  2.0523
 2142SOL     OW 7003   8.511   1.364   9.905  0.2207  0.0002  0.4223
 2142SOL    HW1 7004   8.585   1.308   9.879 -0.0143 -0.4988  0.8296
 2142SOL    HW2 7005   8.541   1.453   9.885  0.9382 -0.1979  0.5942
 2143SOL     OW 7006   7.945   1.172   2.701  0.4807 -0.1271 -0.1886
 2143SOL    HW1 7007   7.914   1.083   2.689 -3.0350  0.6637  1.7198
 2143SOL    HW2 7008   7.899   1.223   2.634 -1.7347  0.9151  1.9713
 2144SOL     OW 7009   6.630   9.632   3.345 -0.2729  0.0055  0.3974
 2144SOL    HW1 7010   6.681   9.601   3.420 -1.1536 -1.2695  0.5079
 2144SOL    HW2 7011   6.548   9.664   3.384 -1.5871 -2.5138 -0.1040
 2145SOL     OW 7012   0.897  -0.006   1.492 -0.3560  0.1450  0.2208
 2145SOL    HW1 7013   0.942   0.067   1.449  0.2740 -1.2694 -1.6539
 2145SOL    HW2 7014   0.816  -0.017   1.443  1.3742 -2.9267 -2.3128
 2146SOL     OW 7015   3.669   4.071   4.756  0.0713  0.2301  0.1516
 2146SOL    HW1 7016   3.757   4.081   4.792  0.6011  0.6828 -1.1673
 2146SOL    HW2 7017   3.653   4.153   4.709 -0.4802 -0.3981 -0.8003
 2147SOL     OW 7018   2.876   9.725   0.300 -0.2700  0.0064 -0.0991
 2147SOL    HW1 7019   2.813   9.794   0.323  0.5428  0.5502  0.5595
 2147SOL    HW2 7020   2.852   9.651   0.356 -1.3138 -0.3592 -0.9991
 2148SOL     OW 7021   1.736   0.214   5.197 -0.3368 -0.0896 -0.4577
 2148SOL    HW1 7022   1.799   0.282   5.219 -2.5696  2.6359 -1.8777
 2148SOL    HW2 7023   1.788   0.147   5.151  1.7091  1.4015 -0.4425
 2149SOL     OW 7024   1.352   3.347   9.070  0.1129  0.2998  0.5761
 2149SOL    HW1 7025   1.264   3.318   9.096 -0.6961  1.3891 -0.8630
 2149SOL    HW2 7026   1.372   3.420   9.129 -0.7461  1.2620 -0.3007
 2150SOL     OW 7027   5.694   5.737   1.429  0.1636 -0.1217 -0.8042
 2150SOL    HW1 7028   5.642   5.708   1.355 -1.0474  0.4992 -0.2281
 2150SOL    HW2 7029   5.719   5.657   1.475 -0.7680 -0.4130 -0.7858
 2151SOL     OW 7030   2.526   0.044   4.262  1.0974 -0.4226  0.0049
 2151SOL    HW1 7031   2.538   0.139   4.257  1.9978 -0.5640 -2.9193
 2151SOL    HW2 7032   2.432   0.031   4.261  0.9522  0.4262  1.1079
 2152SOL     OW 7033   3.880   8.380   5.785 -0.1427 -0.6969  0.4606
 2152SOL    HW1 7034   3.835   8.305   5.823  1.6027 -1.2257  1.5768
 2152SOL    HW2 7035   3.971   8.370   5.812  0.4767  0.8671 -0.8843
 2153SOL     OW 7036   0.866   2.995   3.551 -0.1502  0.6578  0.1166
 2153SOL    HW1 7037   0.951   3.038   3.563 -0.6948  1.4625  1.2525
 2153SOL    HW2 7038   0.884   2.903   3.571  0.7541  0.5475 -1.0981
 2154SOL     OW 7039   7.054   9.150   3.004  0.6374  0.3601 -0.0621
 2154SOL    HW1 7040   7.109   9.204   2.947  2.5295  0.7815  2.0030
 2154SOL    HW2 7041   7.057   9.063   2.965  1.9851  0.6062 -0.5706
 2155SOL     OW 7042   5.673   0.301   7.527  0.6166  0.1674 -0.1118
 2155SOL    HW1 7043   5.721   0.286   7.446 -0.6244  0.7019 -0.9814
 2155SOL    HW2 7044   5.710   0.239   7.590  1.7794 -0.0643 -1.0043
 2156SOL     OW 7045   3.327   6.819   1.511 -0.1844 -0.0472 -0.5004
 2156SOL    HW1 7046   3.284   6.804   1.595 -0.9091 -0.3815 -0.9193
 2156SOL    HW2 7047   3.255   6.833   1.450  0.2720 -1.3471 -1.3666
 2157SOL     OW 7048   0.992   3.259   3.354 -0.0780 -0.2290 -0.4657
 2157SOL    HW1 7049   0.910   3.309   3.360 -0.7763 -1.4549  1.3515
 2157SOL    HW2 7050   1.060   3.324   3.373 -0.9722  0.1232  2.0841
 2158SOL     OW 7051   1.131   4.063   5.478 -1.0516  0.1960 -0.0516
 2158SOL    HW1 7052   1.109   4.130   5.542  0.4706  0.9125 -0.2281
 2158SOL    HW2 7053   1.093   4.094   5.396 -0.6123  0.7126 -0.0661
 2159SOL     OW 7054   3.699   8.533   6.403 -0.1306 -0.3362 -0.3413
 2159SOL    HW1 7055   3.746   8.580   6.334 -0.7984 -0.6217 -1.0098
 2159SOL    HW2 7056   3.624   8.494   6.358  0.0613 -1.5081  0.3332
 2160SOL     OW 7057   3.111   4.644   9.112  0.4763 -0.2589  0.3975
 2160SOL    HW1 7058   3.167   4.704   9.063  0.7032 -0.9208 -0.1851
 2160SOL    HW2 7059   3.153   4.636   9.198  0.8861 -0.2066  0.2033
 2161SOL     OW 7060   6.614   2.137   2.084  0.1272 -0.7370  0.0990
 2161SOL    HW1 7061   6.690   2.176   2.127 -0.1585  1.0908 -0.9650
 2161SOL    HW2 7062   6.540   2.189   2.114 -0.8411 -2.7513  1.4443
 2162SOL     OW 7063   6.363   0.611   8.465  0.2296  0.1284  0.1253
 2162SOL    HW1 7064   6.284   0.596   8.413  0.4157  0.8738 -0.3866
 2162SOL    HW2 7065   6.375   0.530   8.514 -0.9320  0.0542  0.3124
 2163SOL     OW 7066   0.323   6.775   5.512 -0.0955 -0.1818 -0.1098
 2163SOL    HW1 7067   0.403   6.796   5.561  0.7262 -3.6486  0.2438
 2163SOL    HW2 7068   0.277   6.712   5.567 -1.3537 -0.8541 -1.8528
 2164SOL     OW 7069   4.025   6.789   9.727  0.1513  0.2711 -0.6289
 2164SOL    HW1 7070   4.015   6.880   9.696  1.1203  0.9731  0.9694
 2164SOL    HW2 7071   3.944   6.746   9.702 -1.4555  2.2597  0.7796
 2165SOL     OW 7072   1.651   0.611   7.596  0.2714 -0.8892  0.0590
 2165SOL    HW1 7073   1.576   0.572   7.642  0.7627 -0.2496  1.4380
 2165SOL    HW2 7074   1.615   0.690   7.556 -0.1352 -1.3926 -0.5928
 2166SOL     OW 7075   1.008   4.356   9.215 -0.4512  0.0078  0.5337
 2166SOL    HW1 7076   0.993   4.389   9.304 -0.2860 -0.9371  0.9245
 2166SOL    HW2 7077   1.102   4.336   9.212 -0.6597 -1.0500  0.5433
 2167SOL     OW 7078   6.746   7.747   9.015  0.0796  0.2906  0.2789
 2167SOL    HW1 7079   6.761   7.691   8.938  2.0774  0.6451  0.3500
 2167SOL    HW2 7080   6.820   7.807   9.015  0.6967 -0.3318  3.0561
 2168SOL     OW 7081   7.320   4.193   7.344  0.3664  0.3384 -0.0200
 2168SOL    HW1 7082   7.234   4.201   7.301  0.2229 -0.4557  0.1035
 2168SOL    HW2 7083   7.301   4.150   7.427  0.9287 -0.1591 -0.1461
 2169SOL     OW 7084   1.804   5.051   3.191 -1.0151  0.3374 -0.0908
 2169SOL    HW1 7085   1.891   5.011   3.195 -2.1202 -2.2801 -0.6658
 2169SOL    HW2 7086   1.816   5.128   3.134  0.6241 -0.8790 -1.4775
 2170SOL     OW 7087   7.004   5.532   3.088  0.1900  0.2509  0.3945
 2170SOL    HW1 7088   6.916   5.534   3.127  0.3887  5.4152  1.2140
 2170SOL    HW2 7089   7.061   5.509   3.161 -0.1745  0.9162  0.8981
 2171SOL     OW 7090   4.916   2.201   7.821 -0.2152 -0.7269 -0.1320
 2171SOL    HW1 7091   4.907   2.106   7.820  0.1959 -0.7716  0.1440
 2171SOL    HW2 7092   4.856   2.231   7.889 -0.2784 -0.7984 -0.1570
 2172SOL     OW 7093   7.101   5.273   7.019  0.2981 -0.7678  0.5225
 2172SOL    HW1 7094   7.078   5.353   7.068 -0.3923  0.0628 -1.0743
 2172SOL    HW2 7095   7.049   5.204   7.061 -2.9992  0.5313 -1.0739
 2173SOL     OW 7096   3.275   5.725   4.968  0.2313  0.4214 -0.3593
 2173SOL    HW1 7097   3.324   5.731   5.050  1.5163  1.6350 -1.1799
 2173SOL    HW2 7098   3.273   5.632   4.948  2.5067  0.3437 -0.4435
 2174SOL     OW 7099   2.462   9.858   2.131  0.0580  0.0958  0.0568
 2174SOL    HW1 7100   2.383   9.907   2.110  0.5822  0.6666 -0.6174
 2174SOL    HW2 7101   2.487   9.888   2.218  0.2547  0.8588 -0.2628
 2175SOL     OW 7102   3.641   0.115   1.287 -0.6683  0.0484  0.2097
 2175SOL    HW1 7103   3.673   0.204   1.270 -0.0628  0.0557  1.2857
 2175SOL    HW2 7104   3.680   0.061   1.218  0.5337  0.3035  0.6654
 2176SOL     OW 7105   6.529   1.059   0.591 -0.0006 -0.2168  0.5572
 2176SOL    HW1 7106   6.575   0.993   0.644  1.9537  0.4636 -0.2046
 2176SOL    HW2 7107   6.460   1.091   0.648  2.1148  0.6151  2.8396
 2177SOL     OW 7108   7.741   7.907   5.388  0.2136  0.1271  0.4007
 2177SOL    HW1 7109   7.701   7.990   5.413 -0.5849 -0.1168 -0.0493
 2177SOL    HW2 7110   7.789   7.880   5.466  1.7385  1.7358  0.0970
 2178SOL     OW 7111   6.680   0.588   2.815 -0.7205  0.0031 -0.4683
 2178SOL    HW1 7112   6.738   0.657   2.848 -0.4460 -0.6735  0.4714
 2178SOL    HW2 7113   6.641   0.627   2.736  0.2520  0.8310 -0.5662
 2179SOL     OW 7114   7.226   9.712   0.832  0.0971 -0.0730 -0.2568
 2179SOL    HW1 7115   7.133   9.709   0.852  0.0204  1.4054 -0.2591
 2179SOL    HW2 7116   7.241   9.802   0.802  1.2287 -0.7103 -1.7390
 2180SOL     OW 7117   7.310   3.651   4.618  0.5111  0.2657  0.3710
 2180SOL    HW1 7118   7.404   3.637   4.608  0.6409 -0.2221  1.9297
 2180SOL    HW2 7119   7.297   3.744   4.597  1.1838  0.1179 -0.7451
 2181SOL     OW 7120   6.622   5.841   2.096  0.3425 -0.4786  0.3435
 2181SOL    HW1 7121   6.559   5.825   2.166 -0.3876 -1.3846 -0.4993
 2181SOL    HW2 7122   6.569   5.856   2.018  1.1555 -0.5631 -0.2396
 2182SOL     OW 7123   3.258   3.213   0.035  0.3005 -0.1482  0.0749
 2182SOL    HW1 7124   3.228   3.157  -0.037  0.1532  1.6439 -1.3215
 2182SOL    HW2 7125   3.342   3.248   0.005  0.4774  0.2466  0.9999
 2183SOL     OW 7126   0.908   5.478   2.176  0.4244  0.0564 -0.0389
 2183SOL    HW1 7127   0.976   5.413   2.193 -0.2837 -0.7308 -0.1713
 2183SOL    HW2 7128   0.838   5.430   2.132  0.4223  1.1806 -1.3315
 2184SOL     OW 7129   8.726   4.680   3.790  0.2372  0.0946  0.3147
 2184SOL    HW1 7130   8.785   4.622   3.742  0.5314 -0.3436  1.1883
 2184SOL    HW2 7131   8.701   4.630   3.868 -1.1705  0.3310  0.0457
 2185SOL     OW 7132   0.899   3.864   2.824 -0.2779 -0.1114  0.2928
 2185SOL    HW1 7133   0.903   3.949   2.868  1.4083 -0.1218  0.2041
 2185SOL    HW2 7134   0.967   3.867   2.757 -0.5990 -1.3147 -0.1261
 2186SOL     OW 7135   0.788   1.830   6.631  0.9275  0.6206  0.1430
 2186SOL    HW1 7136   0.846   1.806   6.703  0.1918 -4.7001 -0.6215
 2186SOL    HW2 7137   0.701   1.835   6.671  0.9236  0.8213  0.1096
 2187SOL     OW 7138   7.895   2.024   6.339 -0.3903  0.0197  0.4289
 2187SOL    HW1 7139   7.984   2.041   6.307  0.6066 -2.3596  1.7130
 2187SOL    HW2 7140   7.864   1.952   6.285 -1.3130  0.4057  0.4319
 2188SOL     OW 7141   5.031   3.059   1.624  0.3895  0.2189 -0.5321
 2188SOL    HW1 7142   5.013   2.968   1.600  0.7991 -0.3650  1.2146
 2188SOL    HW2 7143   4.999   3.111   1.550 -2.5924 -1.1372 -0.3277
 2189SOL     OW 7144   1.348   5.596   6.177  0.4426 -0.2427 -0.0403
 2189SOL    HW1 7145   1.424   5.620   6.230  0.3687 -0.3765  0.1294
 2189SOL    HW2 7146   1.385   5.545   6.105  0.3692 -1.7416  0.9376
 2190SOL     OW 7147   5.669   7.020   3.794  0.1010 -0.1920  1.0770
 2190SOL    HW1 7148   5.595   6.973   3.832 -1.4465  2.0658  1.0399
 2190SOL    HW2 7149   5.733   7.025   3.865 -1.1287  0.5649  2.1891
 2191SOL     OW 7150   7.591   4.587   1.730  0.3761  0.4002  0.1903
 2191SOL    HW1 7151   7.578   4.493   1.738 -0.1713  0.4440 -0.1712
 2191SOL    HW2 7152   7.588   4.619   1.820  0.2635  0.1138  0.2878
 2192SOL     OW 7153   7.786   6.281   2.385 -0.4044  0.4809  0.1471
 2192SOL    HW1 7154   7.795   6.228   2.464  0.1474 -0.4819 -0.5388
 2192SOL    HW2 7155   7.727   6.231   2.329 -1.8077  1.7512  0.4133
 2193SOL     OW 7156   3.998   3.163   7.210 -0.0564  0.2811 -0.0035
 2193SOL    HW1 7157   4.000   3.069   7.231 -0.2797  0.5237  1.2004
 2193SOL    HW2 7158   4.090   3.190   7.215  0.0286  0.0941 -0.5245
 2194SOL     OW 7159   0.287   2.137   9.139  0.0628  0.1563 -0.1804
 2194SOL    HW1 7160   0.214   2.109   9.195  0.2292  4.4600  2.6723
 2194SOL    HW2 7161   0.365   2.126   9.194  1.0317 -0.4579 -1.6241
 2195SOL     OW 7162   1.665   3.845   3.105 -0.1794 -0.2592 -0.6261
 2195SOL    HW1 7163   1.703   3.757   3.105 -2.9275 -1.5268 -0.8639
 2195SOL    HW2 7164   1.716   3.892   3.039  1.2306 -1.6795 -0.6293
 2196SOL     OW 7165   0.510   7.415   6.129  0.2661 -0.3687  0.2252
 2196SOL    HW1 7166   0.511   7.331   6.177 -2.3042  0.3232  1.7153
 2196SOL    HW2 7167   0.588   7.461   6.160  0.3681 -1.2369  1.3499
 2197SOL     OW 7168   0.272   4.721   8.168  0.4072 -0.3047  0.6726
 2197SOL    HW1 7169   0.199   4.725   8.106  0.5222  2.5404  0.5934
 2197SOL    HW2 7170   0.349   4.704   8.114  0.7711  3.7720 -0.4476
 2198SOL     OW 7171   2.050   4.908   3.174 -0.0201  0.6403  0.5737
 2198SOL    HW1 7172   2.121   4.918   3.237  0.2266 -1.3396  0.6612
 2198SOL    HW2 7173   2.093   4.878   3.094 -0.6880 -0.0867  0.4778
 2199SOL     OW 7174   3.478   8.607   0.313 -0.6833  0.1945  0.1705
 2199SOL    HW1 7175   3.525   8.552   0.250 -0.3949  0.2240  0.3545
 2199SOL    HW2 7176   3.390   8.616   0.277  0.1302  2.2392 -1.5020
 2200SOL     OW 7177   9.588   2.495   3.831 -0.0386 -0.4203 -0.5443
 2200SOL    HW1 7178   9.495   2.501   3.852  0.2268 -0.0973  0.5995
 2200SOL    HW2 7179   9.592   2.502   3.735 -1.3913 -3.0819 -0.8800
 2201SOL     OW 7180   8.442   9.012   6.492 -0.1878 -0.0672 -0.3193
 2201SOL    HW1 7181   8.428   8.921   6.519  0.1587  0.6980  2.7537
 2201SOL    HW2 7182   8.529   9.011   6.451 -0.0233 -1.0369  0.0207
 2202SOL     OW 7183   6.733   6.644   1.938  0.0676 -0.1486  0.0268
 2202SOL    HW1 7184   6.639   6.623   1.937 -0.0506  0.2674  0.9880
 2202SOL    HW2 7185   6.768   6.592   2.010  0.4571  0.1709  0.0692
 2203SOL     OW 7186   1.909   1.708   4.767  0.0564  0.3258 -0.1408
 2203SOL    HW1 7187   1.950   1.792   4.786 -0.3181  0.4124  0.3030
 2203SOL    HW2 7188   1.979   1.644   4.779  0.6582  0.6720 -1.6583
 2204SOL     OW 7189   2.210   3.560   2.441 -0.0039 -0.0591  0.1994
 2204SOL    HW1 7190   2.187   3.620   2.370 -1.6168  0.3921  1.0510
 2204SOL    HW2 7191   2.265   3.613   2.500 -0.2666  0.1554  0.2524
 2205SOL     OW 7192   3.625   9.977   8.864 -0.2246 -0.9335  0.2412
 2205SOL    HW1 7193   3.720   9.963   8.865 -0.4053 -2.3710  2.0291
 2205SOL    HW2 7194   3.596   9.938   8.781  0.5559 -2.0495  0.4718
 2206SOL     OW 7195   6.970   3.673   9.384 -0.1921  0.0341 -0.1290
 2206SOL    HW1 7196   7.003   3.649   9.471 -0.4380  0.1391 -0.0065
 2206SOL    HW2 7197   7.032   3.739   9.352 -0.2977  0.2480  0.1084
 2207SOL     OW 7198   8.554   8.287   2.004 -0.0930  0.2883 -0.7326
 2207SOL    HW1 7199   8.500   8.214   2.034  1.0647  0.2965  1.7025
 2207SOL    HW2 7200   8.627   8.245   1.959 -0.5045  0.0802 -1.2116
 2208SOL     OW 7201   8.879   3.590   3.056 -0.0334  0.0334 -0.2154
 2208SOL    HW1 7202   8.809   3.528   3.077  0.5512 -0.3905  0.5272
 2208SOL    HW2 7203   8.887   3.586   2.961  0.1511 -1.2218 -0.1617
 2209SOL     OW 7204   6.648   1.804   0.918 -0.1427  0.1232 -0.0806
 2209SOL    HW1 7205   6.618   1.756   0.842 -0.2696 -0.6281  0.4319
 2209SOL    HW2 7206   6.703   1.874   0.883 -2.1320  1.2831 -1.0126
 2210SOL     OW 7207   8.123   4.783   2.191  0.1616 -0.5311 -0.2605
 2210SOL    HW1 7208   8.144   4.812   2.102 -0.7231  2.3603  0.3714
 2210SOL    HW2 7209   8.105   4.689   2.182 -0.6823 -0.1757 -3.2526
 2211SOL     OW 7210   2.000   0.005   7.758  0.5693  0.0588  0.1813
 2211SOL    HW1 7211   1.934   0.066   7.725 -0.2641 -1.6330 -1.4189
 2211SOL    HW2 7212   2.004   0.023   7.852 -0.4531  1.7782 -0.0536
 2212SOL     OW 7213   0.821   0.545   3.899  0.2576  0.0010  0.0294
 2212SOL    HW1 7214   0.829   0.615   3.963 -1.3060  0.2477 -0.0035
 2212SOL    HW2 7215   0.731   0.552   3.866  1.2555  0.4811 -2.8892
 2213SOL     OW 7216   1.351   0.723   0.446  0.3123  0.7047 -0.1049
 2213SOL    HW1 7217   1.411   0.701   0.375  0.3625  2.2773 -0.5912
 2213SOL    HW2 7218   1.387   0.802   0.484 -0.9161  1.1326  0.2257
 2214SOL     OW 7219   8.330   7.350   1.574 -0.0048 -0.3091  0.2224
 2214SOL    HW1 7220   8.394   7.398   1.521 -1.1276  0.8995 -0.0848
 2214SOL    HW2 7221   8.367   7.349   1.662  0.2530  0.7402  0.1383
 2215SOL     OW 7222   4.317   9.246   3.734 -0.2450 -0.0668 -0.4293
 2215SOL    HW1 7223   4.386   9.221   3.795  1.0817  1.1809 -1.3430
 2215SOL    HW2 7224   4.363   9.291   3.663 -2.0716  1.6122 -0.6475
 2216SOL     OW 7225   1.040   7.187   3.172  0.0101 -0.1018  0.1312
 2216SOL    HW1 7226   1.002   7.272   3.153 -0.3228 -0.4805 -0.9612
 2216SOL    HW2 7227   0.980   7.146   3.234 -0.4288  0.0070 -0.2232
 2217SOL     OW 7228   1.966   5.682   9.129  0.0446  0.0468  0.2812
 2217SOL    HW1 7229   1.970   5.671   9.224 -1.7934 -0.9374  0.2857
 2217SOL    HW2 7230   1.918   5.605   9.097 -0.3120  0.8729 -1.3265
 2218SOL     OW 7231   8.192   9.853   4.180 -0.2973  0.4110 -0.2632
 2218SOL    HW1 7232   8.171   9.862   4.088  0.4761 -1.1071 -0.6174
 2218SOL    HW2 7233   8.140   9.779   4.210  0.9105 -0.3584  0.0111
 2219SOL     OW 7234   7.143   5.706   7.509  0.4250  0.0927  0.3002
 2219SOL    HW1 7235   7.082   5.778   7.490 -0.8064 -0.8952  0.4279
 2219SOL    HW2 7236   7.215   5.748   7.557  0.3389  1.4486 -0.6974
 2220SOL     OW 7237   5.301   8.096   4.718  0.5235 -0.1568 -0.1877
 2220SOL    HW1 7238   5.288   8.002   4.707 -0.1972 -0.4840  2.6072
 2220SOL    HW2 7239   5.382   8.102   4.770 -0.1866  0.6232  0.8801
 2221SOL     OW 7240   1.517   4.521   8.853 -0.1340  0.2936  0.6088
 2221SOL    HW1 7241   1.478   4.577   8.785  1.7740  0.2417 -0.5842
 2221SOL    HW2 7242   1.470   4.438   8.846 -1.3910  0.9666  0.8074
 2222SOL     OW 7243   2.796   8.565   3.924  0.5772  0.0093  0.3875
 2222SOL    HW1 7244   2.825   8.532   3.839  0.3808  1.7200 -0.3918
 2222SOL    HW2 7245   2.825   8.499   3.986  1.5271 -0.8596 -0.9103
 2223SOL     OW 7246   2.920   4.434   7.000  0.7383 -0.1614 -0.7777
 2223SOL    HW1 7247   2.951   4.400   7.085  0.4840  0.5307 -0.4010
 2223SOL    HW2 7248   2.974   4.388   6.936  1.8866  0.2977 -0.1809
 2224SOL     OW 7249   2.593   2.223   2.375  0.0819 -0.0257  0.1628
 2224SOL    HW1 7250   2.647   2.144   2.374  0.4204  0.2039  0.0643
 2224SOL    HW2 7251   2.591   2.251   2.283  0.0875  0.1633  0.2205
 2225SOL     OW 7252   6.282   4.017   5.623  0.3679 -0.2019  0.0952
 2225SOL    HW1 7253   6.311   4.042   5.710  0.1469 -1.9932  0.7210
 2225SOL    HW2 7254   6.351   3.958   5.591  1.7832  2.3451 -2.0483
 2226SOL     OW 7255   0.794   9.417   0.893  0.6053  0.2070  0.3022
 2226SOL    HW1 7256   0.874   9.466   0.873  1.4653 -1.0724  0.5070
 2226SOL    HW2 7257   0.741   9.478   0.945  1.6968  0.8874  0.6464
 2227SOL     OW 7258   7.812   1.667   7.465  0.8957  0.2553  0.0043
 2227SOL    HW1 7259   7.746   1.623   7.518  1.5818  0.6152  1.2036
 2227SOL    HW2 7260   7.801   1.760   7.485  0.3762  0.5140 -1.4263
 2228SOL     OW 7261   9.480   1.504   3.290  0.0206 -0.1731 -0.1489
 2228SOL    HW1 7262   9.427   1.584   3.288 -0.7248 -0.6541 -0.2453
 2228SOL    HW2 7263   9.564   1.529   3.252 -0.3413  0.4702 -0.5336
 2229SOL     OW 7264   2.103   8.412   3.921  0.2133  0.6742 -0.4447
 2229SOL    HW1 7265   2.165   8.358   3.872  0.2789 -1.2202  1.5732
 2229SOL    HW2 7266   2.157   8.459   3.985 -0.3061 -0.7200  1.0900
 2230SOL     OW 7267   4.855   0.560   7.593  0.4097  0.5780  0.2362
 2230SOL    HW1 7268   4.867   0.651   7.569  0.4973  0.3774 -0.5292
 2230SOL    HW2 7269   4.919   0.544   7.663 -0.6816  1.5008  1.4969
 2231SOL     OW 7270   2.548   4.232   7.797 -0.0865  0.1653  0.1216
 2231SOL    HW1 7271   2.582   4.144   7.779  0.7656  0.4105  0.5220
 2231SOL    HW2 7272   2.607   4.268   7.863  0.2626  1.4924 -0.8933
 2232SOL     OW 7273   3.441   3.141   2.310 -0.3071 -0.0118  0.2132
 2232SOL    HW1 7274   3.367   3.201   2.303  1.5188  2.4733  1.0120
 2232SOL    HW2 7275   3.410   3.072   2.369 -2.3061  0.3395 -0.3389
 2233SOL     OW 7276   0.609   4.016   5.485 -0.1715  0.1520  0.4775
 2233SOL    HW1 7277   0.610   4.074   5.409  2.0136 -0.3011  0.0945
 2233SOL    HW2 7278   0.547   3.947   5.461 -1.1460  1.1439  0.0419
 2234SOL     OW 7279   8.394   7.893   5.718 -0.2808  0.1691 -0.5720
 2234SOL    HW1 7280   8.393   7.829   5.790  0.3296  1.9473  1.0926
 2234SOL    HW2 7281   8.449   7.852   5.651 -0.8695 -1.5460 -0.0558
 2235SOL     OW 7282   7.173   8.439   3.903 -0.4591 -0.3036  0.7414
 2235SOL    HW1 7283   7.129   8.520   3.876 -1.6472 -1.2419 -0.2208
 2235SOL    HW2 7284   7.103   8.386   3.940 -0.3433 -2.1314 -1.4695
 2236SOL     OW 7285   4.930   8.497   4.253  0.2272 -0.4075 -0.0552
 2236SOL    HW1 7286   4.863   8.550   4.296  1.9747  1.1281  0.9054
 2236SOL    HW2 7287   4.981   8.459   4.325  1.9340  0.5408 -0.6955
 2237SOL     OW 7288   4.473   1.245   5.455 -0.0996 -0.2531  0.1876
 2237SOL    HW1 7289   4.504   1.235   5.365 -0.9294 -0.3529 -0.0964
 2237SOL    HW2 7290   4.534   1.192   5.507 -0.9489 -2.0688 -0.5997
 2238SOL     OW 7291   4.351   3.005   8.003  0.4243 -0.1253  0.3359
 2238SOL    HW1 7292   4.303   3.024   7.922  3.1029 -0.7456 -1.5267
 2238SOL    HW2 7293   4.309   2.925   8.037 -0.1389 -0.4282 -0.9863
 2239SOL     OW 7294   4.169   0.985   5.159  0.4512  0.7302 -0.1096
 2239SOL    HW1 7295   4.120   0.907   5.185 -0.5510  1.3741  0.0249
 2239SOL    HW2 7296   4.141   1.002   5.069 -0.5383  1.7907  0.3661
 2240SOL     OW 7297   2.895   3.164   5.203 -0.2370  0.3611  0.0933
 2240SOL    HW1 7298   2.941   3.120   5.274  1.2780  0.2276 -0.9278
 2240SOL    HW2 7299   2.941   3.248   5.192  0.0050  0.0862 -1.1598
 2241SOL     OW 7300   9.585   1.622   9.815 -0.1622 -0.1584  0.0563
 2241SOL    HW1 7301   9.633   1.671   9.881  1.1953 -1.1729 -0.1282
 2241SOL    HW2 7302   9.621   1.534   9.820 -2.2332 -1.0579  0.0820
 2242SOL     OW 7303   9.415   3.442   5.402  0.2649 -0.3545  0.0671
 2242SOL    HW1 7304   9.358   3.374   5.437 -1.6991  0.9783 -0.3893
 2242SOL    HW2 7305   9.413   3.427   5.307  0.5406 -0.1848  0.0340
 2243SOL     OW 7306   9.781   0.572   4.491  0.5657  0.4580  0.4503
 2243SOL    HW1 7307   9.745   0.485   4.507  3.2896 -0.3490  3.1265
 2243SOL    HW2 7308   9.839   0.562   4.415 -0.7027  0.5048 -0.5513
 2244SOL     OW 7309   9.339   2.885   1.921  0.1299 -0.0830  0.2349
 2244SOL    HW1 7310   9.405   2.846   1.865 -1.5876  0.1139 -2.0816
 2244SOL    HW2 7311   9.336   2.828   1.998  2.0023 -0.8495 -0.2109
 2245SOL     OW 7312   6.043   0.609   1.128  0.1510 -0.4505  0.1241
 2245SOL    HW1 7313   5.980   0.620   1.057  0.0054  0.5800  0.4094
 2245SOL    HW2 7314   6.107   0.547   1.093  0.7938  1.0169 -1.4089
 2246SOL     OW 7315   4.164   5.483   8.818  0.0783  0.4693  0.3803
 2246SOL    HW1 7316   4.115   5.565   8.824 -0.4802  0.0564  1.8608
 2246SOL    HW2 7317   4.097   5.418   8.795  0.5172  0.3998 -0.7828
 2247SOL     OW 7318   9.431   0.013   1.359  0.4053 -0.0963  0.5000
 2247SOL    HW1 7319   9.502  -0.029   1.407  1.0065  1.8744  1.4435
 2247SOL    HW2 7320   9.448   0.107   1.367 -0.4956  0.3778 -2.0680
 2248SOL     OW 7321   8.436   8.060   2.137 -0.4375  0.3687  0.0333
 2248SOL    HW1 7322   8.502   8.072   2.206 -0.1903 -0.9340  0.0557
 2248SOL    HW2 7323   8.403   7.971   2.151  0.6412 -0.4855 -2.3833
 2249SOL     OW 7324   7.435   8.153   0.053  0.1430 -0.4494  0.3681
 2249SOL    HW1 7325   7.351   8.111   0.034  0.3078 -0.0871 -1.2489
 2249SOL    HW2 7326   7.497   8.081   0.058 -0.3140 -0.7767  2.1256
 2250SOL     OW 7327   4.255   4.265   1.606 -0.2910  0.0486  0.2930
 2250SOL    HW1 7328   4.337   4.307   1.580 -0.6965  0.6898  0.0170
 2250SOL    HW2 7329   4.282   4.193   1.662  0.3692  2.3902  3.2491
 2251SOL     OW 7330   9.889   5.017   3.582  0.1357  0.0248  0.3028
 2251SOL    HW1 7331   9.794   5.012   3.591  0.0615  1.4212  0.5075
 2251SOL    HW2 7332   9.904   5.009   3.488 -0.3841  2.0754  0.0057
 2252SOL     OW 7333   1.278   9.618   5.358 -0.5818  0.0136 -0.1048
 2252SOL    HW1 7334   1.209   9.621   5.424 -0.7496  0.1947 -0.2873
 2252SOL    HW2 7335   1.297   9.525   5.347 -0.3121  0.0017  0.4466
 2253SOL     OW 7336   4.786   1.869   3.496  0.0870  0.0899  0.0378
 2253SOL    HW1 7337   4.836   1.951   3.506 -0.6523  0.5304  0.1990
 2253SOL    HW2 7338   4.701   1.888   3.535 -0.6036 -0.2782 -1.2353
 2254SOL     OW 7339   3.748   8.337   7.998 -0.0245 -0.2008 -0.3791
 2254SOL    HW1 7340   3.839   8.341   7.970 -0.0980 -0.6551 -0.6954
 2254SOL    HW2 7341   3.740   8.253   8.043 -0.0702  0.2330  0.4474
 2255SOL     OW 7342   7.605   4.285   2.578  0.3771 -0.0231 -0.4786
 2255SOL    HW1 7343   7.668   4.238   2.523  1.1296  0.1437  0.2383
 2255SOL    HW2 7344   7.551   4.215   2.616  1.0396 -0.2768  0.0210
 2256SOL     OW 7345   5.315   8.676   8.756  0.0473  0.8730 -0.0104
 2256SOL    HW1 7346   5.362   8.659   8.674 -0.7141 -1.1632 -0.0767
 2256SOL    HW2 7347   5.322   8.595   8.806 -0.9877  1.4858  1.1943
 2257SOL     OW 7348   1.537   6.103   7.944 -0.1024 -0.3333 -0.3155
 2257SOL    HW1 7349   1.564   6.016   7.914  2.4475 -0.1465  1.1484
 2257SOL    HW2 7350   1.595   6.163   7.898 -0.0513  0.3747  0.6497
 2258SOL     OW 7351   8.000   4.252   7.384  0.2250  0.6409 -0.3157
 2258SOL    HW1 7352   7.952   4.309   7.323  0.8856  0.3593 -1.1052
 2258SOL    HW2 7353   8.045   4.313   7.443 -2.3662  0.9499  1.5210
 2259SOL     OW 7354   3.385   0.485   4.021  0.1472 -0.2945  0.5639
 2259SOL    HW1 7355   3.465   0.463   3.973 -0.1784  0.9271 -0.5961
 2259SOL    HW2 7356   3.366   0.575   3.995 -0.7427 -0.0251  2.0444
 2260SOL     OW 7357   6.179   3.295   0.086  0.1565 -0.5804 -0.2993
 2260SOL    HW1 7358   6.261   3.332   0.053 -0.0666 -0.9098 -1.2481
 2260SOL    HW2 7359   6.125   3.282   0.008 -1.1797  0.5110  0.4104
 2261SOL     OW 7360   1.545   7.860   7.130 -0.2618 -0.0162 -0.1244
 2261SOL    HW1 7361   1.601   7.800   7.178 -0.6349  0.2573  0.6795
 2261SOL    HW2 7362   1.571   7.850   7.039  0.3916 -0.6268  0.1203
 2262SOL     OW 7363   5.334   2.463   1.436 -0.2757 -0.0799  0.5148
 2262SOL    HW1 7364   5.262   2.488   1.494 -1.0196  0.2834 -0.5309
 2262SOL    HW2 7365   5.292   2.423   1.360  0.6985 -0.9391  0.4005
 2263SOL     OW 7366   6.941   8.300   3.996 -0.5866 -0.0677 -0.2363
 2263SOL    HW1 7367   6.846   8.297   3.979 -0.9027 -0.5666  1.4196
 2263SOL    HW2 7368   6.956   8.229   4.058  0.5604  1.0796  0.8658
 2264SOL     OW 7369   9.549   0.059   1.743 -0.1318 -0.3003  0.0552
 2264SOL    HW1 7370   9.594   0.044   1.826 -0.0608  0.8639  0.2460
 2264SOL    HW2 7371   9.474  -0.001   1.745 -0.7490  0.4666  1.4668
 2265SOL     OW 7372   1.337   9.629   8.712  0.3786 -0.7654 -0.3307
 2265SOL    HW1 7373   1.247   9.635   8.745  0.5884 -0.0655  0.1460
 2265SOL    HW2 7374   1.382   9.701   8.755  1.1425 -1.0417 -0.6617
 2266SOL     OW 7375   9.644   3.573   2.406 -0.4110  0.1435  0.3008
 2266SOL    HW1 7376   9.651   3.627   2.485  3.1202  0.0341  0.2005
 2266SOL    HW2 7377   9.553   3.584   2.378 -1.1843  1.9667  3.0936
 2267SOL     OW 7378   2.941   1.916   4.000  0.4668 -0.1675  0.7134
 2267SOL    HW1 7379   2.995   1.894   3.924 -1.1001  0.5004 -0.6625
 2267SOL    HW2 7380   3.000   1.906   4.075  2.2357 -0.2920 -0.6177
 2268SOL     OW 7381   3.686   5.005   1.615 -0.2683 -0.4200  0.0275
 2268SOL    HW1 7382   3.739   4.946   1.562 -1.1504 -1.4603  0.2700
 2268SOL    HW2 7383   3.736   5.087   1.617  1.2852 -1.3363  0.1901
 2269SOL     OW 7384   3.062   1.708   8.230  0.1889  0.3061 -0.2976
 2269SOL    HW1 7385   3.091   1.768   8.299  1.5536 -0.3380 -0.2724
 2269SOL    HW2 7386   3.135   1.647   8.220  0.2842  0.7564 -2.7533
 2270SOL     OW 7387   9.309   5.681   6.506 -0.3940 -0.4653 -0.2596
 2270SOL    HW1 7388   9.396   5.711   6.481 -1.5709  1.0738 -2.9825
 2270SOL    HW2 7389   9.288   5.731   6.585  1.2891 -1.0961  0.6087
 2271SOL     OW 7390   4.388   0.434   5.494  0.6474  0.0308  0.5042
 2271SOL    HW1 7391   4.359   0.367   5.556  0.3575  0.5151  0.8989
 2271SOL    HW2 7392   4.308   0.471   5.458  0.7913  0.4162  0.5659
 2272SOL     OW 7393   4.477   1.433   0.725  1.1528  0.2680 -0.4684
 2272SOL    HW1 7394   4.506   1.477   0.645  0.1136 -1.2948 -1.7874
 2272SOL    HW2 7395   4.402   1.380   0.697  1.3232 -1.0406  1.3441
 2273SOL     OW 7396   7.769   2.858   7.371 -0.0754 -0.0304  0.0753
 2273SOL    HW1 7397   7.717   2.782   7.343  0.4473 -1.1659  2.0316
 2273SOL    HW2 7398   7.846   2.856   7.313  0.0158 -1.1015  0.2186
 2274SOL     OW 7399   0.487   4.359   3.019  0.3670 -0.7221  0.0301
 2274SOL    HW1 7400   0.459   4.284   2.967 -0.9818  0.4049 -0.9428
 2274SOL    HW2 7401   0.543   4.410   2.959 -2.1468  1.2049 -0.8665
 2275SOL     OW 7402   6.122   0.024   9.854  0.6244  0.1942  0.0429
 2275SOL    HW1 7403   6.110  -0.027   9.774  0.0085  0.3661  0.0204
 2275SOL    HW2 7404   6.215   0.016   9.874  0.8451  0.4051 -0.8601
 2276SOL     OW 7405   4.270   2.959   9.875 -0.6050  0.2962 -0.0457
 2276SOL    HW1 7406   4.274   2.926   9.965  1.6308 -2.3258 -0.9660
 2276SOL    HW2 7407   4.190   2.920   9.839 -0.5593 -0.1238  0.2986
 2277SOL     OW 7408   0.084   2.023   0.148 -0.1230  0.5783 -0.3140
 2277SOL    HW1 7409   0.080   1.980   0.233 -3.1714  0.8719 -0.2007
 2277SOL    HW2 7410   0.158   1.982   0.104  1.2530  0.0649  2.2404
 2278SOL     OW 7411   4.532   4.349   4.062 -0.3910 -0.3410 -0.0611
 2278SOL    HW1 7412   4.450   4.327   4.016 -1.4461 -0.1266  1.6460
 2278SOL    HW2 7413   4.584   4.394   3.996 -0.8854 -2.0551 -1.7225
 2279SOL     OW 7414   8.611   6.925   6.133 -0.0897  0.1450 -0.6377
 2279SOL    HW1 7415   8.529   6.951   6.177  0.1461  0.5897 -0.4517
 2279SOL    HW2 7416   8.588   6.846   6.084 -0.0323 -1.2072  1.3823
 2280SOL     OW 7417   2.012   6.585   5.998  0.0606 -0.1224 -0.4771
 2280SOL    HW1 7418   1.991   6.662   6.050 -0.7032 -1.1077  0.7395
 2280SOL    HW2 7419   1.935   6.572   5.943 -0.3770 -0.7450  0.2587
 2281SOL     OW 7420   5.307   5.782   4.645 -0.2060  0.1727 -0.3233
 2281SOL    HW1 7421   5.345   5.705   4.603  2.0510  0.2506  1.4022
 2281SOL    HW2 7422   5.269   5.749   4.727  1.1137  0.8745  0.6142
 2282SOL     OW 7423   8.651   0.470   7.958 -0.6134 -0.4298  0.4585
 2282SOL    HW1 7424   8.603   0.439   7.882 -0.6573  0.7204  0.0037
 2282SOL    HW2 7425   8.668   0.562   7.940  2.1555 -0.8632  0.3696
 2283SOL     OW 7426   5.158   3.735   0.654  0.2817 -0.2094  0.2314
 2283SOL    HW1 7427   5.235   3.718   0.707  0.4143 -0.7373 -0.1263
 2283SOL    HW2 7428   5.086   3.694   0.702  0.7683 -3.0053 -1.2184
 2284SOL     OW 7429   2.505   2.375   3.080  0.0275 -0.2076  0.2000
 2284SOL    HW1 7430   2.456   2.357   3.000  1.0159 -0.1887 -0.4237
 2284SOL    HW2 7431   2.459   2.326   3.148 -1.2135  0.3052 -0.2398
 2285SOL     OW 7432   9.884   4.892   0.548 -0.0643  0.7020  0.6109
 2285SOL    HW1 7433   9.933   4.974   0.557 -1.4605  1.5791  0.5715
 2285SOL    HW2 7434   9.890   4.851   0.634  1.9170  0.0728  0.2131
 2286SOL     OW 7435   4.045   6.488   3.398 -0.1062 -0.1052 -0.5481
 2286SOL    HW1 7436   4.111   6.507   3.331 -0.9465  1.5024 -0.9545
 2286SOL    HW2 7437   3.961   6.504   3.354 -0.9118 -3.3387 -0.4505
 2287SOL     OW 7438   4.832   1.754   2.007 -0.0784 -0.6785 -0.2011
 2287SOL    HW1 7439   4.868   1.735   2.094 -0.6748  1.0346  0.4719
 2287SOL    HW2 7440   4.906   1.792   1.959 -0.7764  2.7104  1.1374
 2288SOL     OW 7441   4.428   1.992   0.647  0.1920 -0.3977  0.0858
 2288SOL    HW1 7442   4.364   2.005   0.577  1.1777  0.2912 -0.7111
 2288SOL    HW2 7443   4.437   2.078   0.687 -0.8157 -0.9050  1.5078
 2289SOL     OW 7444   5.799   3.825   2.875 -0.2462 -0.6378  0.5515
 2289SOL    HW1 7445   5.889   3.844   2.847  0.0925 -0.3019  1.8106
 2289SOL    HW2 7446   5.782   3.737   2.841  0.1326 -0.2575 -0.6841
 2290SOL     OW 7447   5.875   9.293   2.688  0.1708  0.2266  0.6458
 2290SOL    HW1 7448   5.944   9.235   2.719  0.2494 -0.1043 -0.1347
 2290SOL    HW2 7449   5.838   9.248   2.613 -0.6362  0.5889  0.8210
 2291SOL     OW 7450   6.976   0.960   0.093 -0.3684 -0.4706  0.1165
 2291SOL    HW1 7451   7.037   1.031   0.113  1.0621 -1.6188  0.0348
 2291SOL    HW2 7452   6.900   0.977   0.148  1.1278 -0.4253  2.2681
 2292SOL     OW 7453   3.553   0.614   0.981  0.5029 -0.3480 -0.0009
 2292SOL    HW1 7454   3.647   0.621   0.968  0.4261  0.3674 -0.2508
 2292SOL    HW2 7455   3.522   0.558   0.911  0.5413  0.7141 -0.8943
 2293SOL     OW 7456   4.053   5.778   9.172  0.7828 -0.4423 -0.2736
 2293SOL    HW1 7457   4.131   5.754   9.223 -0.1471  0.5342  1.7114
 2293SOL    HW2 7458   3.981   5.776   9.235 -0.1642  2.5249 -1.1006
 2294SOL     OW 7459   1.091   5.726   4.101 -0.5819  0.4167 -0.3401
 2294SOL    HW1 7460   1.080   5.771   4.184  0.2027  1.5976 -0.8470
 2294SOL    HW2 7461   1.060   5.789   4.036  0.7762  0.3451 -1.0934
 2295SOL     OW 7462   8.211   1.174   8.111 -0.0329 -0.6678 -0.8136
 2295SOL    HW1 7463   8.238   1.168   8.019  0.7633 -0.9894 -0.5594
 2295SOL    HW2 7464   8.123   1.213   8.106  0.4535  0.3935 -1.6462
 2296SOL     OW 7465   2.479   5.210   5.778 -0.3440  0.1346 -0.0596
 2296SOL    HW1 7466   2.506   5.236   5.865 -0.2471  1.3029 -0.4275
 2296SOL    HW2 7467   2.403   5.152   5.792  0.3267 -0.5543  0.8242
 2297SOL     OW 7468   4.645   3.393   4.573  0.3591 -0.6164 -0.2828
 2297SOL    HW1 7469   4.706   3.397   4.647 -0.9047  0.1791  0.7648
 2297SOL    HW2 7470   4.586   3.320   4.595 -0.5184  0.1421 -0.0917
 2298SOL     OW 7471   4.415   2.706   1.095  0.2806 -0.0040 -0.3264
 2298SOL    HW1 7472   4.365   2.667   1.166  0.7039 -1.3642 -0.7495
 2298SOL    HW2 7473   4.410   2.800   1.112 -1.4877 -0.1532  0.2436
 2299SOL     OW 7474   9.625   2.679   6.520 -0.1214 -0.2442 -0.0009
 2299SOL    HW1 7475   9.551   2.729   6.485  0.1763  1.2922  1.4506
 2299SOL    HW2 7476   9.592   2.589   6.526 -1.1138 -0.0178 -1.4462
 2300SOL     OW 7477   9.087   5.297   3.187  0.1434  0.0231 -0.2892
 2300SOL    HW1 7478   9.157   5.257   3.134 -0.3562  1.5429 -2.2120
 2300SOL    HW2 7479   9.008   5.286   3.133 -1.3998 -2.4335  2.1935
 2301SOL     OW 7480   7.813   4.450   7.932  0.1058 -0.0595  0.2068
 2301SOL    HW1 7481   7.813   4.545   7.950 -0.8507 -0.1502  0.7513
 2301SOL    HW2 7482   7.853   4.442   7.846  0.7802  0.7875  0.4237
 2302SOL     OW 7483   5.875   9.382   9.381  0.5729 -0.2699  0.1091
 2302SOL    HW1 7484   5.900   9.355   9.293 -0.4435  1.1969 -0.6686
 2302SOL    HW2 7485   5.856   9.300   9.427  0.8487 -1.0389 -1.1076
 2303SOL     OW 7486   9.730   2.327   9.890  0.1696  0.4232  0.3874
 2303SOL    HW1 7487   9.729   2.351   9.982  0.6294  1.2652  0.1865
 2303SOL    HW2 7488   9.722   2.410   9.843 -0.9939 -0.0699 -0.3352
 2304SOL     OW 7489   1.021   9.800   6.061 -0.6135  0.4613 -0.2525
 2304SOL    HW1 7490   0.979   9.715   6.074 -0.6580  0.5255  0.0535
 2304SOL    HW2 7491   1.080   9.809   6.137  0.3398  0.1480 -0.9329
 2305SOL     OW 7492   8.599   6.633   6.978 -0.1475 -0.3620 -0.0261
 2305SOL    HW1 7493   8.542   6.690   7.030  0.2923 -1.5614  1.8418
 2305SOL    HW2 7494   8.625   6.688   6.904 -0.6535  1.4858  1.0884
 2306SOL     OW 7495   4.442   2.312   7.997  0.0921  0.0606 -0.0601
 2306SOL    HW1 7496   4.435   2.224   8.036 -0.9412 -1.4356 -3.2630
 2306SOL    HW2 7497   4.487   2.297   7.914 -0.1023  2.6075 -0.6926
 2307SOL     OW 7498   5.641   6.101   9.037  0.0744 -0.5671 -0.6125
 2307SOL    HW1 7499   5.694   6.030   9.000  0.5501 -2.4344  3.0938
 2307SOL    HW2 7500   5.560   6.058   9.064 -0.5920  0.8151 -0.3557
 2308SOL     OW 7501   9.177   2.832   9.931 -0.3908  0.1465 -0.0587
 2308SOL    HW1 7502   9.238   2.817  10.003  1.3079  0.3259 -1.3895
 2308SOL    HW2 7503   9.181   2.926   9.916  1.2994 -0.1421 -1.9802
 2309SOL     OW 7504   7.312   4.353   9.437 -0.4751  0.6933 -0.1762
 2309SOL    HW1 7505   7.323   4.446   9.458 -0.0443  0.1934  2.0857
 2309SOL    HW2 7506   7.236   4.326   9.488  0.4490 -0.5570  0.6107
 2310SOL     OW 7507   2.568   8.269   0.199 -0.5700  0.3841  0.5275
 2310SOL    HW1 7508   2.624   8.343   0.173 -0.3537 -0.4611 -1.5903
 2310SOL    HW2 7509   2.545   8.227   0.117 -2.4006 -0.7045  1.5508
 2311SOL     OW 7510   6.975   3.817   5.716 -0.1202 -0.6013 -0.9178
 2311SOL    HW1 7511   7.002   3.853   5.801  0.8270  1.5454 -2.0447
 2311SOL    HW2 7512   7.053   3.773   5.683 -0.5900 -1.7318 -0.5632
 2312SOL     OW 7513   8.628   9.316   9.711  0.3390  0.7172  0.0054
 2312SOL    HW1 7514   8.544   9.271   9.723  0.5120  0.8901  2.0500
 2312SOL    HW2 7515   8.620   9.358   9.625 -0.6094 -1.4910 -1.0632
 2313SOL     OW 7516   2.765   6.269   2.502  0.2468  0.1781 -0.3351
 2313SOL    HW1 7517   2.717   6.208   2.558 -0.6921  1.1509 -0.0608
 2313SOL    HW2 7518   2.828   6.310   2.561 -0.3699  0.8025 -0.1017
 2314SOL     OW 7519   6.816   7.174   8.744 -0.1747  0.1094  0.4124
 2314SOL    HW1 7520   6.803   7.080   8.728  0.7668 -0.2389  1.5709
 2314SOL    HW2 7521   6.860   7.205   8.665  0.3671 -0.6347  0.4045
 2315SOL     OW 7522   7.814   7.025   5.128 -0.1288 -0.2039  0.1642
 2315SOL    HW1 7523   7.878   7.071   5.073 -1.2335  0.3535 -0.7026
 2315SOL    HW2 7524   7.733   7.075   5.117 -0.7270 -0.9207  1.1991
 2316SOL     OW 7525   1.288   6.619   2.291 -0.2853 -0.3279 -0.8286
 2316SOL    HW1 7526   1.328   6.655   2.212 -1.2524 -1.2305 -1.7521
 2316SOL    HW2 7527   1.228   6.551   2.260 -1.7363  0.2320  0.5688
 2317SOL     OW 7528   2.399   0.914   5.992 -0.3037 -0.1877  0.3230
 2317SOL    HW1 7529   2.323   0.963   6.023  0.4984  1.4236 -0.1607
 2317SOL    HW2 7530   2.413   0.946   5.903  2.4705  1.4822  1.2648
 2318SOL     OW 7531   9.033   0.498   2.150  0.4841 -0.2989  0.6146
 2318SOL    HW1 7532   9.056   0.512   2.059  0.7223 -2.5575  0.2696
 2318SOL    HW2 7533   8.967   0.565   2.170  1.7137  1.3393 -0.6590
 2319SOL     OW 7534   4.243   0.581   7.061 -0.1805  0.5791  0.4901
 2319SOL    HW1 7535   4.223   0.551   6.972  0.2349 -0.5034  0.7477
 2319SOL    HW2 7536   4.203   0.515   7.118 -1.3198  1.7789  1.1584
 2320SOL     OW 7537   0.044   7.215   3.981 -0.6275 -0.5203 -0.8358
 2320SOL    HW1 7538   0.042   7.284   4.048  1.8275 -1.6496  0.5159
 2320SOL    HW2 7539   0.079   7.258   3.903  2.1513 -0.4138  0.3669
 2321SOL     OW 7540   0.994   5.978   8.995  0.0106 -0.3450  0.8360
 2321SOL    HW1 7541   1.025   5.999   8.907 -0.5701  3.4305  1.3294
 2321SOL    HW2 7542   0.906   5.941   8.981 -0.0637  0.1703 -0.2049
 2322SOL     OW 7543   7.864   7.899   3.245  0.2077  0.0350  0.2398
 2322SOL    HW1 7544   7.952   7.932   3.263  0.0215  1.0196 -0.5339
 2322SOL    HW2 7545   7.814   7.918   3.324  0.6501 -0.3753  0.6167
 2323SOL     OW 7546   4.564   6.082   8.842 -0.4289 -0.1239 -0.5450
 2323SOL    HW1 7547   4.558   6.016   8.911  0.7491 -0.4299 -0.6967
 2323SOL    HW2 7548   4.500   6.055   8.777 -1.8315  0.3855  0.5702
 2324SOL     OW 7549   9.243   5.609   7.732 -0.2233  0.0901  1.0171
 2324SOL    HW1 7550   9.208   5.692   7.765  1.8597  1.9863 -1.1232
 2324SOL    HW2 7551   9.298   5.576   7.802 -0.7802  0.6932  1.7548
 2325SOL     OW 7552   0.540   6.801   0.364 -0.0091 -0.0272  0.2668
 2325SOL    HW1 7553   0.447   6.808   0.339 -0.2519  1.0985  1.3954
 2325SOL    HW2 7554   0.540   6.749   0.443  0.0965  1.5123  1.3226
 2326SOL     OW 7555   9.122   4.282   3.980 -0.4821 -0.5583  0.8311
 2326SOL    HW1 7556   9.176   4.360   3.990 -0.3648 -0.6061  0.5764
 2326SOL    HW2 7557   9.033   4.310   4.002 -0.4187 -0.3839  0.8617
 2327SOL     OW 7558   7.125   9.054   3.282 -0.2307  0.4127 -0.4652
 2327SOL    HW1 7559   7.066   9.110   3.232 -0.0194 -2.0523 -3.8544
 2327SOL    HW2 7560   7.213   9.082   3.254 -0.0597 -0.2916 -0.6376
 2328SOL     OW 7561   2.648   7.987   5.384  0.5972 -0.1926  0.6124
 2328SOL    HW1 7562   2.730   7.937   5.377  0.1282 -0.9981  0.7540
 2328SOL    HW2 7563   2.588   7.928   5.430  0.5107  1.1230  2.2526
 2329SOL     OW 7564   9.479   2.294   0.220  0.0584  0.1878 -0.1018
 2329SOL    HW1 7565   9.503   2.334   0.304  1.0934 -1.7306  0.5613
 2329SOL    HW2 7566   9.403   2.344   0.191 -0.6151  0.6001  2.2023
 2330SOL     OW 7567   0.710   5.108   3.989 -0.4626  0.0084 -0.2025
 2330SOL    HW1 7568   0.624   5.132   4.023 -0.6842 -0.3824 -0.4711
 2330SOL    HW2 7569   0.744   5.188   3.950 -1.4657 -0.2317 -1.6650
 2331SOL     OW 7570   3.632   8.993   7.812  0.6780 -0.3701 -0.0730
 2331SOL    HW1 7571   3.554   8.940   7.795 -0.1832  0.2927  1.5918
 2331SOL    HW2 7572   3.678   8.996   7.728 -0.0731 -2.3939 -0.6040
 2332SOL     OW 7573   5.790   7.736   8.673  0.2585  0.4464 -0.6695
 2332SOL    HW1 7574   5.706   7.691   8.662 -0.1738  1.5384 -2.2195
 2332SOL    HW2 7575   5.852   7.667   8.694 -0.9577 -0.4363  0.1289
 2333SOL     OW 7576   0.805   3.785   0.872 -0.8742 -0.6067 -0.1256
 2333SOL    HW1 7577   0.829   3.711   0.928  0.2818  0.0205  0.2438
 2333SOL    HW2 7578   0.719   3.761   0.836 -1.4118 -1.2481  1.5017
 2334SOL     OW 7579   0.205   5.708   7.614 -0.2395  0.2565  0.2897
 2334SOL    HW1 7580   0.240   5.723   7.702  3.0084  0.5494 -0.9390
 2334SOL    HW2 7581   0.170   5.793   7.588  0.6989  0.7288  0.5313
 2335SOL     OW 7582   9.146   8.379   6.004 -0.0065  0.4635  0.0557
 2335SOL    HW1 7583   9.125   8.304   5.948  0.2442  0.0585  0.4935
 2335SOL    HW2 7584   9.072   8.387   6.063 -1.3539  2.3218 -1.7771
 2336SOL     OW 7585   2.802   5.087   8.271 -0.6112 -0.8721 -0.3111
 2336SOL    HW1 7586   2.771   5.109   8.359 -1.7898 -1.8443 -0.4563
 2336SOL    HW2 7587   2.735   5.030   8.236 -0.1556 -0.4993 -1.8616
 2337SOL     OW 7588   7.117   0.055   8.085  0.6893  0.2444 -0.1849
 2337SOL    HW1 7589   7.024   0.036   8.077  0.4723  1.3113 -0.3703
 2337SOL    HW2 7590   7.128   0.080   8.177  0.4916  1.5756 -0.5074
 2338SOL     OW 7591   0.393   7.829   0.033  0.3228  0.6114 -0.3004
 2338SOL    HW1 7592   0.435   7.899  -0.016  2.1458 -0.7068 -0.7103
 2338SOL    HW2 7593   0.450   7.816   0.109  0.5922 -1.0818 -0.7556
 2339SOL     OW 7594   9.151   7.823   3.072 -0.7012 -0.1573  0.2236
 2339SOL    HW1 7595   9.197   7.811   2.989 -1.0755  0.4861 -0.0862
 2339SOL    HW2 7596   9.135   7.735   3.104 -1.4514 -0.4441 -0.8887
 2340SOL     OW 7597   8.185   0.672   1.497 -0.1138 -0.1118 -0.1382
 2340SOL    HW1 7598   8.189   0.621   1.416 -0.9781 -1.9691  0.9076
 2340SOL    HW2 7599   8.124   0.743   1.478  0.7491  0.3046 -1.5037
 2341SOL     OW 7600   2.636   0.895   8.406 -0.8613  0.2137 -1.0496
 2341SOL    HW1 7601   2.698   0.957   8.367  1.5633 -0.3021  1.6442
 2341SOL    HW2 7602   2.580   0.950   8.462 -1.3641  0.4038 -1.7249
 2342SOL     OW 7603   2.584   5.109   4.655 -0.3110 -0.7657  0.1128
 2342SOL    HW1 7604   2.530   5.152   4.588 -2.3146 -0.8653  1.5868
 2342SOL    HW2 7605   2.638   5.180   4.691 -0.5064 -0.3665 -0.3648
 2343SOL     OW 7606   6.077   3.824   4.126 -0.7150  0.2128  0.3702
 2343SOL    HW1 7607   6.160   3.847   4.168 -0.4359 -0.1625  0.0367
 2343SOL    HW2 7608   6.018   3.802   4.199  0.3034 -2.2536  0.5594
 2344SOL     OW 7609   6.405   9.236   6.609  0.0177 -0.1436  0.5776
 2344SOL    HW1 7610   6.371   9.186   6.535  0.4169 -1.1667  1.0650
 2344SOL    HW2 7611   6.394   9.328   6.584 -1.6333 -0.4571  0.0636
 2345SOL     OW 7612   2.935   0.870   6.707 -0.3518 -0.6463  0.1692
 2345SOL    HW1 7613   2.842   0.884   6.728 -0.6658 -0.1736 -1.3780
 2345SOL    HW2 7614   2.978   0.951   6.733 -0.5103 -0.5742  0.2071
 2346SOL     OW 7615   0.152   6.084   7.418  0.3456 -0.3089 -0.1193
 2346SOL    HW1 7616   0.094   6.040   7.479 -0.8799 -0.8016 -1.5666
 2346SOL    HW2 7617   0.134   6.177   7.430 -0.7172 -0.4473 -0.4681
 2347SOL     OW 7618   9.495   0.565   5.990 -0.1453  0.1181 -0.1708
 2347SOL    HW1 7619   9.506   0.477   6.027 -0.0435  0.5560  0.8775
 2347SOL    HW2 7620   9.525   0.557   5.900  1.2476 -0.6092  0.3201
 2348SOL     OW 7621   1.370   9.291   9.069 -0.0993 -0.5433  0.4179
 2348SOL    HW1 7622   1.411   9.377   9.073  1.2661 -1.0553 -1.2995
 2348SOL    HW2 7623   1.431   9.233   9.116 -0.6198 -0.7330  0.8794
 2349SOL     OW 7624   7.611   7.031   3.609 -0.0178  0.2134  0.3310
 2349SOL    HW1 7625   7.556   7.040   3.532 -1.1315  0.5332  1.1350
 2349SOL    HW2 7626   7.669   6.957   3.589 -0.4107  0.1735 -0.7182
 2350SOL     OW 7627   5.578   5.388   7.147 -0.2392 -0.0132 -0.2650
 2350SOL    HW1 7628   5.589   5.322   7.079  0.7642 -2.3508  2.0078
 2350SOL    HW2 7629   5.483   5.391   7.163 -0.4940  0.6393 -1.7712
 2351SOL     OW 7630   6.145   9.033   2.833 -0.1690  0.6837 -0.1638
 2351SOL    HW1 7631   6.085   8.993   2.770 -1.1421 -0.6420  1.5340
 2351SOL    HW2 7632   6.231   9.028   2.791 -0.1627 -3.3791 -0.0554
 2352SOL     OW 7633   4.083   4.350   0.082 -0.1654  0.0734 -0.0963
 2352SOL    HW1 7634   4.138   4.424   0.055  1.9118 -0.8150  1.4476
 2352SOL    HW2 7635   4.107   4.279   0.022 -0.6547  0.0465 -0.2682
 2353SOL     OW 7636   1.571   5.095   5.387  0.9359  0.4077  0.5445
 2353SOL    HW1 7637   1.533   5.182   5.372  2.1296  0.6558 -1.3823
 2353SOL    HW2 7638   1.641   5.111   5.451  0.0962  0.5465  1.4539
 2354SOL     OW 7639   1.208   1.623   3.437 -0.3415  0.2357 -0.6928
 2354SOL    HW1 7640   1.239   1.701   3.483 -0.8103 -0.3255  0.6408
 2354SOL    HW2 7641   1.112   1.633   3.437 -0.4627 -0.6971  0.2261
 2355SOL     OW 7642   3.068   9.454   9.129  0.5911  0.6210  0.3172
 2355SOL    HW1 7643   3.152   9.451   9.084  0.0525  1.0449 -0.7572
 2355SOL    HW2 7644   3.009   9.497   9.067 -0.6254 -0.4092  0.7048
 2356SOL     OW 7645   2.361   5.380   6.767  0.1340  0.0003 -0.0940
 2356SOL    HW1 7646   2.301   5.316   6.805 -2.1534  2.3078  0.4670
 2356SOL    HW2 7647   2.322   5.403   6.682 -0.0935  1.8677  0.4647
 2357SOL     OW 7648   4.327   8.910   1.240 -0.3732 -0.3868  0.2605
 2357SOL    HW1 7649   4.322   8.850   1.165 -1.6539 -0.7130  0.5815
 2357SOL    HW2 7650   4.273   8.869   1.307  1.0274 -0.2629  1.5162
 2358SOL     OW 7651   5.421   1.761   9.028 -0.6086  0.3954  0.1864
 2358SOL    HW1 7652   5.331   1.784   9.004 -0.4067  2.6720  1.3664
 2358SOL    HW2 7653   5.463   1.741   8.944 -1.5524  1.9402 -0.7202
 2359SOL     OW 7654   0.482   5.772   1.573 -0.2351  0.0405  0.4355
 2359SOL    HW1 7655   0.529   5.845   1.532 -1.1735  1.2362  1.3801
 2359SOL    HW2 7656   0.394   5.776   1.535 -1.3655  1.6548  2.9691
 2360SOL     OW 7657   9.085   6.591   2.729  0.1241 -0.7798 -0.0479
 2360SOL    HW1 7658   9.018   6.656   2.752 -0.3492 -1.5932  0.9863
 2360SOL    HW2 7659   9.163   6.643   2.709 -0.9662  0.2311 -1.9465
 2361SOL     OW 7660   8.957   1.078   3.021 -0.2169 -0.0393  0.2866
 2361SOL    HW1 7661   9.030   1.047   2.967  0.4225  0.8440  0.5928
 2361SOL    HW2 7662   8.879   1.039   2.982  0.2964 -0.0001 -0.8310
 2362SOL     OW 7663   8.597   3.971   1.142 -0.1073 -0.1991  0.5119
 2362SOL    HW1 7664   8.690   3.955   1.124  0.2557  1.1317  1.1026
 2362SOL    HW2 7665   8.567   3.891   1.184 -0.1382 -2.0811 -2.7562
 2363SOL     OW 7666   9.453   5.870   9.959 -0.2854  0.3414  0.2647
 2363SOL    HW1 7667   9.489   5.947  10.003  2.0492 -1.1521  1.1185
 2363SOL    HW2 7668   9.512   5.855   9.885  0.1001 -1.3591  0.8785
 2364SOL     OW 7669   6.357   9.249   8.176  0.4525  0.1210  0.2334
 2364SOL    HW1 7670   6.273   9.296   8.176  0.4601  0.1335  0.0556
 2364SOL    HW2 7671   6.333   9.159   8.154  0.6276  0.3664 -0.9803
 2365SOL     OW 7672   5.517   8.401   4.506  0.6399  0.3505 -0.0666
 2365SOL    HW1 7673   5.531   8.469   4.440 -0.2665  2.3989  1.7353
 2365SOL    HW2 7674   5.438   8.356   4.476  0.7452  0.6403 -0.8245
 2366SOL     OW 7675   5.706   6.465   2.866 -0.0838 -0.1366  0.4647
 2366SOL    HW1 7676   5.796   6.439   2.882 -0.1377  0.6521  2.2753
 2366SOL    HW2 7677   5.707   6.504   2.778  1.3410 -0.1086  0.4745
 2367SOL     OW 7678   1.343   8.688   9.754  0.1466 -0.3068 -0.7337
 2367SOL    HW1 7679   1.381   8.715   9.670  1.1089  0.1826 -0.1624
 2367SOL    HW2 7680   1.375   8.752   9.817 -0.4561 -0.7425  0.0377
 2368SOL     OW 7681   3.279   5.929   2.649 -0.4313  0.0246  0.1032
 2368SOL    HW1 7682   3.212   5.985   2.687 -2.4546 -1.0602 -1.6609
 2368SOL    HW2 7683   3.258   5.841   2.679  0.4662 -0.2977 -0.1594
 2369SOL     OW 7684   8.699   0.611   2.369  0.5021 -0.0526  0.3231
 2369SOL    HW1 7685   8.781   0.619   2.320  0.0009 -0.2917 -0.5929
 2369SOL    HW2 7686   8.663   0.700   2.369  0.5858 -0.0181  0.4125
 2370SOL     OW 7687   5.256   1.676   5.065 -0.6099  0.7202  0.0868
 2370SOL    HW1 7688   5.293   1.613   5.127 -1.7343  0.5501  0.6163
 2370SOL    HW2 7689   5.318   1.678   4.992  0.1155  0.0062  0.6707
 2371SOL     OW 7690   9.886   0.173   2.632  0.2166  0.7559  0.1805
 2371SOL    HW1 7691   9.884   0.163   2.727 -0.3374 -1.8878 -0.0175
 2371SOL    HW2 7692   9.806   0.129   2.602  0.9041  0.6187 -1.5528
 2372SOL     OW 7693   0.566   8.704   2.190  1.0347  0.3299 -0.3058
 2372SOL    HW1 7694   0.603   8.668   2.270 -1.3121 -0.2638  0.6081
 2372SOL    HW2 7695   0.595   8.645   2.121 -1.1903 -2.4483  0.8949
 2373SOL     OW 7696   5.161   4.098   5.458  0.2193 -0.1875  0.1277
 2373SOL    HW1 7697   5.254   4.118   5.468  0.5429 -1.3399 -0.3806
 2373SOL    HW2 7698   5.157   4.047   5.378 -0.7248 -0.9819  0.6681
 2374SOL     OW 7699   9.226   7.025   0.339 -0.2072  0.4172  0.3039
 2374SOL    HW1 7700   9.273   7.074   0.271  0.5411 -1.5015 -0.6418
 2374SOL    HW2 7701   9.277   7.040   0.419 -1.0598  2.6404  0.5148
 2375SOL     OW 7702   4.529   2.451   6.899  0.1048  0.2658 -0.2583
 2375SOL    HW1 7703   4.533   2.497   6.983 -0.9261 -0.5060  0.2334
 2375SOL    HW2 7704   4.518   2.359   6.922 -0.3195  0.0588 -1.2418
 2376SOL     OW 7705   5.982   3.946   1.468 -0.4647  0.4038 -0.4729
 2376SOL    HW1 7706   5.990   3.864   1.517 -0.2348  1.0714  0.6466
 2376SOL    HW2 7707   5.893   3.975   1.484 -0.0481  1.1950  0.5115
 2377SOL     OW 7708   5.563   6.867   7.067  0.3642 -0.5940  0.5355
 2377SOL    HW1 7709   5.581   6.842   7.158  0.4653 -0.8662  0.4411
 2377SOL    HW2 7710   5.478   6.912   7.071 -0.4042 -1.9879  0.5521
 2378SOL     OW 7711   4.065   5.343   4.844 -0.0684  0.5700  0.2856
 2378SOL    HW1 7712   4.098   5.416   4.792  1.1409  0.2443  0.5618
 2378SOL    HW2 7713   4.105   5.356   4.931 -0.7880  0.2349  0.6723
 2379SOL     OW 7714   1.145   8.749   6.099  0.4275  0.6585  0.5369
 2379SOL    HW1 7715   1.057   8.774   6.071  0.5303  2.0959  1.4211
 2379SOL    HW2 7716   1.141   8.653   6.106 -0.5376  0.5387 -1.0939
 2380SOL     OW 7717   3.559   5.981   2.742  0.3642 -0.3909  0.4547
 2380SOL    HW1 7718   3.568   5.958   2.835 -1.2509 -0.8241  0.5480
 2380SOL    HW2 7719   3.473   5.946   2.717  0.1712  0.8805 -0.8506
 2381SOL     OW 7720   8.435   1.514   3.965  0.4217 -0.1923 -0.1427
 2381SOL    HW1 7721   8.525   1.549   3.961  0.4823 -0.3970 -0.6002
 2381SOL    HW2 7722   8.412   1.498   3.874 -0.3575  0.5447 -0.0804
 2382SOL     OW 7723   1.610   7.975   2.240  0.4662  0.4629 -0.2252
 2382SOL    HW1 7724   1.701   7.980   2.214  0.5842  0.9113  0.2390
 2382SOL    HW2 7725   1.584   8.066   2.254  0.3416  0.2693  0.9442
 2383SOL     OW 7726   3.010   3.878   4.768  0.0572  0.2602 -0.2527
 2383SOL    HW1 7727   3.057   3.950   4.809  0.1888 -0.1751  0.3726
 2383SOL    HW2 7728   3.075   3.834   4.714 -0.1013  0.7984 -0.8901
 2384SOL     OW 7729   2.797   8.570   6.423 -0.7016  0.2818  0.3543
 2384SOL    HW1 7730   2.731   8.605   6.364 -0.1703 -0.9475 -1.0315
 2384SOL    HW2 7731   2.835   8.648   6.465 -1.0629  1.2042 -0.9551
 2385SOL     OW 7732   2.444   5.423   8.134  0.7253  0.7295 -0.2151
 2385SOL    HW1 7733   2.416   5.333   8.154  0.4718  0.1142 -2.9694
 2385SOL    HW2 7734   2.362   5.472   8.126  0.8287  0.9900  0.2561
 2386SOL     OW 7735   9.540   0.689   8.992  0.4254  0.1518  0.0823
 2386SOL    HW1 7736   9.499   0.774   9.007  0.8958  0.3102  0.4631
 2386SOL    HW2 7737   9.528   0.673   8.898  0.5156  0.7219 -0.0270
 2387SOL     OW 7738   9.197   2.071   3.888  0.6589  0.1389 -0.9537
 2387SOL    HW1 7739   9.194   1.975   3.884  0.3238  0.1246 -0.3678
 2387SOL    HW2 7740   9.272   2.090   3.944 -0.8912  0.1547  1.2314
 2388SOL     OW 7741   0.616   3.606   8.452 -0.0501 -0.4542 -0.6797
 2388SOL    HW1 7742   0.686   3.554   8.412  0.5525 -0.1637 -0.0122
 2388SOL    HW2 7743   0.595   3.672   8.385 -0.7621 -1.4788 -1.4997
 2389SOL     OW 7744   7.820   4.498   9.135  0.0748  0.4149 -0.1382
 2389SOL    HW1 7745   7.871   4.430   9.178 -1.6386 -0.4243  0.6334
 2389SOL    HW2 7746   7.886   4.556   9.096  1.5980 -0.6195  0.8021
 2390SOL     OW 7747   7.777   9.215   7.903 -0.7801 -0.3312 -0.6219
 2390SOL    HW1 7748   7.759   9.299   7.947  2.5514  0.6078 -0.7660
 2390SOL    HW2 7749   7.771   9.150   7.973  0.1886  0.5667  0.3450
 2391SOL     OW 7750   1.069   6.163   4.190 -1.1176  0.0463 -0.2903
 2391SOL    HW1 7751   1.076   6.160   4.286  0.3316  0.3204 -0.3677
 2391SOL    HW2 7752   0.984   6.206   4.174 -0.5164  1.8245  0.9096
 2392SOL     OW 7753   8.006   9.381   4.211 -0.1341  0.1122 -0.0336
 2392SOL    HW1 7754   8.039   9.296   4.181  0.0913  0.1396  0.1283
 2392SOL    HW2 7755   7.963   9.362   4.294  0.7304  0.2941  0.4687
 2393SOL     OW 7756   5.008   8.930   5.741  0.6407 -0.3747 -0.4831
 2393SOL    HW1 7757   4.936   8.872   5.765  0.6625 -0.4607 -0.6241
 2393SOL    HW2 7758   5.027   8.909   5.650  0.4453  0.0740 -0.6332
 2394SOL     OW 7759   0.465   2.499   9.960  0.0416  0.4269 -0.0074
 2394SOL    HW1 7760   0.403   2.446   9.911 -1.0166  1.9237 -0.3642
 2394SOL    HW2 7761   0.417   2.579   9.981  1.0880  0.6284  1.8341
 2395SOL     OW 7762   4.880   2.494   5.105  0.5816 -0.4143  0.3148
 2395SOL    HW1 7763   4.827   2.508   5.026  0.5633  0.3282  0.4552
 2395SOL    HW2 7764   4.967   2.471   5.072  0.3727 -0.8789  0.0819
 2396SOL     OW 7765   5.782   1.201   9.501  0.2322  0.0043  0.8820
 2396SOL    HW1 7766   5.708   1.160   9.546 -1.7819  0.7761 -1.4617
 2396SOL    HW2 7767   5.768   1.180   9.408  1.8270  1.9175  0.1281
 2397SOL     OW 7768   7.006   1.361   7.664 -0.5754  0.2941 -0.5827
 2397SOL    HW1 7769   6.938   1.350   7.730  0.7049 -0.4545  0.6871
 2397SOL    HW2 7770   6.968   1.326   7.583 -1.4807 -0.6581  0.2303
 2398SOL     OW 7771   7.677   3.760   4.857 -0.7864 -0.1221 -0.0252
 2398SOL    HW1 7772   7.640   3.824   4.917  0.7022 -0.0671  0.8650
 2398SOL    HW2 7773   7.758   3.732   4.898  0.6011  0.3528 -2.2856
 2399SOL     OW 7774   5.881   5.626   2.372  0.6134  0.2067 -0.7070
 2399SOL    HW1 7775   5.827   5.686   2.423  0.4205 -0.1573 -0.4765
 2399SOL    HW2 7776   5.899   5.553   2.432  0.2334 -0.3091 -1.2096
 2400SOL     OW 7777   9.013   8.776   9.010 -0.4413  0.5469  0.7108
 2400SOL    HW1 7778   9.019   8.814   8.922  1.5622  0.0611  0.5869
 2400SOL    HW2 7779   8.973   8.845   9.063 -0.1731  1.4689 -0.2480
 2401SOL     OW 7780   1.535   6.597   3.102  0.2222 -0.1727 -0.3209
 2401SOL    HW1 7781   1.576   6.592   3.188  0.6023  1.3478 -0.3870
 2401SOL    HW2 7782   1.608   6.599   3.040 -0.0234 -0.2152 -0.6168
 2402SOL     OW 7783   3.474   1.868   9.122 -0.5546 -0.0710 -0.1503
 2402SOL    HW1 7784   3.414   1.804   9.160 -0.0802  0.0360  0.8103
 2402SOL    HW2 7785   3.543   1.815   9.081 -1.5100 -0.2028 -1.6531
 2403SOL     OW 7786   0.148   0.924   7.104 -0.1410  0.0892 -0.3703
 2403SOL    HW1 7787   0.092   0.992   7.067  0.6955  0.7016 -0.5650
 2403SOL    HW2 7788   0.182   0.877   7.027  0.3561  0.3402 -0.3072
 2404SOL     OW 7789   0.061   1.591   0.022  0.1240  0.2971  0.0841
 2404SOL    HW1 7790   0.023   1.626   0.102 -0.8417  0.8082 -0.5790
 2404SOL    HW2 7791   0.043   1.658  -0.044  0.5115 -0.3157 -0.6594
 2405SOL     OW 7792   1.754   6.328   3.761 -0.7252 -0.3123  0.7182
 2405SOL    HW1 7793   1.842   6.350   3.791 -1.3249 -0.4875  2.7857
 2405SOL    HW2 7794   1.709   6.295   3.840 -2.2106 -1.5785 -0.5725
 2406SOL     OW 7795   0.133   4.927   4.771  0.2543  0.5281  0.0529
 2406SOL    HW1 7796   0.128   5.021   4.787  0.3836  0.2751  1.7782
 2406SOL    HW2 7797   0.202   4.896   4.830 -0.8244 -0.8713  0.6399
 2407SOL     OW 7798   7.288   2.456   3.549 -0.7200 -0.1971 -0.3309
 2407SOL    HW1 7799   7.374   2.423   3.524 -0.2201  0.5963  0.2789
 2407SOL    HW2 7800   7.244   2.382   3.590 -0.5255 -0.7472 -1.0950
 2408SOL     OW 7801   6.461   6.308   9.019 -0.0092  0.1089  0.1168
 2408SOL    HW1 7802   6.439   6.215   9.014  0.3565  0.0576 -0.4910
 2408SOL    HW2 7803   6.467   6.326   9.113  2.0302 -0.9877  0.2466
 2409SOL     OW 7804   7.885   4.847   7.752  0.0893  0.1348  0.0335
 2409SOL    HW1 7805   7.862   4.940   7.744 -2.0606 -0.4809 -1.9615
 2409SOL    HW2 7806   7.980   4.846   7.744  0.3048  2.2447  1.3585
 2410SOL     OW 7807   7.276   1.353   1.022 -0.6478  0.2027  0.7192
 2410SOL    HW1 7808   7.268   1.407   1.100 -1.6448 -0.6490  1.2153
 2410SOL    HW2 7809   7.352   1.298   1.039  0.5610  1.5904  0.0885
 2411SOL     OW 7810   0.877   9.584   6.112 -0.3757 -0.4752  0.4401
 2411SOL    HW1 7811   0.798   9.629   6.084  0.7606  1.3539 -0.0117
 2411SOL    HW2 7812   0.882   9.507   6.055 -0.8348  0.4178 -0.8558
 2412SOL     OW 7813   3.591   5.385   6.639  0.0486  0.5176  0.2560
 2412SOL    HW1 7814   3.682   5.361   6.655 -0.2026  0.4893  1.8178
 2412SOL    HW2 7815   3.549   5.381   6.725 -1.4914  0.3035 -0.4504
 2413SOL     OW 7816   9.892   0.588   9.494  0.2856 -0.2866  0.5879
 2413SOL    HW1 7817   9.929   0.504   9.468 -0.5117 -0.4390 -0.0665
 2413SOL    HW2 7818   9.863   0.628   9.413 -0.1003  0.2652  0.9890
 2414SOL     OW 7819   5.582   6.534   4.857  0.3311 -0.3406  0.1179
 2414SOL    HW1 7820   5.568   6.505   4.947  0.3095 -0.5448  0.0482
 2414SOL    HW2 7821   5.637   6.612   4.865 -0.4952  0.2328  0.3741
 2415SOL     OW 7822   7.118   2.669   6.565 -0.0014  0.0617  0.3582
 2415SOL    HW1 7823   7.152   2.583   6.593  0.4000  0.0111 -0.2693
 2415SOL    HW2 7824   7.145   2.677   6.474  0.3809  1.0693  0.5438
 2416SOL     OW 7825   8.496   2.366   3.323 -0.2005 -0.4381  0.0300
 2416SOL    HW1 7826   8.502   2.290   3.381  0.2876 -1.4488 -1.2976
 2416SOL    HW2 7827   8.495   2.441   3.382  0.8435 -1.3951  1.3234
 2417SOL     OW 7828   7.630   0.521   6.509  0.6053  0.0404  0.2942
 2417SOL    HW1 7829   7.573   0.563   6.444  0.6879  1.3767  1.0310
 2417SOL    HW2 7830   7.654   0.437   6.471  0.5105  0.7186 -1.3108
 2418SOL     OW 7831   5.607   5.845   5.740  0.5044  0.1516  0.0247
 2418SOL    HW1 7832   5.691   5.838   5.785  1.2835 -0.4635 -1.4438
 2418SOL    HW2 7833   5.542   5.849   5.810  1.8100  1.7965  1.2041
 2419SOL     OW 7834   7.577   8.758   8.357  0.3156  0.0392 -0.0202
 2419SOL    HW1 7835   7.504   8.735   8.299  1.5553 -1.6724 -0.9614
 2419SOL    HW2 7836   7.542   8.744   8.445 -0.3984 -1.1174 -0.4687
 2420SOL     OW 7837   4.106   6.023   8.437 -0.2506  0.7041 -0.4868
 2420SOL    HW1 7838   4.172   6.082   8.472  0.4997  0.2319 -1.0780
 2420SOL    HW2 7839   4.156   5.956   8.391 -1.0541 -0.5404  0.3809
 2421SOL     OW 7840   3.832   0.582   5.468  0.1272  0.4112  0.3556
 2421SOL    HW1 7841   3.779   0.642   5.519 -1.6940 -0.9180  0.1366
 2421SOL    HW2 7842   3.902   0.555   5.527 -0.8215  0.3944  1.5093
 2422SOL     OW 7843   9.876   5.168   2.387 -0.2551 -0.1830 -0.0692
 2422SOL    HW1 7844   9.958   5.216   2.402 -0.6914  0.4418  0.3428
 2422SOL    HW2 7845   9.863   5.172   2.292 -0.2020  0.3890 -0.0578
 2423SOL     OW 7846   8.789   4.666   4.200 -0.3593 -0.4861  0.1610
 2423SOL    HW1 7847   8.717   4.638   4.143 -0.5543  1.5164 -0.6284
 2423SOL    HW2 7848   8.819   4.584   4.242 -2.0561 -1.5835 -0.6555
 2424SOL     OW 7849   8.679   9.774   5.678 -0.9724 -0.3347 -0.3851
 2424SOL    HW1 7850   8.657   9.775   5.585  0.9887 -1.0195 -0.9106
 2424SOL    HW2 7851   8.705   9.683   5.696 -0.7216 -0.0745  0.6690
 2425SOL     OW 7852   2.776   8.107   8.560  0.1560 -0.1392  0.1523
 2425SOL    HW1 7853   2.730   8.090   8.478 -0.5069 -2.2377  0.8907
 2425SOL    HW2 7854   2.868   8.091   8.540  0.0149 -0.4777 -0.2371
 2426SOL     OW 7855   7.177   0.715   6.873  0.1769 -0.1327 -0.0781
 2426SOL    HW1 7856   7.120   0.638   6.879 -0.6826  0.3411 -1.5893
 2426SOL    HW2 7857   7.145   0.774   6.941 -0.0588 -0.5405  0.1698
 2427SOL     OW 7858   9.909   4.078   8.143 -0.2288  0.1922 -0.2786
 2427SOL    HW1 7859   9.956   3.996   8.160  0.0185  0.0991 -1.3396
 2427SOL    HW2 7860   9.927   4.132   8.219  1.7411  0.2193 -0.7074
 2428SOL     OW 7861   0.770   7.057   2.745 -0.7634 -0.7025  0.1718
 2428SOL    HW1 7862   0.675   7.069   2.752 -0.6138  0.0642  1.3389
 2428SOL    HW2 7863   0.806   7.142   2.771  0.2671 -1.5754  1.8069
 2429SOL     OW 7864   6.510   2.817   1.163  0.3524  0.3684 -0.7509
 2429SOL    HW1 7865   6.501   2.891   1.103  0.1720  1.5646  0.6964
 2429SOL    HW2 7866   6.604   2.800   1.167  0.2810 -0.6492 -2.4023
 2430SOL     OW 7867   5.911   1.412   7.954 -0.2887  0.5487 -0.1302
 2430SOL    HW1 7868   5.860   1.491   7.936 -1.3887 -0.5466 -2.2548
 2430SOL    HW2 7869   5.989   1.421   7.901 -1.3014 -0.5701 -1.8956
 2431SOL     OW 7870   2.422   7.991   3.428  0.0656  0.6977 -0.1952
 2431SOL    HW1 7871   2.398   8.082   3.407 -2.1047 -0.1777 -1.8365
 2431SOL    HW2 7872   2.338   7.947   3.442  1.0865 -1.0839  0.6246
 2432SOL     OW 7873   8.223   9.835   0.792  0.2607 -0.1320  0.2272
 2432SOL    HW1 7874   8.306   9.830   0.743  0.6595 -0.1991  0.8958
 2432SOL    HW2 7875   8.210   9.929   0.806 -0.6924  0.0215 -1.3739
 2433SOL     OW 7876   0.467   7.893   6.022 -0.0414 -0.3042  0.3789
 2433SOL    HW1 7877   0.455   7.900   6.116  0.4964 -1.1063  0.5181
 2433SOL    HW2 7878   0.497   7.803   6.008  3.4660  0.7623 -0.1174
 2434SOL     OW 7879   9.981   3.133   6.280  0.0297  0.2134  0.0055
 2434SOL    HW1 7880   9.967   3.101   6.369  1.2705  0.6685  0.3872
 2434SOL    HW2 7881   9.920   3.206   6.270 -1.1315 -0.7341 -0.0358
 2435SOL     OW 7882   5.188   8.008   6.015  0.1735 -0.1265 -0.5266
 2435SOL    HW1 7883   5.263   7.994   5.957  1.6220 -1.5400  1.5836
 2435SOL    HW2 7884   5.213   8.081   6.071 -0.7404  0.4770 -0.8782
 2436SOL     OW 7885   7.545   2.107   9.369  0.3433  0.1417  0.7537
 2436SOL    HW1 7886   7.559   2.040   9.303  0.4162  0.7195  0.1765
 2436SOL    HW2 7887   7.491   2.173   9.325  2.0292  1.5072  0.6136
 2437SOL     OW 7888   7.171   9.571   1.400 -0.3351 -0.3495  0.0778
 2437SOL    HW1 7889   7.266   9.585   1.398 -0.4478  0.4729 -0.1935
 2437SOL    HW2 7890   7.160   9.481   1.429  0.5715 -1.0900 -1.7374
 2438SOL     OW 7891   2.291   6.620   1.353 -0.6921  0.1011 -0.1088
 2438SOL    HW1 7892   2.359   6.671   1.309  0.4727 -0.0402  1.4346
 2438SOL    HW2 7893   2.257   6.679   1.421 -0.6809 -0.5187  0.4411
 2439SOL     OW 7894   6.184   1.670   5.139  0.6181  0.2341  0.0861
 2439SOL    HW1 7895   6.254   1.672   5.204  0.4275 -0.7214  0.3377
 2439SOL    HW2 7896   6.136   1.589   5.158 -0.4328  0.7656 -0.2087
 2440SOL     OW 7897   8.128   6.194   1.806  0.5432 -0.7647 -0.2861
 2440SOL    HW1 7898   8.221   6.212   1.823  0.4140  0.0768 -0.4357
 2440SOL    HW2 7899   8.123   6.099   1.800  1.0526 -0.9562  1.7133
 2441SOL     OW 7900   8.635   8.748   0.893 -0.0427  0.1227 -0.1264
 2441SOL    HW1 7901   8.559   8.804   0.903 -0.4743 -0.3477 -0.7230
 2441SOL    HW2 7902   8.612   8.688   0.823  0.0589 -1.3891  1.0849
 2442SOL     OW 7903   5.878   1.421   6.155  0.2904 -0.1948  0.0009
 2442SOL    HW1 7904   5.839   1.378   6.079  0.6959 -2.4705  1.0042
 2442SOL    HW2 7905   5.808   1.425   6.220  0.2331  0.8108 -0.0981
 2443SOL     OW 7906   7.710   4.398   8.333 -0.0683  0.5363  0.2100
 2443SOL    HW1 7907   7.766   4.353   8.397 -0.7081  0.6158  0.8338
 2443SOL    HW2 7908   7.643   4.333   8.310 -1.9105  1.5829  2.2548
 2444SOL     OW 7909   2.656   8.117   4.255  0.0987 -0.3979  0.2114
 2444SOL    HW1 7910   2.721   8.079   4.196  0.4941 -0.0305  0.3949
 2444SOL    HW2 7911   2.672   8.075   4.339  2.1927  1.8240  1.0698
 2445SOL     OW 7912   2.932   4.369   6.288  0.2676 -0.6371  0.3635
 2445SOL    HW1 7913   2.977   4.326   6.360 -0.8259 -0.2988  1.2772
 2445SOL    HW2 7914   2.883   4.440   6.329 -1.6995 -1.4336 -0.4532
 2446SOL     OW 7915   2.274   5.533   0.314 -0.5332 -0.4572  0.4042
 2446SOL    HW1 7916   2.258   5.459   0.256  0.0225  0.3390 -0.8038
 2446SOL    HW2 7917   2.368   5.547   0.310 -0.6403  0.3540  0.5539
 2447SOL     OW 7918   6.802   1.933   4.738  0.0631 -0.0059  0.0172
 2447SOL    HW1 7919   6.799   2.027   4.754  1.2424  0.4596 -2.0578
 2447SOL    HW2 7920   6.720   1.913   4.694  0.6336  0.4991 -1.3458
 2448SOL     OW 7921   8.145   6.938   7.235  0.4270 -0.1901 -0.0794
 2448SOL    HW1 7922   8.231   6.911   7.267  0.9501  0.3212 -1.0181
 2448SOL    HW2 7923   8.143   6.911   7.143 -0.7237 -0.8730  0.1133
 2449SOL     OW 7924   5.990   4.162   3.580  0.1512 -0.3715  0.0409
 2449SOL    HW1 7925   6.080   4.140   3.604  0.3939  1.3042  0.8040
 2449SOL    HW2 7926   5.975   4.114   3.499  2.2535  0.4746 -0.9125
 2450SOL     OW 7927   7.938   8.989   0.611 -0.4758  0.6359  0.0560
 2450SOL    HW1 7928   7.896   8.994   0.526 -2.1257 -0.8830  0.7108
 2450SOL    HW2 7929   7.985   9.072   0.620  0.3851  0.5117 -2.6072
 2451SOL     OW 7930   1.965   1.876   3.167 -0.4052 -0.2476  0.2304
 2451SOL    HW1 7931   1.883   1.925   3.163  0.2573  0.9420  0.8405
 2451SOL    HW2 7932   1.985   1.854   3.076 -1.0126  0.1003  0.0092
 2452SOL     OW 7933   1.925   0.949   0.642  0.7354 -0.1190 -0.2394
 2452SOL    HW1 7934   1.941   0.873   0.698  1.3421 -0.5310 -0.9538
 2452SOL    HW2 7935   2.011   0.973   0.610  0.7419  1.7175  1.0140
 2453SOL     OW 7936   0.232   5.291   1.491 -0.4378 -0.0403 -0.4273
 2453SOL    HW1 7937   0.232   5.250   1.578 -1.1719  0.4946 -0.1608
 2453SOL    HW2 7938   0.167   5.241   1.441 -1.3929  0.7984 -0.0774
 2454SOL     OW 7939   2.327   4.172   0.903 -0.5872 -0.8525  0.4551
 2454SOL    HW1 7940   2.367   4.111   0.965  0.1526 -2.1993 -1.2257
 2454SOL    HW2 7941   2.245   4.130   0.879 -0.2224 -1.0686 -0.4761
 2455SOL     OW 7942   5.740   8.975   4.314  0.2642 -0.0896  0.2366
 2455SOL    HW1 7943   5.772   9.046   4.259  0.0041 -1.3456 -1.6237
 2455SOL    HW2 7944   5.682   9.018   4.378  0.6287  1.4210 -0.4058
 2456SOL     OW 7945   5.367   4.863   3.819 -0.5826  0.0522  0.2619
 2456SOL    HW1 7946   5.329   4.844   3.733 -0.3983 -0.4534  0.2919
 2456SOL    HW2 7947   5.359   4.781   3.868  0.6566 -0.1097  0.2246
 2457SOL     OW 7948   8.236   8.589   9.333  0.1642  0.1779  0.3337
 2457SOL    HW1 7949   8.325   8.624   9.338  0.4849 -0.6077  0.2303
 2457SOL    HW2 7950   8.188   8.653   9.281  0.8545  0.2254 -0.2615
 2458SOL     OW 7951   6.029   2.741   3.732  0.0637 -0.2240 -0.0494
 2458SOL    HW1 7952   5.990   2.827   3.749  0.0822 -0.3353  0.5720
 2458SOL    HW2 7953   6.117   2.746   3.770  1.0448  0.3225 -2.1807
 2459SOL     OW 7954   7.621   5.101   2.201  0.1199 -0.4844 -0.1412
 2459SOL    HW1 7955   7.565   5.101   2.124 -0.0181  0.6248 -0.0559
 2459SOL    HW2 7956   7.617   5.011   2.234 -1.1453 -0.5610 -0.4697
 2460SOL     OW 7957   3.159   0.229   9.615  0.4379 -0.4219 -0.3239
 2460SOL    HW1 7958   3.145   0.247   9.708  1.5573  0.7798 -0.3671
 2460SOL    HW2 7959   3.248   0.260   9.597  0.5190 -1.3240 -1.6322
 2461SOL     OW 7960   7.544   1.331   1.657 -0.9145 -0.5709 -0.0770
 2461SOL    HW1 7961   7.585   1.262   1.709 -1.3131  0.4240  1.6111
 2461SOL    HW2 7962   7.535   1.405   1.717 -1.7992  0.4831 -1.4427
 2462SOL     OW 7963   4.163   2.174   6.896  0.0382  0.1893 -0.5964
 2462SOL    HW1 7964   4.092   2.195   6.957  0.3980 -0.2163 -0.0363
 2462SOL    HW2 7965   4.145   2.229   6.819 -1.5458 -0.7651 -0.9493
 2463SOL     OW 7966   1.215   2.134   2.252  0.1476 -0.0930  0.0091
 2463SOL    HW1 7967   1.247   2.045   2.239 -0.2547 -0.4285  1.1268
 2463SOL    HW2 7968   1.262   2.187   2.188 -0.3848 -1.2681 -1.3885
 2464SOL     OW 7969   9.560   7.960   4.382  0.5390 -0.0382 -0.4189
 2464SOL    HW1 7970   9.517   7.917   4.455  1.0830 -0.8413 -0.5638
 2464SOL    HW2 7971   9.565   8.052   4.408 -3.7828  0.7555 -1.5576
 2465SOL     OW 7972   6.547   2.629   8.897  0.0777  0.4057 -0.1738
 2465SOL    HW1 7973   6.582   2.667   8.978 -0.4640 -1.4379  0.9859
 2465SOL    HW2 7974   6.458   2.665   8.892  0.6084  1.7123 -0.8147
 2466SOL     OW 7975   3.588   2.524   8.942 -0.2479 -0.0410 -0.1953
 2466SOL    HW1 7976   3.653   2.573   8.892 -0.0680  0.3885  0.4492
 2466SOL    HW2 7977   3.557   2.586   9.008 -1.3716 -0.2132 -0.5395
 2467SOL     OW 7978   4.445   2.373   0.577  0.1636 -0.0404  0.1662
 2467SOL    HW1 7979   4.488   2.452   0.545  0.8189 -0.9044 -1.1598
 2467SOL    HW2 7980   4.357   2.376   0.538  0.8619 -0.9422 -1.5513
 2468SOL     OW 7981   2.810   1.210   7.765 -0.4682  0.0559  0.4333
 2468SOL    HW1 7982   2.763   1.261   7.831 -1.2715 -0.4771  0.2840
 2468SOL    HW2 7983   2.858   1.275   7.714 -0.7732  0.5787  0.8047
 2469SOL     OW 7984   3.049   0.474   4.619 -0.0792 -0.1064 -0.0595
 2469SOL    HW1 7985   3.080   0.388   4.589  0.4435 -0.9957  2.7206
 2469SOL    HW2 7986   2.958   0.478   4.589 -0.0167 -1.5061 -0.5179
 2470SOL     OW 7987   1.489   3.222   0.671 -0.1301 -0.5980  0.0354
 2470SOL    HW1 7988   1.487   3.311   0.637  1.0253 -0.0243  1.3993
 2470SOL    HW2 7989   1.446   3.227   0.756 -0.6444 -1.4969 -0.1507
 2471SOL     OW 7990   9.704   2.596   1.583 -0.3575 -0.4453  0.3919
 2471SOL    HW1 7991   9.679   2.549   1.503 -0.5265  0.0325  0.1562
 2471SOL    HW2 7992   9.784   2.643   1.558  0.2344 -1.2023  0.8519
 2472SOL     OW 7993   5.402   1.536   0.830  0.3657  0.4497 -0.1734
 2472SOL    HW1 7994   5.457   1.537   0.752  0.4305 -1.2030 -0.1797
 2472SOL    HW2 7995   5.461   1.562   0.901  0.5250  1.0906 -0.5311
 2473SOL     OW 7996   9.892   9.827   0.911  0.2979  0.0073 -0.0040
 2473SOL    HW1 7997   9.897   9.752   0.971 -1.4939  1.0417  1.5272
 2473SOL    HW2 7998   9.819   9.806   0.853 -1.3838  1.2796  1.5623
 2474SOL     OW 7999   0.084   8.855   0.310  0.6159  0.0778 -0.5718
 2474SOL    HW1 8000   0.121   8.806   0.237 -0.2901  1.2724 -1.8891
 2474SOL    HW2 8001   0.094   8.947   0.285 -0.9969  0.4862  0.1371
 2475SOL     OW 8002   9.595   5.973   8.187  0.2534 -0.2268  0.3154
 2475SOL    HW1 8003   9.615   6.065   8.170  1.1689 -0.3949  0.4495
 2475SOL    HW2 8004   9.597   5.965   8.282  3.6263 -1.0820  0.2916
 2476SOL     OW 8005   6.518   3.388   4.021 -0.1152 -0.2737 -0.3251
 2476SOL    HW1 8006   6.564   3.315   4.064  0.4759 -1.5181 -2.8089
 2476SOL    HW2 8007   6.434   3.350   3.994  0.3123 -0.1775 -1.8890
 2477SOL     OW 8008   2.106   6.844   8.988  0.0042  0.0036 -0.2333
 2477SOL    HW1 8009   2.054   6.924   8.988  0.8537  0.5698  0.3265
 2477SOL    HW2 8010   2.078   6.797   8.910 -0.7351  0.6925 -0.3942
 2478SOL     OW 8011   9.726   3.205   5.951 -0.2807 -0.0672 -0.1590
 2478SOL    HW1 8012   9.687   3.194   6.038 -2.4001 -2.2560 -1.2698
 2478SOL    HW2 8013   9.800   3.144   5.950 -0.2590 -0.0466  0.0959
 2479SOL     OW 8014   9.212   6.381   2.443 -0.0643 -0.6095  0.1085
 2479SOL    HW1 8015   9.215   6.455   2.504  0.8361 -0.3401 -0.2488
 2479SOL    HW2 8016   9.240   6.306   2.496  1.0527 -0.3158 -0.0445
 2480SOL     OW 8017   9.802   6.716   5.020  0.4298 -0.4524  0.3710
 2480SOL    HW1 8018   9.708   6.701   5.014  0.6654 -1.4377 -1.5656
 2480SOL    HW2 8019   9.820   6.784   4.955  1.0571 -0.2185  0.7749
 2481SOL     OW 8020   1.128   0.641   1.391  0.0285  0.0652  0.0227
 2481SOL    HW1 8021   1.078   0.640   1.309 -1.1588  0.6074  0.7042
 2481SOL    HW2 8022   1.143   0.734   1.408  0.1022 -0.0353  0.5117
 2482SOL     OW 8023   8.587   9.904   9.753 -0.7820  0.1053  0.4557
 2482SOL    HW1 8024   8.553   9.823   9.791 -1.4944  1.0016  1.7879
 2482SOL    HW2 8025   8.669   9.921   9.800  0.5236 -0.9354 -1.3055
 2483SOL     OW 8026   5.170   9.012   6.758 -0.3498 -0.1079 -0.1553
 2483SOL    HW1 8027   5.153   9.083   6.821  0.0428  0.4885 -0.7163
 2483SOL    HW2 8028   5.083   8.990   6.724 -0.9771 -2.2487  2.4659
 2484SOL     OW 8029   3.807   0.591   5.980  0.2975  0.5535  0.1602
 2484SOL    HW1 8030   3.799   0.682   6.009 -1.7756  0.2357  0.8017
 2484SOL    HW2 8031   3.738   0.581   5.915  0.9445 -0.3851 -0.3889
 2485SOL     OW 8032   2.740   1.417   2.772  0.2571 -0.7907 -0.1980
 2485SOL    HW1 8033   2.786   1.371   2.842 -0.7483 -2.0023 -0.3070
 2485SOL    HW2 8034   2.651   1.429   2.805  0.2316  0.1738 -0.5932
 2486SOL     OW 8035   4.585   9.567   3.183 -0.3841 -0.2140 -0.5105
 2486SOL    HW1 8036   4.523   9.572   3.111 -1.0978 -2.3140 -0.1352
 2486SOL    HW2 8037   4.534   9.532   3.256  0.8885 -0.5555  0.2527
 2487SOL     OW 8038   0.291   9.565   2.625 -0.1110  0.0129  0.4470
 2487SOL    HW1 8039   0.208   9.593   2.585 -0.2709 -0.6440  0.2972
 2487SOL    HW2 8040   0.311   9.633   2.689  0.3721  1.3108 -1.0414
 2488SOL     OW 8041   5.761   1.447   0.047 -0.0164 -0.2303 -0.1610
 2488SOL    HW1 8042   5.750   1.537   0.018  1.0067  0.3662  1.1813
 2488SOL    HW2 8043   5.722   1.394  -0.022 -2.2966  1.2896 -0.1384
 2489SOL     OW 8044   9.581   3.195   5.243  0.1404  0.9180 -0.5177
 2489SOL    HW1 8045   9.535   3.278   5.236 -1.2705  0.0582 -2.1421
 2489SOL    HW2 8046   9.574   3.155   5.156  0.0493 -1.2445  0.3991
 2490SOL     OW 8047   5.312   1.476   8.240  0.1302  0.1370 -0.5468
 2490SOL    HW1 8048   5.267   1.404   8.286  0.5621 -1.2621 -2.2237
 2490SOL    HW2 8049   5.379   1.505   8.302  1.0141 -2.0149 -0.4017
 2491SOL     OW 8050   4.359   4.464   2.166  0.0800 -0.4102 -0.1355
 2491SOL    HW1 8051   4.442   4.423   2.142  0.2439 -1.0024  1.3372
 2491SOL    HW2 8052   4.311   4.396   2.213 -1.1016  0.0366 -0.6459
 2492SOL     OW 8053   5.548   1.490   3.878  0.2188 -0.1343  0.1469
 2492SOL    HW1 8054   5.528   1.418   3.937 -1.3990 -0.4584 -0.7292
 2492SOL    HW2 8055   5.589   1.557   3.933  1.0488 -1.3986  1.1160
 2493SOL     OW 8056   7.708   7.092   3.997  0.5883 -0.1967 -0.5431
 2493SOL    HW1 8057   7.794   7.099   3.955  0.9683 -0.4432  0.1880
 2493SOL    HW2 8058   7.725   7.045   4.079 -0.1298  0.3983 -0.0494
 2494SOL     OW 8059   6.806   0.715   8.868 -0.1010 -0.2569 -0.4908
 2494SOL    HW1 8060   6.718   0.690   8.838  0.8478 -3.2946 -1.0943
 2494SOL    HW2 8061   6.834   0.643   8.924  1.5030  1.3308  0.8792
 2495SOL     OW 8062   7.724   1.604   4.883 -0.3445  0.0779  0.3243
 2495SOL    HW1 8063   7.800   1.557   4.849 -0.4196  1.4297 -1.9216
 2495SOL    HW2 8064   7.666   1.614   4.808 -2.2571  0.1065  1.7178
 2496SOL     OW 8065   1.540   7.428   1.062 -0.3644 -0.6644 -0.8008
 2496SOL    HW1 8066   1.568   7.516   1.037 -1.8405  0.4311  1.0980
 2496SOL    HW2 8067   1.534   7.431   1.158  0.3869 -3.1206 -0.6276
 2497SOL     OW 8068   2.937   8.066   9.275 -0.4070  0.5569 -0.6500
 2497SOL    HW1 8069   2.940   7.989   9.218  0.2749  0.9980 -1.2221
 2497SOL    HW2 8070   2.919   8.139   9.217 -1.1288  0.8336 -0.0974
 2498SOL     OW 8071   7.346   6.045   9.325  0.7514 -0.4101  0.8454
 2498SOL    HW1 8072   7.396   6.035   9.244 -0.2138 -2.6296  0.4690
 2498SOL    HW2 8073   7.287   6.118   9.307  1.8082  0.3390  0.2599
 2499SOL     OW 8074   0.192   5.415   8.694  0.0642  0.1979 -0.6951
 2499SOL    HW1 8075   0.243   5.408   8.614  1.1543  0.2604 -0.0244
 2499SOL    HW2 8076   0.253   5.390   8.764 -0.9705 -0.2323  0.0805
 2500SOL     OW 8077  10.011   7.822   4.317  0.0063  0.4811 -0.1919
 2500SOL    HW1 8078   9.959   7.751   4.354  0.6329  1.2063  2.2167
 2500SOL    HW2 8079   9.947   7.875   4.268 -0.7750 -0.7643 -0.5630
 2501SOL     OW 8080   6.672   8.356   5.374  0.3978  0.2105 -0.2134
 2501SOL    HW1 8081   6.696   8.383   5.285  2.7681 -0.2845  0.1999
 2501SOL    HW2 8082   6.616   8.426   5.406 -0.9481  0.1477 -2.2496
 2502SOL     OW 8083   7.852   0.236   8.046  0.5595  0.0925  0.0999
 2502SOL    HW1 8084   7.882   0.203   8.130 -0.9076 -1.8195 -0.0626
 2502SOL    HW2 8085   7.800   0.314   8.067  2.2782  1.1293  0.6912
 2503SOL     OW 8086   0.951   2.942   1.841  0.2778 -0.3092  0.3174
 2503SOL    HW1 8087   0.898   3.003   1.790  0.6356  0.1028  0.4376
 2503SOL    HW2 8088   0.891   2.870   1.861 -0.7506  0.9148  1.8835
 2504SOL     OW 8089   1.178   0.828   9.892  0.5117  0.6165  0.4027
 2504SOL    HW1 8090   1.186   0.788   9.805  2.2853  0.4533  0.5974
 2504SOL    HW2 8091   1.136   0.760   9.945  0.4810  0.2711 -0.0531
 2505SOL     OW 8092   6.334   7.878   1.595 -0.2967  0.0807  0.5285
 2505SOL    HW1 8093   6.276   7.804   1.616  0.2957 -0.6761 -0.4247
 2505SOL    HW2 8094   6.279   7.938   1.545 -0.9107  0.5322  1.6948
 2506SOL     OW 8095   2.998   3.891   2.688  0.0666  0.5983  0.1578
 2506SOL    HW1 8096   3.005   3.834   2.765 -0.4031  2.2567  1.4857
 2506SOL    HW2 8097   3.087   3.926   2.677 -0.5374  3.0153  2.1449
 2507SOL     OW 8098   9.341   6.254   6.801 -0.4772 -0.3700 -0.0923
 2507SOL    HW1 8099   9.330   6.179   6.859  0.2893 -0.7991 -0.4946
 2507SOL    HW2 8100   9.371   6.217   6.718  0.7926  0.4469 -0.0280
 2508SOL     OW 8101   1.503   1.227   3.352 -0.0255  0.7151  0.0205
 2508SOL    HW1 8102   1.540   1.147   3.315  0.0362  1.5757 -1.8924
 2508SOL    HW2 8103   1.413   1.228   3.321 -0.2649  0.9804  0.7206
 2509SOL     OW 8104   5.977   6.375   2.526 -0.8527 -0.1614  0.0863
 2509SOL    HW1 8105   6.058   6.416   2.557  1.3919 -2.6386 -1.9773
 2509SOL    HW2 8106   5.949   6.320   2.599 -0.1868  0.0475  0.5145
 2510SOL     OW 8107   4.279   2.406   3.449  0.4054  0.4637 -0.4726
 2510SOL    HW1 8108   4.366   2.446   3.455  0.9521 -0.5775 -1.0627
 2510SOL    HW2 8109   4.288   2.342   3.378  0.0536 -1.8481  1.4735
 2511SOL     OW 8110   8.003   9.808   3.923  0.4265  0.3534 -0.0098
 2511SOL    HW1 8111   7.932   9.756   3.959 -1.1941  0.9680 -2.0845
 2511SOL    HW2 8112   8.040   9.754   3.853  0.8893  0.6938 -0.0349
 2512SOL     OW 8113   3.409   7.138   1.047 -0.2298  0.2354 -0.0699
 2512SOL    HW1 8114   3.467   7.193   1.100  0.9601 -0.4224 -0.6504
 2512SOL    HW2 8115   3.373   7.198   0.982 -0.7690  0.7958  0.7202
 2513SOL     OW 8116   5.053   2.828   0.248 -0.1534  0.5070  0.1289
 2513SOL    HW1 8117   5.009   2.907   0.280 -1.6081  0.7990 -2.2864
 2513SOL    HW2 8118   5.090   2.853   0.164 -0.0485 -1.1961 -0.3795
 2514SOL     OW 8119   2.814   5.480   4.146  0.6162 -0.2408  0.8177
 2514SOL    HW1 8120   2.892   5.426   4.134  1.2272  0.5677  1.0790
 2514SOL    HW2 8121   2.751   5.422   4.190  0.5540 -1.3239 -0.6024
 2515SOL     OW 8122   7.567   0.400   2.096 -0.1729  0.3616  0.3362
 2515SOL    HW1 8123   7.527   0.431   2.015 -0.2079 -1.3807 -0.3548
 2515SOL    HW2 8124   7.515   0.324   2.121  0.6238  0.1130  1.3093
 2516SOL     OW 8125   0.010   8.583   1.621  0.7559  0.0643  0.1040
 2516SOL    HW1 8126  -0.041   8.548   1.548  0.3971  0.6285  0.0804
 2516SOL    HW2 8127   0.038   8.669   1.593  1.1436  0.0367  0.3930
 2517SOL     OW 8128   3.697   4.108   2.221  0.1540 -0.2413 -0.3464
 2517SOL    HW1 8129   3.748   4.090   2.142 -0.8540  0.4367 -1.1820
 2517SOL    HW2 8130   3.629   4.169   2.192 -0.3361 -0.1043  1.0175
 2518SOL     OW 8131   2.660   4.227   4.128  0.4843  0.3266  0.6122
 2518SOL    HW1 8132   2.626   4.153   4.077 -1.3536  2.2592 -1.1838
 2518SOL    HW2 8133   2.643   4.203   4.219  1.2572 -2.0272  0.2069
 2519SOL     OW 8134   0.426   9.220   0.094 -0.8248 -0.2837 -0.2352
 2519SOL    HW1 8135   0.506   9.267   0.119 -1.5941  1.0269 -0.1527
 2519SOL    HW2 8136   0.443   9.188   0.006 -0.8108  1.4715 -0.9099
 2520SOL     OW 8137   1.708   8.252   8.266  0.3386 -0.1084  0.7108
 2520SOL    HW1 8138   1.688   8.242   8.359 -0.9092 -0.0496  0.4679
 2520SOL    HW2 8139   1.741   8.167   8.239  1.5365  0.1131  1.3764
 2521SOL     OW 8140   0.508   1.900   4.848  0.1816  0.0961  0.1914
 2521SOL    HW1 8141   0.420   1.873   4.872  0.6700 -0.0817  1.9052
 2521SOL    HW2 8142   0.559   1.819   4.847  0.3572  0.2003 -0.7646
 2522SOL     OW 8143   0.239   8.389   7.282  0.1760  0.0188 -0.1818
 2522SOL    HW1 8144   0.278   8.319   7.230 -1.2682 -0.3708 -0.7945
 2522SOL    HW2 8145   0.235   8.354   7.371  2.7146  0.7102  0.2736
 2523SOL     OW 8146   0.225   9.865   5.372 -0.5793  0.2780  0.6756
 2523SOL    HW1 8147   0.233   9.832   5.462  0.4701  2.2214  1.3564
 2523SOL    HW2 8148   0.314   9.890   5.348 -0.5880 -1.4136 -1.4728
 2524SOL     OW 8149   3.409   3.317   4.095  0.1556 -0.1096  0.5555
 2524SOL    HW1 8150   3.481   3.265   4.061 -0.8390 -0.2145 -1.5075
 2524SOL    HW2 8151   3.344   3.252   4.123 -0.1790  0.0089  0.0496
 2525SOL     OW 8152   8.342   2.846   3.680 -0.0128  0.4793 -0.1054
 2525SOL    HW1 8153   8.372   2.936   3.694  0.2174  0.4947 -0.6633
 2525SOL    HW2 8154   8.381   2.796   3.751  1.2340  0.5270 -0.7255
 2526SOL     OW 8155   6.197   3.188   4.570 -0.2159 -0.5267  0.1603
 2526SOL    HW1 8156   6.228   3.098   4.582 -0.1576 -0.8021 -1.6855
 2526SOL    HW2 8157   6.228   3.235   4.647  2.3605 -1.4174 -0.2339
 2527SOL     OW 8158   7.471   0.377   5.232  0.2296 -0.1890  0.0587
 2527SOL    HW1 8159   7.564   0.356   5.218  0.4037 -0.5546  1.6307
 2527SOL    HW2 8160   7.427   0.292   5.224  0.1250 -0.1367  0.0898
 2528SOL     OW 8161   3.641   7.966   2.022  0.2440  0.0344 -1.1808
 2528SOL    HW1 8162   3.609   8.056   2.028  0.1587 -0.0687  0.6647
 2528SOL    HW2 8163   3.729   7.969   2.061 -0.3315 -0.8955  0.2939
 2529SOL     OW 8164   8.324   6.413   3.870 -0.5597 -0.6122  0.4523
 2529SOL    HW1 8165   8.267   6.489   3.863 -1.4904 -1.2531  0.7904
 2529SOL    HW2 8166   8.277   6.353   3.928 -0.4336 -1.9319 -0.7313
 2530SOL     OW 8167   3.708   6.558   7.749 -0.0809  0.4311  0.2178
 2530SOL    HW1 8168   3.725   6.466   7.728  2.1312  1.1315 -1.4467
 2530SOL    HW2 8169   3.754   6.573   7.832 -1.8550 -0.2999  1.4033
 2531SOL     OW 8170   1.866   4.239   4.873  0.3306 -0.1674 -0.3661
 2531SOL    HW1 8171   1.806   4.245   4.948 -0.0913 -0.7850 -0.6441
 2531SOL    HW2 8172   1.871   4.146   4.854  0.1902  0.0062 -1.3065
 2532SOL     OW 8173   1.327   7.799  -0.029  0.2376 -0.6493  0.3370
 2532SOL    HW1 8174   1.314   7.732   0.038 -0.2026  1.4886  2.5155
 2532SOL    HW2 8175   1.396   7.855   0.006 -2.5341  2.7112  0.9737
 2533SOL     OW 8176   6.190   7.668   9.864  0.0874  0.0014 -0.3922
 2533SOL    HW1 8177   6.177   7.730   9.792 -0.6102  1.1015  0.6416
 2533SOL    HW2 8178   6.284   7.652   9.866  0.3064  1.1989 -0.5542
 2534SOL     OW 8179   5.279   6.122   7.679 -0.0645  0.3804 -0.3468
 2534SOL    HW1 8180   5.250   6.169   7.601 -3.1924 -0.6540  0.0272
 2534SOL    HW2 8181   5.248   6.176   7.752  0.9910  0.3040  0.1749
 2535SOL     OW 8182   1.481   8.776   1.226 -0.2377 -0.7809 -0.1656
 2535SOL    HW1 8183   1.568   8.762   1.188  0.3651  2.5150 -0.2897
 2535SOL    HW2 8184   1.481   8.868   1.252 -3.4822 -0.8542  0.4547
 2536SOL     OW 8185   5.597   7.281   6.492 -0.3297  0.3557  0.3357
 2536SOL    HW1 8186   5.517   7.329   6.514  0.1384  1.0587  0.5630
 2536SOL    HW2 8187   5.663   7.350   6.483 -0.2805  0.0563 -2.4142
 2537SOL     OW 8188   6.008   3.724   0.199  0.2332  0.0364 -0.3558
 2537SOL    HW1 8189   6.094   3.765   0.213 -0.7470  2.1672 -0.2467
 2537SOL    HW2 8190   5.989   3.680   0.282  0.8364  0.2690 -0.0854
 2538SOL     OW 8191   7.061   7.983   4.701 -0.6554  0.0765  0.0853
 2538SOL    HW1 8192   7.155   7.997   4.693 -0.6647  1.6427  1.9563
 2538SOL    HW2 8193   7.053   7.896   4.740  0.0165  0.0004  0.0644
 2539SOL     OW 8194   3.624   4.166   2.606 -0.0616 -0.9890 -0.1669
 2539SOL    HW1 8195   3.652   4.080   2.637 -0.2805 -0.3592  1.9460
 2539SOL    HW2 8196   3.703   4.220   2.614 -0.5956 -0.3690  1.1449
 2540SOL     OW 8197   1.187   4.778   1.654 -0.1522  0.1871 -0.0680
 2540SOL    HW1 8198   1.227   4.860   1.684 -2.2979  0.9217  0.9945
 2540SOL    HW2 8199   1.223   4.711   1.712 -0.5513  0.8438  0.9640
 2541SOL     OW 8200   1.676   5.908   3.933 -0.4489  0.1745  0.4880
 2541SOL    HW1 8201   1.695   5.814   3.923 -0.6061 -0.0604  2.1159
 2541SOL    HW2 8202   1.623   5.930   3.857  0.6870 -0.7389 -0.6145
 2542SOL     OW 8203   7.101   8.487   8.099 -0.1079  0.2545  0.1722
 2542SOL    HW1 8204   7.053   8.520   8.175 -0.2481  0.4586 -0.0037
 2542SOL    HW2 8205   7.158   8.560   8.074  0.3520 -0.0131  0.4310
 2543SOL     OW 8206   9.109   2.418   9.818 -0.1042  0.3977 -0.6889
 2543SOL    HW1 8207   9.059   2.485   9.864 -0.2683  0.7450 -1.3606
 2543SOL    HW2 8208   9.096   2.438   9.725  1.3030  0.5167 -0.8774
 2544SOL     OW 8209   3.258   2.127   8.391 -0.1427  0.3383 -0.2768
 2544SOL    HW1 8210   3.245   2.186   8.317  2.0274  1.9055  0.5038
 2544SOL    HW2 8211   3.313   2.176   8.452  0.1403 -1.7948  1.2985
 2545SOL     OW 8212   0.810   9.183   1.578 -0.2303  0.3760  0.0316
 2545SOL    HW1 8213   0.822   9.100   1.623  1.1572  0.9471  0.8052
 2545SOL    HW2 8214   0.841   9.168   1.489  1.1004  0.3313  0.4807
 2546SOL     OW 8215   9.425   4.311   8.950  0.5989  0.0798 -0.0191
 2546SOL    HW1 8216   9.467   4.383   8.903 -1.5626  2.3393  1.2663
 2546SOL    HW2 8217   9.357   4.279   8.890  0.0879  0.6641  0.2344
 2547SOL     OW 8218   4.911   8.215   5.052  0.5204 -0.3257 -0.3744
 2547SOL    HW1 8219   4.999   8.235   5.085  0.0588  0.3160  0.5290
 2547SOL    HW2 8220   4.917   8.227   4.957  2.1536 -3.2091 -0.7263
 2548SOL     OW 8221   8.924   1.960   3.959 -0.2207 -0.0161 -0.4448
 2548SOL    HW1 8222   8.972   2.040   3.934  0.6748 -0.3585  0.1427
 2548SOL    HW2 8223   8.915   1.911   3.877  0.4310  0.0618 -0.5692
 2549SOL     OW 8224   4.890   7.322   4.639 -0.4048 -0.0507 -0.3070
 2549SOL    HW1 8225   4.854   7.409   4.656  0.0741 -0.1307  1.2227
 2549SOL    HW2 8226   4.981   7.338   4.615  0.2104 -0.1937  1.7410
 2550SOL     OW 8227   2.746   3.213   8.462 -0.1411 -0.3507  0.0031
 2550SOL    HW1 8228   2.675   3.262   8.503  0.1371  0.5938 -0.6216
 2550SOL    HW2 8229   2.772   3.266   8.387  1.2894 -0.6429  0.2715
 2551SOL     OW 8230   3.332   7.510   5.254 -0.2434  0.2989 -0.2525
 2551SOL    HW1 8231   3.376   7.505   5.339 -0.6651  2.5649  0.1471
 2551SOL    HW2 8232   3.323   7.418   5.227  0.7120 -0.4359  1.7070
 2552SOL     OW 8233   7.840   1.048   2.213  0.3793  0.3705  0.2318
 2552SOL    HW1 8234   7.767   0.988   2.224  0.8187 -0.0517  0.9079
 2552SOL    HW2 8235   7.799   1.130   2.185 -0.1799 -0.3675 -1.2506
 2553SOL     OW 8236   6.432   7.296   3.150  0.0420  0.2465 -0.3199
 2553SOL    HW1 8237   6.437   7.373   3.093 -0.6231  0.1211 -0.5695
 2553SOL    HW2 8238   6.338   7.285   3.166  0.1840 -0.1037  0.2770
 2554SOL     OW 8239   8.273   0.975   6.353  0.0972 -0.4816 -0.0633
 2554SOL    HW1 8240   8.250   0.889   6.389 -0.0790  0.1704  1.4478
 2554SOL    HW2 8241   8.329   0.955   6.278 -2.0815 -1.9902 -1.3899
 2555SOL     OW 8242   6.381   1.752   7.252  0.0106  0.2948  0.1854
 2555SOL    HW1 8243   6.459   1.803   7.227  0.0613  0.2700  0.2916
 2555SOL    HW2 8244   6.373   1.766   7.346  0.8446 -1.0044  0.4785
 2556SOL     OW 8245   9.936   7.455   2.335 -0.4285 -0.0095 -0.1645
 2556SOL    HW1 8246   9.992   7.501   2.398  0.4242  0.5560 -1.3041
 2556SOL    HW2 8247   9.992   7.385   2.300 -0.2733  0.8102 -1.6057
 2557SOL     OW 8248   5.599   3.892   2.008 -0.4786 -0.0535 -0.2538
 2557SOL    HW1 8249   5.648   3.861   1.932 -1.0926 -0.8414 -0.3428
 2557SOL    HW2 8250   5.572   3.980   1.986 -0.4867 -0.2076 -0.8631
 2558SOL     OW 8251   3.801   2.991   6.521  0.3323  0.1468 -0.1689
 2558SOL    HW1 8252   3.862   3.025   6.585  0.9880  1.7238 -1.5468
 2558SOL    HW2 8253   3.730   3.055   6.518 -1.2211 -1.4077  1.0551
 2559SOL     OW 8254   6.195   1.783   3.348  0.4297  0.1802 -0.6909
 2559SOL    HW1 8255   6.256   1.714   3.323  1.0904  0.1403  0.9304
 2559SOL    HW2 8256   6.193   1.842   3.272  0.8970 -0.8832 -1.5560
 2560SOL     OW 8257   8.071   7.775   3.901  0.5675 -0.0726  0.3296
 2560SOL    HW1 8258   8.026   7.763   3.984 -1.4148  1.2481 -0.4744
 2560SOL    HW2 8259   8.002   7.770   3.835  1.6476  1.5335 -1.0237
 2561SOL     OW 8260   0.676   7.119   1.621  0.3479  0.1674 -0.0463
 2561SOL    HW1 8261   0.700   7.204   1.657  0.2211 -0.2658  1.1247
 2561SOL    HW2 8262   0.751   7.093   1.567  0.5240  0.8658 -0.1433
 2562SOL     OW 8263   8.762   8.656   0.175  0.2934 -0.3902  0.9997
 2562SOL    HW1 8264   8.786   8.723   0.111 -0.5453 -0.2431  0.8340
 2562SOL    HW2 8265   8.775   8.698   0.260  1.0882 -0.4763  0.9270
 2563SOL     OW 8266   6.792   9.023   1.724  0.3245  0.1195 -0.1798
 2563SOL    HW1 8267   6.797   8.949   1.663  0.8457  0.0204 -0.0191
 2563SOL    HW2 8268   6.741   9.089   1.677 -0.3279 -0.4164 -0.2418
 2564SOL     OW 8269   8.570   9.404   3.476 -0.4366 -0.9008 -0.0431
 2564SOL    HW1 8270   8.492   9.456   3.459 -0.7889 -1.3238  0.2735
 2564SOL    HW2 8271   8.578   9.347   3.400  0.9840  0.8255 -1.2999
 2565SOL     OW 8272   6.612   6.195   4.390  0.3609  0.5515  0.6166
 2565SOL    HW1 8273   6.693   6.162   4.429  1.0940  1.3159 -0.2168
 2565SOL    HW2 8274   6.555   6.118   4.383  1.4828 -0.2510  0.0584
 2566SOL     OW 8275   4.774   6.371   0.567  0.2057 -0.2456  0.2050
 2566SOL    HW1 8276   4.703   6.434   0.571 -0.9831 -1.5234 -0.0642
 2566SOL    HW2 8277   4.776   6.331   0.654  1.4032  0.6124  0.5934
 2567SOL     OW 8278   2.367   6.671   4.331  0.0476  0.0426 -0.2618
 2567SOL    HW1 8279   2.313   6.749   4.323 -1.3878 -0.7733  1.0822
 2567SOL    HW2 8280   2.421   6.686   4.408 -0.4645 -0.4198  0.1910
 2568SOL     OW 8281   9.808   3.143   7.910  0.4012  0.0033  0.4013
 2568SOL    HW1 8282   9.745   3.095   7.964 -0.0017 -0.0679 -0.1275
 2568SOL    HW2 8283   9.776   3.233   7.909  1.2319  0.3212  1.5033
 2569SOL     OW 8284   4.296   1.294   4.734 -0.3500 -0.2109  0.2006
 2569SOL    HW1 8285   4.304   1.389   4.725  0.0829 -0.1717  0.9689
 2569SOL    HW2 8286   4.311   1.260   4.645 -1.5881  0.4891 -0.3106
 2570SOL     OW 8287   8.957   1.620   8.670  0.7279 -0.3234 -0.1298
 2570SOL    HW1 8288   8.924   1.555   8.609  0.0595 -0.5724  0.4837
 2570SOL    HW2 8289   8.890   1.626   8.738  1.8022 -0.6278  0.9901
 2571SOL     OW 8290   1.328   3.040   0.060 -0.3951 -0.1448 -0.2789
 2571SOL    HW1 8291   1.295   2.961   0.019 -2.1093  0.6499 -0.4814
 2571SOL    HW2 8292   1.311   3.027   0.154  0.2121 -0.4137 -0.2006
 2572SOL     OW 8293   9.078   6.244   5.574 -0.0180  0.0061  0.3422
 2572SOL    HW1 8294   9.083   6.186   5.650 -1.4933 -0.3546  0.1873
 2572SOL    HW2 8295   9.029   6.195   5.508 -1.5248  1.4853  0.2824
 2573SOL     OW 8296   2.309   7.381   5.107 -0.3907  0.4328 -0.3018
 2573SOL    HW1 8297   2.276   7.311   5.051  0.3015  0.5579 -0.8831
 2573SOL    HW2 8298   2.232   7.412   5.155 -0.5238 -1.4365  0.7846
 2574SOL     OW 8299   5.442   4.439   9.425 -0.0710  0.9637  0.2695
 2574SOL    HW1 8300   5.448   4.344   9.433 -0.8230  0.7925 -0.8840
 2574SOL    HW2 8301   5.495   4.473   9.497  0.2104 -0.3245  0.6955
 2575SOL     OW 8302   8.282   0.914   0.314 -0.4835 -0.0483  0.3415
 2575SOL    HW1 8303   8.208   0.955   0.271 -1.6066 -0.3273  1.9406
 2575SOL    HW2 8304   8.298   0.835   0.263 -0.3456  0.7393 -0.8605
 2576SOL     OW 8305   4.748   5.216   0.418  0.3348 -0.7413  0.1180
 2576SOL    HW1 8306   4.832   5.204   0.373  0.1519 -0.1278 -0.4010
 2576SOL    HW2 8307   4.694   5.264   0.355 -0.6208 -1.6737  0.2030
 2577SOL     OW 8308   0.243   4.215   7.631 -0.3011  0.3317  0.0338
 2577SOL    HW1 8309   0.197   4.224   7.548  1.4575 -0.5649 -1.0950
 2577SOL    HW2 8310   0.213   4.290   7.683 -0.9601  1.2908 -1.6409
 2578SOL     OW 8311   0.743   1.393   5.964  0.5089  0.2481 -0.1831
 2578SOL    HW1 8312   0.670   1.437   5.920  1.6282  3.0123  0.4933
 2578SOL    HW2 8313   0.717   1.390   6.056  1.3665  1.7089  0.1459
 2579SOL     OW 8314   6.959   4.380   8.887  0.7884 -0.7233 -0.0674
 2579SOL    HW1 8315   6.941   4.472   8.870  0.6648 -0.7357 -0.0007
 2579SOL    HW2 8316   7.041   4.363   8.839 -0.0168 -0.9871 -1.4026
 2580SOL     OW 8317   2.520   3.459   4.463  0.6185  0.5921 -0.4426
 2580SOL    HW1 8318   2.501   3.547   4.496  0.5100 -0.0053  1.1764
 2580SOL    HW2 8319   2.612   3.445   4.483  0.2340 -0.2699  0.8811
 2581SOL     OW 8320   8.710   9.982   1.093  0.0556  0.2684 -0.1769
 2581SOL    HW1 8321   8.622   9.956   1.067  0.3973 -0.4859 -0.6355
 2581SOL    HW2 8322   8.768   9.934   1.033  0.7868  0.3990  0.4034
 2582SOL     OW 8323   5.178   7.878   0.362  0.1596  0.1486 -0.0128
 2582SOL    HW1 8324   5.173   7.797   0.311  1.0699 -0.4654  0.8173
 2582SOL    HW2 8325   5.249   7.928   0.321 -1.1243  1.0650 -1.2116
 2583SOL     OW 8326   8.104   4.146   6.211  0.0410  0.6282 -0.3012
 2583SOL    HW1 8327   8.150   4.126   6.129 -1.2596 -0.7987 -0.7088
 2583SOL    HW2 8328   8.018   4.106   6.202 -0.8842  2.1850  0.9594
 2584SOL     OW 8329   4.324   2.240   1.854  0.3148  0.1002  0.3496
 2584SOL    HW1 8330   4.272   2.317   1.831 -2.0455 -1.6914 -0.6759
 2584SOL    HW2 8331   4.342   2.198   1.770 -0.8623 -1.9183  1.0588
 2585SOL     OW 8332   6.601   0.634   4.255  0.2946  0.1357 -0.0268
 2585SOL    HW1 8333   6.695   0.621   4.265  0.1251  0.9709  5.4896
 2585SOL    HW2 8334   6.583   0.717   4.300 -3.1635 -0.2683 -0.3821
 2586SOL     OW 8335   2.126   0.130   1.946 -0.2502  0.0820  0.6557
 2586SOL    HW1 8336   2.132   0.088   1.860  2.1750  2.2048 -0.3743
 2586SOL    HW2 8337   2.161   0.065   2.006  1.0147 -0.3483 -0.4824
 2587SOL     OW 8338   6.490   7.828   8.135  0.3742 -0.7754 -0.1920
 2587SOL    HW1 8339   6.450   7.814   8.049  0.3099  0.6706 -0.4328
 2587SOL    HW2 8340   6.494   7.924   8.144  2.4305 -0.8687  0.4445
 2588SOL     OW 8341   7.666   1.804   3.995 -0.5410  0.2084  0.3231
 2588SOL    HW1 8342   7.753   1.841   3.981 -0.5216  0.4639  1.0531
 2588SOL    HW2 8343   7.612   1.879   4.022 -0.7867 -0.0889  0.6721
 2589SOL     OW 8344   9.706   0.918   6.973 -0.5390 -0.1225  0.2481
 2589SOL    HW1 8345   9.801   0.905   6.968 -0.5012 -0.3474  1.2709
 2589SOL    HW2 8346   9.696   1.013   6.981 -0.4107 -0.0834 -0.0457
 2590SOL     OW 8347   5.345   0.067   2.830  0.5157 -0.4747 -0.7304
 2590SOL    HW1 8348   5.377   0.078   2.920  0.4687  0.7272 -0.8482
 2590SOL    HW2 8349   5.425   0.058   2.777  0.7139  1.8331 -0.9340
 2591SOL     OW 8350   3.011   1.692   5.238  0.9008  0.7355  0.0110
 2591SOL    HW1 8351   2.995   1.660   5.327  1.3284  0.7383  0.0916
 2591SOL    HW2 8352   2.973   1.625   5.181  2.6989 -0.4900  0.1497
 2592SOL     OW 8353   9.233   2.222   5.971 -1.0726  0.5682 -0.3262
 2592SOL    HW1 8354   9.239   2.317   5.982  2.6696  0.4111  0.2848
 2592SOL    HW2 8355   9.257   2.186   6.057 -1.7394 -0.9271 -0.7298
 2593SOL     OW 8356   0.064   5.366   2.527 -0.2298 -0.3261  0.3756
 2593SOL    HW1 8357   0.133   5.425   2.558  0.0009 -0.0337 -0.6637
 2593SOL    HW2 8358   0.028   5.409   2.449 -1.8090 -0.3184  1.0656
 2594SOL     OW 8359   7.258   1.748   0.803  0.2677 -0.0870 -0.0543
 2594SOL    HW1 8360   7.248   1.804   0.726  1.8656  1.3721  0.7171
 2594SOL    HW2 8361   7.206   1.790   0.871 -0.6799 -1.0565 -0.1503
 2595SOL     OW 8362   5.371   4.329   3.113  0.0126 -0.3221 -0.6771
 2595SOL    HW1 8363   5.425   4.403   3.138 -2.8068  1.3523  0.8574
 2595SOL    HW2 8364   5.339   4.351   3.025 -1.3713  0.6795  0.0498
 2596SOL     OW 8365   1.340  -0.011   5.430  0.0659  0.2587 -0.0573
 2596SOL    HW1 8366   1.303  -0.045   5.511 -1.2576  1.9609  0.0870
 2596SOL    HW2 8367   1.316   0.081   5.428  2.8735  1.0826 -0.8259
 2597SOL     OW 8368   1.744   2.413   5.253 -0.0169 -0.5350  0.1764
 2597SOL    HW1 8369   1.712   2.326   5.228 -0.6073  0.3836 -2.5947
 2597SOL    HW2 8370   1.706   2.472   5.188 -0.8722  2.0737  2.8477
 2598SOL     OW 8371   8.021   3.585   7.586  0.5466 -0.2639 -0.6453
 2598SOL    HW1 8372   8.077   3.644   7.536  1.2010 -0.6585 -0.3818
 2598SOL    HW2 8373   7.974   3.643   7.646  1.3057 -0.0176 -0.2724
 2599SOL     OW 8374   4.315   0.803   4.282  0.0874 -0.4415 -0.1177
 2599SOL    HW1 8375   4.334   0.884   4.234 -1.8265 -0.9145 -1.7972
 2599SOL    HW2 8376   4.274   0.833   4.363 -1.9281  0.3345 -1.3467
 2600SOL     OW 8377   3.706   2.427   8.548 -0.5026  0.1102  0.1821
 2600SOL    HW1 8378   3.687   2.388   8.634  0.0444  0.9610  0.7131
 2600SOL    HW2 8379   3.797   2.402   8.531 -0.3116  0.7155  0.2939
 2601SOL     OW 8380   1.836   4.744   4.898 -0.4135 -0.5284 -0.0577
 2601SOL    HW1 8381   1.842   4.806   4.826 -1.4160 -0.9414 -0.5140
 2601SOL    HW2 8382   1.924   4.706   4.904 -0.5117 -1.0892 -1.6288
 2602SOL     OW 8383   6.177   1.444   0.476 -0.2526  0.7609 -0.4851
 2602SOL    HW1 8384   6.111   1.512   0.469 -1.6442 -0.4326  0.4683
 2602SOL    HW2 8385   6.223   1.463   0.559  0.9682  1.8603 -1.3762
 2603SOL     OW 8386   7.306   9.067   5.734 -0.3031 -0.2716 -0.1944
 2603SOL    HW1 8387   7.262   9.151   5.733 -1.3011 -0.6615 -3.6921
 2603SOL    HW2 8388   7.399   9.088   5.742 -0.5273  1.2062 -1.2227
 2604SOL     OW 8389   7.929   7.152   9.167 -0.5359  0.0511 -0.6694
 2604SOL    HW1 8390   7.841   7.187   9.152  0.2038  1.8556 -1.1082
 2604SOL    HW2 8391   7.923   7.106   9.251 -1.9757 -0.2033 -0.8861
 2605SOL     OW 8392   5.369   5.115   8.029  0.2150  0.0062  0.4333
 2605SOL    HW1 8393   5.354   5.142   8.120 -0.5888 -0.9624  0.5986
 2605SOL    HW2 8394   5.434   5.178   7.996 -0.2324  0.9855  1.3627
 2606SOL     OW 8395   2.770   6.607   4.149  0.0692  0.1649  0.9238
 2606SOL    HW1 8396   2.818   6.537   4.105 -2.5461 -0.7448 -0.6770
 2606SOL    HW2 8397   2.812   6.688   4.118  0.9344 -0.5781  0.0942
 2607SOL     OW 8398   5.833   3.576   1.815  0.3128  0.3004  0.4474
 2607SOL    HW1 8399   5.914   3.551   1.770 -0.2297 -0.4627 -0.1169
 2607SOL    HW2 8400   5.794   3.493   1.843  0.8886  0.7484  2.8355
 2608SOL     OW 8401   8.893   9.751   7.680 -0.0145 -0.2594  0.1506
 2608SOL    HW1 8402   8.911   9.657   7.680  0.0751 -0.2474  0.5778
 2608SOL    HW2 8403   8.875   9.773   7.589  0.6595 -0.5577 -0.0545
 2609SOL     OW 8404   0.746   2.277   1.936 -0.1194  0.4766  0.4342
 2609SOL    HW1 8405   0.773   2.323   1.856 -1.0964 -0.5412 -0.5244
 2609SOL    HW2 8406   0.657   2.247   1.917  0.3147 -1.4243  1.1729
 2610SOL     OW 8407   0.708   2.534   1.444  0.2521 -0.6142 -0.3901
 2610SOL    HW1 8408   0.632   2.477   1.459 -0.9911  1.0363 -0.1815
 2610SOL    HW2 8409   0.673   2.608   1.394  1.6091  0.4422  0.1657
 2611SOL     OW 8410   7.141   7.442   7.458  0.2797 -0.2246  0.0776
 2611SOL    HW1 8411   7.221   7.493   7.468  0.2614  0.5447 -2.8794
 2611SOL    HW2 8412   7.152   7.368   7.518  1.3803  1.8697  2.6922
 2612SOL     OW 8413   1.855   2.185   3.733  0.0705 -0.0197 -0.1900
 2612SOL    HW1 8414   1.899   2.179   3.648 -1.5748 -0.9488 -1.0419
 2612SOL    HW2 8415   1.823   2.275   3.738 -2.3178 -0.6640 -1.9571
 2613SOL     OW 8416   2.355   3.383   3.463 -0.0307  0.3569  0.0462
 2613SOL    HW1 8417   2.414   3.431   3.521  1.6855  0.1947 -1.4774
 2613SOL    HW2 8418   2.275   3.372   3.514  0.8834  1.4819  1.8219
 2614SOL     OW 8419   4.828   2.890   9.883 -0.1147  0.2788 -0.1150
 2614SOL    HW1 8420   4.913   2.917   9.917 -0.7449  1.9757  0.1997
 2614SOL    HW2 8421   4.826   2.924   9.793 -0.4912  0.3174 -0.0939
 2615SOL     OW 8422   6.863   0.086   7.739  0.2198 -0.2829 -0.1923
 2615SOL    HW1 8423   6.838   0.034   7.815  0.2638  0.8699  0.6462
 2615SOL    HW2 8424   6.943   0.044   7.706 -0.1333 -1.1464  0.0209
 2616SOL     OW 8425   5.852   0.234   7.304  0.5833  0.0517 -0.3067
 2616SOL    HW1 8426   5.904   0.300   7.350  0.0353 -0.2261  0.7340
 2616SOL    HW2 8427   5.871   0.250   7.212 -0.0522  2.1183 -0.1305
 2617SOL     OW 8428   4.418   4.780   1.580 -0.4139  0.1980  0.5308
 2617SOL    HW1 8429   4.346   4.837   1.606 -0.6834 -0.3028  0.8925
 2617SOL    HW2 8430   4.497   4.829   1.603 -0.6301  0.7515  0.1206
 2618SOL     OW 8431   6.645   9.734   0.248  0.5931  0.3867  0.2863
 2618SOL    HW1 8432   6.719   9.710   0.192  0.4383  0.9018 -0.1524
 2618SOL    HW2 8433   6.576   9.673   0.223  0.4396  0.7892 -0.2776
 2619SOL     OW 8434   4.678   9.699   5.285  0.9019 -0.4671  0.3286
 2619SOL    HW1 8435   4.626   9.624   5.256  1.5735 -1.0914  0.6961
 2619SOL    HW2 8436   4.614   9.763   5.314  0.2689 -0.4771 -0.9458
 2620SOL     OW 8437   3.912   8.826   4.529  0.6195 -0.7016  0.3200
 2620SOL    HW1 8438   3.993   8.787   4.563  0.5629 -1.0112  0.1012
 2620SOL    HW2 8439   3.855   8.832   4.606  1.1937  0.4394  0.6860
 2621SOL     OW 8440   7.876   8.327   0.523  0.3300  0.1805  0.2291
 2621SOL    HW1 8441   7.807   8.390   0.504  0.4463  0.9700  2.1770
 2621SOL    HW2 8442   7.835   8.265   0.584  0.8203 -0.4379 -0.0520
 2622SOL     OW 8443   4.923   9.392   7.848 -0.4353  0.0251 -0.7295
 2622SOL    HW1 8444   4.958   9.349   7.770  1.4220  2.0704 -1.1048
 2622SOL    HW2 8445   4.968   9.350   7.921  0.3685  0.3947 -1.0006
 2623SOL     OW 8446   5.978   6.034   4.389 -0.3625  0.4419 -0.3838
 2623SOL    HW1 8447   6.060   5.994   4.362  0.6290  1.2365  1.3107
 2623SOL    HW2 8448   5.991   6.128   4.374  0.1472  0.8889  2.4353
 2624SOL     OW 8449   1.936   7.433   8.901 -0.3040  0.0468  0.1414
 2624SOL    HW1 8450   1.916   7.526   8.903  0.7280  0.2601  1.2444
 2624SOL    HW2 8451   1.949   7.409   8.993  1.1768 -0.7848 -0.2505
 2625SOL     OW 8452   5.053   2.698   2.543  0.1948 -0.0766  0.1800
 2625SOL    HW1 8453   5.093   2.711   2.457  0.4352 -1.5514  0.0375
 2625SOL    HW2 8454   5.128   2.688   2.603  0.0567 -0.8311  0.2432
 2626SOL     OW 8455   7.309   8.531   0.990 -0.1134 -0.1429 -0.3032
 2626SOL    HW1 8456   7.229   8.582   0.976 -0.1764  0.1908  1.0995
 2626SOL    HW2 8457   7.345   8.517   0.902 -0.8091  1.1631 -0.8173
 2627SOL     OW 8458   7.214   6.158   2.085  0.1780 -0.5297 -0.1957
 2627SOL    HW1 8459   7.267   6.218   2.137 -0.4480  0.2016 -0.3878
 2627SOL    HW2 8460   7.196   6.206   2.004 -2.2658 -0.0329  0.5796
 2628SOL     OW 8461   5.351   0.924   2.212 -0.0261 -0.4271  0.4851
 2628SOL    HW1 8462   5.439   0.918   2.251 -0.1549 -0.5072  0.7679
 2628SOL    HW2 8463   5.292   0.905   2.285 -0.2851 -0.1989  0.3342
 2629SOL     OW 8464   0.639   0.033   7.987 -0.2315 -0.1805  0.2167
 2629SOL    HW1 8465   0.669   0.074   8.068 -3.2886  1.5345  0.6356
 2629SOL    HW2 8466   0.620  -0.058   8.012  1.4055 -0.4192  0.6867
 2630SOL     OW 8467   3.445   2.422   6.393  0.4130 -0.2165  0.0764
 2630SOL    HW1 8468   3.423   2.389   6.306  0.0395  1.4963 -0.5206
 2630SOL    HW2 8469   3.444   2.345   6.450  0.5980 -1.3523 -1.4178
 2631SOL     OW 8470   3.863   4.075   1.996  0.0019  0.4007 -0.4429
 2631SOL    HW1 8471   3.887   4.164   1.972  0.0318  0.6197  0.3780
 2631SOL    HW2 8472   3.897   4.021   1.925  1.1574  0.9125 -0.2999
 2632SOL     OW 8473   4.415   5.413   1.043 -0.1483  0.6994  0.1579
 2632SOL    HW1 8474   4.476   5.381   0.977 -1.5270  0.0657 -0.8613
 2632SOL    HW2 8475   4.346   5.457   0.993 -1.2811  0.1093  1.1544
 2633SOL     OW 8476   6.100   5.701   8.677  0.2750  0.3765 -0.1233
 2633SOL    HW1 8477   6.015   5.706   8.632  0.1660  0.2595  0.0648
 2633SOL    HW2 8478   6.129   5.611   8.663  0.3333  0.3965 -0.1269
 2634SOL     OW 8479   5.926   3.283   3.451 -0.3686  0.0736 -0.3964
 2634SOL    HW1 8480   5.953   3.336   3.375 -0.1889 -2.4353 -2.2216
 2634SOL    HW2 8481   5.956   3.333   3.527  0.0383  2.4107 -1.9789
 2635SOL     OW 8482   1.591   9.088   8.815 -0.5579  0.1225 -0.1027
 2635SOL    HW1 8483   1.622   9.080   8.725  0.3893 -1.1193  0.3168
 2635SOL    HW2 8484   1.511   9.035   8.818 -0.1767 -0.4488 -0.0251
 2636SOL     OW 8485   0.630   4.508   6.646 -0.0912 -0.0160 -0.1499
 2636SOL    HW1 8486   0.559   4.573   6.644  0.8155  1.0433  0.5509
 2636SOL    HW2 8487   0.704   4.553   6.604  0.1888 -1.0845 -0.8288
 2637SOL     OW 8488   3.050   4.436   8.922  0.1148 -0.8712  0.2897
 2637SOL    HW1 8489   2.985   4.375   8.956  0.3285 -1.5030 -0.4153
 2637SOL    HW2 8490   3.056   4.504   8.989 -1.8995 -0.3159 -0.0247
 2638SOL     OW 8491   2.308   0.867   7.164  0.1738  0.6853  0.2943
 2638SOL    HW1 8492   2.237   0.811   7.193 -0.0172  0.2472 -0.9662
 2638SOL    HW2 8493   2.271   0.956   7.166 -0.0218  0.5941  0.7762
 2639SOL     OW 8494   9.905   2.797   0.977  0.3104 -0.1491  0.5402
 2639SOL    HW1 8495   9.933   2.712   0.945  2.1026  0.2273  0.9729
 2639SOL    HW2 8496   9.890   2.849   0.898  1.0969 -0.3099  0.2736
 2640SOL     OW 8497   0.431   8.818   5.949 -0.1750 -0.5365 -0.6497
 2640SOL    HW1 8498   0.404   8.728   5.968 -0.8090  0.0087  1.2146
 2640SOL    HW2 8499   0.422   8.864   6.033  2.3090  0.7480 -1.0019
 2641SOL     OW 8500   2.896   1.227   3.490 -0.2673 -0.6098  0.0329
 2641SOL    HW1 8501   2.969   1.165   3.498  1.2782  0.9454 -1.3387
 2641SOL    HW2 8502   2.881   1.257   3.580 -0.8266 -2.6669  0.6765
 2642SOL     OW 8503   6.998   1.224   9.404  0.7962 -0.5809  0.4021
 2642SOL    HW1 8504   7.001   1.169   9.326 -0.4782 -0.3480  0.1633
 2642SOL    HW2 8505   7.009   1.313   9.370 -1.4355 -0.3104  0.2330
 2643SOL     OW 8506   9.647   4.691   8.649 -0.5204  0.4256  0.3444
 2643SOL    HW1 8507   9.645   4.656   8.560  0.5098 -1.5338  1.0301
 2643SOL    HW2 8508   9.695   4.773   8.642 -0.8253  0.5149 -0.9670
 2644SOL     OW 8509   9.005   6.030   8.723  0.3793 -0.4158 -0.0102
 2644SOL    HW1 8510   8.961   5.996   8.800  4.4132  0.7301  3.1530
 2644SOL    HW2 8511   8.958   6.111   8.703 -1.2520 -1.1440  0.6718
 2645SOL     OW 8512   2.814   4.266   4.978 -0.3702  0.0073 -0.1478
 2645SOL    HW1 8513   2.720   4.263   4.958 -1.1486 -0.4938  2.9734
 2645SOL    HW2 8514   2.827   4.353   5.015 -0.5422 -1.0948  2.7982
 2646SOL     OW 8515   3.701   9.646   9.032  0.5899 -0.1396  0.0302
 2646SOL    HW1 8516   3.772   9.677   8.976  0.4803  0.2187  0.0911
 2646SOL    HW2 8517   3.739   9.572   9.079  0.5497 -0.7207 -0.8310
 2647SOL     OW 8518   0.841   9.757   6.728 -0.2575  0.0167 -0.2915
 2647SOL    HW1 8519   0.796   9.745   6.644 -1.1816  2.8024 -0.2948
 2647SOL    HW2 8520   0.855   9.851   6.735  0.1272 -0.1536  2.5258
 2648SOL     OW 8521   5.999   6.032   8.346  0.5852 -0.6497  0.5224
 2648SOL    HW1 8522   5.949   6.092   8.401 -1.3804 -0.4226 -1.3719
 2648SOL    HW2 8523   5.940   5.958   8.331  1.2690 -0.9637 -0.7964
 2649SOL     OW 8524   3.652   1.381   6.315 -0.2384 -0.6023 -0.2293
 2649SOL    HW1 8525   3.683   1.389   6.225 -1.4446  1.2169 -0.5345
 2649SOL    HW2 8526   3.559   1.401   6.310 -0.7398 -2.2983  1.1868
 2650SOL     OW 8527   0.916   1.360   1.023 -0.3937 -0.2621 -0.1713
 2650SOL    HW1 8528   0.900   1.447   1.059 -1.5587 -0.3934 -0.3266
 2650SOL    HW2 8529   0.955   1.377   0.937  2.0153  0.0495  0.9204
 2651SOL     OW 8530   2.796   8.831   0.941 -0.3141  0.1700 -0.7173
 2651SOL    HW1 8531   2.742   8.891   0.890  0.1461  0.8937 -0.3659
 2651SOL    HW2 8532   2.744   8.751   0.946 -2.0613  1.3352  0.8978
 2652SOL     OW 8533   6.750   7.370   2.044 -0.1743 -0.1202  0.3148
 2652SOL    HW1 8534   6.765   7.401   2.134 -2.0455  1.7396  0.0935
 2652SOL    HW2 8535   6.765   7.448   1.990 -0.6940 -0.7760 -0.7943
 2653SOL     OW 8536   2.068   7.852   0.425 -0.2778 -1.1528  0.3555
 2653SOL    HW1 8537   1.986   7.883   0.387 -0.0908  0.3409  1.0649
 2653SOL    HW2 8538   2.044   7.774   0.474 -2.0783  1.0711  3.4140
 2654SOL     OW 8539   9.856   1.391   9.936 -0.2330 -0.0961 -0.3883
 2654SOL    HW1 8540   9.847   1.362  10.027  0.7652 -1.2242 -0.6133
 2654SOL    HW2 8541   9.932   1.450   9.937 -0.6021  0.3857 -0.3953
 2655SOL     OW 8542   4.830   8.012   2.357 -0.0867 -0.1212  0.9158
 2655SOL    HW1 8543   4.823   8.084   2.419  1.0382  0.2295  0.6607
 2655SOL    HW2 8544   4.788   8.044   2.277 -0.0650  0.0481  0.9724
 2656SOL     OW 8545   2.587   9.216   2.190  0.5914  0.4423 -0.2239
 2656SOL    HW1 8546   2.577   9.140   2.132  1.0228  0.3238 -0.1468
 2656SOL    HW2 8547   2.661   9.264   2.153 -0.9198  1.9524 -1.5051
 2657SOL     OW 8548   5.046   3.554   2.469  0.2418 -0.3340 -0.5696
 2657SOL    HW1 8549   5.057   3.462   2.443  1.8717 -0.6337  0.9571
 2657SOL    HW2 8550   5.106   3.602   2.412  0.2663 -0.3715 -0.5754
 2658SOL     OW 8551   9.805   0.204   0.973 -0.2137  0.7627 -0.0353
 2658SOL    HW1 8552   9.829   0.167   0.888 -1.5094 -0.2408 -0.0030
 2658SOL    HW2 8553   9.885   0.245   1.005  1.0421 -1.1613 -0.5428
 2659SOL     OW 8554   8.231   2.459   0.308 -0.2661  1.0203 -0.2584
 2659SOL    HW1 8555   8.262   2.515   0.238 -0.3316  0.2992 -0.8774
 2659SOL    HW2 8556   8.213   2.375   0.266 -0.8511  0.7421  0.5118
 2660SOL     OW 8557   8.567   9.593   0.052 -0.5098  0.1453 -0.1605
 2660SOL    HW1 8558   8.583   9.681   0.086 -2.0288 -0.1575  1.4799
 2660SOL    HW2 8559   8.585   9.601  -0.042  1.8344  1.5447  0.3038
 2661SOL     OW 8560   9.245   7.407   3.589 -0.3359 -0.5302 -0.2111
 2661SOL    HW1 8561   9.164   7.452   3.565 -2.1294 -3.3925 -0.1275
 2661SOL    HW2 8562   9.244   7.405   3.685 -1.1073 -1.9510 -0.2128
 2662SOL     OW 8563   7.310   9.742   9.009 -0.1999 -0.0484  0.0613
 2662SOL    HW1 8564   7.369   9.762   9.081 -0.7466 -0.9054  0.7729
 2662SOL    HW2 8565   7.222   9.752   9.046 -0.5028  0.4237 -0.7524
 2663SOL     OW 8566   0.552   8.430   1.055  0.3557 -0.2825  0.6993
 2663SOL    HW1 8567   0.639   8.458   1.086 -0.0305  2.7425 -0.5862
 2663SOL    HW2 8568   0.567   8.397   0.967  0.2041  0.4126  0.4069
 2664SOL     OW 8569   6.842   2.810   6.320  0.5513  0.4798 -0.0034
 2664SOL    HW1 8570   6.761   2.823   6.270 -0.2503  0.7179  1.3043
 2664SOL    HW2 8571   6.878   2.728   6.285  0.9338  1.4562 -2.1036
 2665SOL     OW 8572   1.965   5.136   8.025  0.1333  0.3844 -0.0677
 2665SOL    HW1 8573   1.951   5.224   7.990 -1.1804  0.1641 -0.1493
 2665SOL    HW2 8574   1.996   5.151   8.115 -0.1728  0.9286 -0.0459
 2666SOL     OW 8575   4.842   9.263   6.036 -0.5852  0.7665 -0.6128
 2666SOL    HW1 8576   4.789   9.200   6.084 -0.7544  0.8139 -0.7381
 2666SOL    HW2 8577   4.881   9.212   5.965  0.8447  0.3541  0.4176
 2667SOL     OW 8578   8.836   5.930   6.567 -0.1033 -0.1507 -0.2983
 2667SOL    HW1 8579   8.786   6.002   6.528  0.4616  0.5017  0.1605
 2667SOL    HW2 8580   8.789   5.909   6.647 -0.3153 -0.3590 -0.4737
 2668SOL     OW 8581   8.813   1.181   8.436 -0.2471 -0.0786  0.2399
 2668SOL    HW1 8582   8.792   1.212   8.348  0.5051 -0.3643 -0.0531
 2668SOL    HW2 8583   8.735   1.133   8.464 -0.4262 -0.1476 -0.3506
 2669SOL     OW 8584   2.898   0.531   7.539 -0.1714 -0.1883  0.4298
 2669SOL    HW1 8585   2.974   0.541   7.482 -0.2891 -0.0936  0.2872
 2669SOL    HW2 8586   2.930   0.479   7.612 -0.2229 -1.0304 -0.1262
 2670SOL     OW 8587   2.851   0.225   4.844  0.1026 -0.4336 -0.4564
 2670SOL    HW1 8588   2.904   0.208   4.767  2.0027 -1.2758  0.9605
 2670SOL    HW2 8589   2.912   0.221   4.917 -1.8438 -1.0310  1.2401
 2671SOL     OW 8590   0.880   1.387   3.270  0.0828 -0.2937 -0.2315
 2671SOL    HW1 8591   0.817   1.329   3.228  1.6675 -1.1522 -1.5449
 2671SOL    HW2 8592   0.913   1.336   3.345  0.9220 -0.8245 -0.9428
 2672SOL     OW 8593   8.024   0.294   5.340  0.2809  0.1286 -0.3293
 2672SOL    HW1 8594   8.022   0.256   5.427  1.9141 -0.2136 -0.4130
 2672SOL    HW2 8595   8.051   0.385   5.354  1.4194 -0.1660 -0.5284
 2673SOL     OW 8596   8.997   7.773   1.817  0.3751 -0.1964 -0.1649
 2673SOL    HW1 8597   9.022   7.863   1.838 -0.8841  0.3787 -0.9977
 2673SOL    HW2 8598   9.068   7.720   1.852  0.6032  1.0321  1.3462
 2674SOL     OW 8599   4.551   7.220   8.999 -0.1710 -0.8151 -0.2862
 2674SOL    HW1 8600   4.627   7.194   8.947 -0.1220 -1.2624  0.0038
 2674SOL    HW2 8601   4.490   7.147   8.991 -1.0677  0.0224 -1.4564
 2675SOL     OW 8602   6.708   9.240   6.031  0.4083  0.1993  0.0181
 2675SOL    HW1 8603   6.684   9.230   6.124  0.8040  1.8746  0.3305
 2675SOL    HW2 8604   6.660   9.171   5.987 -0.5366 -0.0429  1.3600
 2676SOL     OW 8605   7.210   6.862   7.099  0.1118  0.1829  0.1772
 2676SOL    HW1 8606   7.160   6.900   7.172  1.5135  1.1053  0.7149
 2676SOL    HW2 8607   7.165   6.892   7.021 -0.5579  0.4395  0.6500
 2677SOL     OW 8608   8.175   6.398   6.929  0.0889 -0.3637  0.5730
 2677SOL    HW1 8609   8.089   6.404   6.971 -0.5633 -0.4324 -0.6744
 2677SOL    HW2 8610   8.194   6.487   6.899  1.4307  0.0835  2.6137
 2678SOL     OW 8611   1.161   5.439   0.120 -0.1872 -0.4470 -0.2531
 2678SOL    HW1 8612   1.198   5.430   0.208  0.8460 -0.9938 -0.7245
 2678SOL    HW2 8613   1.118   5.525   0.121  0.6015 -0.0371  0.5075
 2679SOL     OW 8614   5.401   1.712   6.633  0.2427 -0.0131  0.1083
 2679SOL    HW1 8615   5.353   1.640   6.590  1.0003 -0.5324  0.1103
 2679SOL    HW2 8616   5.469   1.668   6.683  0.6253  0.7128  0.2254
 2680SOL     OW 8617   5.321   6.602   7.238 -0.2214 -0.2905 -0.0884
 2680SOL    HW1 8618   5.235   6.564   7.257 -0.2084 -0.4084 -0.2598
 2680SOL    HW2 8619   5.382   6.552   7.292 -0.2862 -0.0521  0.2114
 2681SOL     OW 8620   4.887   4.123   9.182  0.0312  0.4266 -0.0889
 2681SOL    HW1 8621   4.889   4.091   9.091 -1.5873  3.3845 -1.3247
 2681SOL    HW2 8622   4.976   4.153   9.199  0.5812 -0.9987 -0.3094
 2682SOL     OW 8623   1.733   1.819   3.763  0.1446  0.2460 -0.0624
 2682SOL    HW1 8624   1.735   1.752   3.695  0.8280 -0.1633  0.3399
 2682SOL    HW2 8625   1.697   1.896   3.721  1.4514  0.2869 -1.1591
 2683SOL     OW 8626   8.654   3.256   4.691 -0.1044 -0.1375 -0.3402
 2683SOL    HW1 8627   8.726   3.195   4.706  0.4757  0.6049 -0.0654
 2683SOL    HW2 8628   8.613   3.225   4.610  1.5005  0.3415 -1.3843
 2684SOL     OW 8629   1.339   6.779   0.852 -0.4574 -0.2009  0.0463
 2684SOL    HW1 8630   1.375   6.868   0.851 -1.2307  0.1268  0.5387
 2684SOL    HW2 8631   1.413   6.724   0.829 -0.1196  0.6233 -0.9087
 2685SOL     OW 8632   1.221   8.190   1.509  0.1708  0.3099 -0.1951
 2685SOL    HW1 8633   1.199   8.207   1.418  1.3736 -1.9591 -0.9962
 2685SOL    HW2 8634   1.140   8.210   1.557 -0.4718  1.5981 -1.7228
 2686SOL     OW 8635   1.895   1.381   2.917 -0.3814 -0.0702 -0.2922
 2686SOL    HW1 8636   1.945   1.461   2.900 -1.7170  0.8797  0.0541
 2686SOL    HW2 8637   1.895   1.335   2.834 -2.5365  2.0363 -1.5837
 2687SOL     OW 8638   9.458   3.721   2.098  0.2534  0.2000  0.2114
 2687SOL    HW1 8639   9.498   3.808   2.087  1.1830 -0.0028  1.7406
 2687SOL    HW2 8640   9.445   3.712   2.192 -0.7422 -0.9410 -0.0139
 2688SOL     OW 8641   6.049   3.093   6.345  0.6361 -0.1074  0.3037
 2688SOL    HW1 8642   6.006   3.014   6.377  1.7709 -0.9187 -0.1147
 2688SOL    HW2 8643   5.991   3.165   6.371  0.5035 -0.9033  2.3433
 2689SOL     OW 8644   5.830   2.282   1.802 -0.3905 -0.0848  0.3035
 2689SOL    HW1 8645   5.791   2.194   1.802 -1.5482  0.4147  0.1059
 2689SOL    HW2 8646   5.790   2.326   1.728 -0.4005  0.8690  0.8679
 2690SOL     OW 8647   2.755   6.354   7.599 -0.4498 -0.7558  0.6813
 2690SOL    HW1 8648   2.707   6.354   7.516  1.7331  0.3434 -0.6800
 2690SOL    HW2 8649   2.707   6.415   7.655 -2.4404 -2.1516  0.6093
 2691SOL     OW 8650   3.306   5.531   1.457 -0.0449 -0.3128 -0.8080
 2691SOL    HW1 8651   3.374   5.476   1.494  0.3903  1.1396  0.6863
 2691SOL    HW2 8652   3.273   5.583   1.531 -1.3187  0.5057 -1.8848
 2692SOL     OW 8653   2.827   7.546   8.729  0.7564  0.3745 -0.0834
 2692SOL    HW1 8654   2.787   7.633   8.721 -0.6611 -0.0736  1.7593
 2692SOL    HW2 8655   2.775   7.490   8.671  1.8698  0.7490 -1.5265
 2693SOL     OW 8656   7.752   6.003   0.853  0.7446  0.7450  0.5555
 2693SOL    HW1 8657   7.814   6.025   0.923 -0.2390  0.6083  1.5083
 2693SOL    HW2 8658   7.680   6.066   0.864  0.2241  0.2354  0.1495
 2694SOL     OW 8659   5.332   4.427   8.738  0.5586 -0.2331  0.7747
 2694SOL    HW1 8660   5.309   4.349   8.787  2.5612 -0.8587  0.8039
 2694SOL    HW2 8661   5.256   4.485   8.747 -2.2185 -3.1881 -1.5530
 2695SOL     OW 8662   2.302   4.901   2.355  0.4757 -0.6673 -0.2780
 2695SOL    HW1 8663   2.394   4.884   2.336  0.3037  0.1145 -1.9559
 2695SOL    HW2 8664   2.272   4.957   2.283 -0.7713  0.8908  1.3687
 2696SOL     OW 8665   0.115   0.312   6.983 -0.1701 -0.3364  0.1679
 2696SOL    HW1 8666   0.099   0.404   7.005  0.8065  0.1934 -1.1706
 2696SOL    HW2 8667   0.174   0.281   7.051 -1.1891 -0.2374  1.1159
 2697SOL     OW 8668   9.134   0.270   9.605  0.2338  0.4878  0.6027
 2697SOL    HW1 8669   9.052   0.308   9.636 -0.4865 -1.0712  0.7289
 2697SOL    HW2 8670   9.144   0.306   9.516 -0.4419  0.9043  0.6847
 2698SOL     OW 8671   9.958   5.828   1.303 -0.2546  0.6553  0.0569
 2698SOL    HW1 8672   9.916   5.745   1.322 -0.8136  0.9659  0.1970
 2698SOL    HW2 8673   9.916   5.859   1.223  1.2004 -0.0415 -1.0339
 2699SOL     OW 8674   4.690   6.282   9.178  0.6334  1.0548 -0.2152
 2699SOL    HW1 8675   4.689   6.375   9.159  1.6931  1.0263 -0.4356
 2699SOL    HW2 8676   4.597   6.258   9.185  0.2175  1.5943 -2.7562
 2700SOL     OW 8677   5.973   9.473   5.601 -0.3239  0.1617 -0.1332
 2700SOL    HW1 8678   5.930   9.478   5.516 -0.7777 -2.8559 -0.2065
 2700SOL    HW2 8679   5.906   9.438   5.660  1.0688 -1.6750  0.4621
 2701SOL     OW 8680   8.038   0.674   7.920 -0.9740 -0.1647 -0.9484
 2701SOL    HW1 8681   7.951   0.646   7.892 -1.4730  0.3366  0.0570
 2701SOL    HW2 8682   8.096   0.603   7.894 -1.9407 -1.3127 -0.0739
 2702SOL     OW 8683   7.951   3.305   5.892 -0.2824  0.1672  0.3656
 2702SOL    HW1 8684   7.892   3.354   5.949 -1.2613 -0.7025  0.1186
 2702SOL    HW2 8685   7.949   3.351   5.809 -1.6122 -0.5636 -0.0274
 2703SOL     OW 8686   0.653   8.138   3.808 -0.2451 -0.4650 -0.1983
 2703SOL    HW1 8687   0.667   8.221   3.763 -2.3651 -0.2041 -0.4837
 2703SOL    HW2 8688   0.558   8.126   3.807 -0.0476 -2.4892  0.5746
 2704SOL     OW 8689   3.446   7.659   5.059 -0.1476  0.0321 -0.3726
 2704SOL    HW1 8690   3.524   7.690   5.106  1.1428 -2.8872 -0.3653
 2704SOL    HW2 8691   3.399   7.606   5.124 -2.7871  2.4892 -0.0771
 2705SOL     OW 8692   9.441   4.634   9.121 -0.2447 -0.3333  0.1096
 2705SOL    HW1 8693   9.424   4.574   9.048  0.7056 -0.0071 -0.3934
 2705SOL    HW2 8694   9.366   4.694   9.120 -0.0533 -0.0876 -0.8603
 2706SOL     OW 8695   8.700   5.772   8.172 -0.3274  0.0234 -0.1458
 2706SOL    HW1 8696   8.790   5.743   8.189  0.3549  1.4754 -1.0152
 2706SOL    HW2 8697   8.685   5.843   8.234 -1.3745 -1.0431  0.8640
 2707SOL     OW 8698   6.227   5.921   8.293 -0.6968 -0.6345  0.0135
 2707SOL    HW1 8699   6.277   5.988   8.341 -0.3715  0.3387 -1.5963
 2707SOL    HW2 8700   6.137   5.952   8.296 -0.4755  0.1876 -1.1599
 2708SOL     OW 8701   3.580   0.310   8.808  0.4675  0.3927 -0.1617
 2708SOL    HW1 8702   3.586   0.406   8.808 -0.4918  0.4561 -0.0380
 2708SOL    HW2 8703   3.568   0.286   8.900  2.9913 -0.0297  0.1455
 2709SOL     OW 8704   8.187   7.788   2.606  0.3377  0.0480  0.0940
 2709SOL    HW1 8705   8.170   7.834   2.524  0.5123  0.0781  0.0736
 2709SOL    HW2 8706   8.283   7.779   2.608  0.2896 -0.5574 -0.0371
 2710SOL     OW 8707   8.527   0.547   4.710  0.1404  0.7851  0.0361
 2710SOL    HW1 8708   8.451   0.590   4.670 -0.1535  0.3893  0.1722
 2710SOL    HW2 8709   8.490   0.491   4.778  0.2117 -2.0034 -2.0377
 2711SOL     OW 8710   3.727   9.199   0.167  0.2716 -0.1563 -0.2700
 2711SOL    HW1 8711   3.766   9.283   0.194  1.0761  0.0507 -1.9198
 2711SOL    HW2 8712   3.641   9.198   0.208  1.1096  0.4312  1.6230
 2712SOL     OW 8713   7.324   4.668   3.303 -0.3466  0.3029  0.0042
 2712SOL    HW1 8714   7.284   4.729   3.241  0.1648  1.5507  0.8686
 2712SOL    HW2 8715   7.336   4.719   3.383  0.1902 -0.9086  0.7267
 2713SOL     OW 8716   0.128   2.671   4.605  0.4556 -0.8460  0.4466
 2713SOL    HW1 8717   0.133   2.688   4.699  1.6419  0.3305  0.2089
 2713SOL    HW2 8718   0.066   2.736   4.572  1.1365 -0.2853  0.2381
 2714SOL     OW 8719   7.411   9.024   9.744 -0.9037  0.5812 -0.3130
 2714SOL    HW1 8720   7.435   9.110   9.779  2.7927 -0.1160 -0.7672
 2714SOL    HW2 8721   7.365   9.044   9.662 -1.5464  2.0884  0.3721
 2715SOL     OW 8722   8.185   5.952   2.976  0.2839  0.5314 -0.3416
 2715SOL    HW1 8723   8.274   5.964   3.009 -0.2350  0.1141  1.2856
 2715SOL    HW2 8724   8.129   5.993   3.042 -0.8843 -1.5233  0.0297
 2716SOL     OW 8725   6.512   7.660   2.179  0.0030  0.1455 -0.9389
 2716SOL    HW1 8726   6.523   7.755   2.181 -1.8144  0.4606 -2.2458
 2716SOL    HW2 8727   6.519   7.637   2.086  2.6238 -1.3728 -0.4520
 2717SOL     OW 8728   9.507   8.499   3.825  0.7475  0.0118 -0.7839
 2717SOL    HW1 8729   9.523   8.454   3.908 -1.1520 -1.0028 -0.9250
 2717SOL    HW2 8730   9.561   8.453   3.761  0.6495 -0.5288 -0.4790
 2718SOL     OW 8731   9.788   9.532   8.355 -0.1907 -0.7432 -0.2521
 2718SOL    HW1 8732   9.844   9.456   8.343 -0.1426 -0.7108 -0.2316
 2718SOL    HW2 8733   9.800   9.556   8.447 -0.3649 -0.8358 -0.2060
 2719SOL     OW 8734   4.274   3.740   1.587  0.0853  0.0679 -0.9383
 2719SOL    HW1 8735   4.360   3.719   1.623  0.1211 -0.7918 -1.5033
 2719SOL    HW2 8736   4.293   3.793   1.510 -0.0311  3.4376  1.1391
 2720SOL     OW 8737   6.287   1.454   4.139  0.0568  0.1915  0.5697
 2720SOL    HW1 8738   6.272   1.403   4.059  1.8928 -0.9155  0.8719
 2720SOL    HW2 8739   6.354   1.405   4.186  0.7367  2.0852  1.6580
 2721SOL     OW 8740   2.387   8.207   1.689  0.4444 -0.4022  0.3604
 2721SOL    HW1 8741   2.401   8.222   1.595 -0.7231 -1.4702 -0.0172
 2721SOL    HW2 8742   2.467   8.239   1.730  0.9047  0.2707 -0.9750
 2722SOL     OW 8743   2.012   6.824   3.675 -0.2854 -0.4953  0.2136
 2722SOL    HW1 8744   2.104   6.809   3.697 -0.0045 -0.5069 -0.9067
 2722SOL    HW2 8745   1.970   6.739   3.691 -0.4133 -0.1363  2.0797
 2723SOL     OW 8746   1.267   0.541   0.989 -0.0445  0.2966  0.1893
 2723SOL    HW1 8747   1.273   0.507   0.899 -1.8908 -0.8412  0.4541
 2723SOL    HW2 8748   1.352   0.583   1.004  1.3553 -1.8663 -1.1184
 2724SOL     OW 8749   7.094   4.274   3.493 -0.7260  0.1985 -0.3517
 2724SOL    HW1 8750   7.013   4.230   3.516 -1.3784  1.2203 -0.6363
 2724SOL    HW2 8751   7.067   4.350   3.441  0.4196  0.4339 -0.6455
 2725SOL     OW 8752   5.908   2.889   4.980  0.6176 -0.0693 -0.1104
 2725SOL    HW1 8753   5.868   2.935   4.905  0.2500  0.3580  0.3413
 2725SOL    HW2 8754   5.871   2.932   5.057  2.3206  0.6680  0.3452
 2726SOL     OW 8755   7.275   9.617   5.812  0.3020  0.7773  0.0475
 2726SOL    HW1 8756   7.365   9.587   5.822  0.1581  0.7172  1.3852
 2726SOL    HW2 8757   7.282   9.713   5.810  0.3036  0.8297  1.5494
 2727SOL     OW 8758   5.575   1.938   1.437  0.0208 -0.1997  0.3009
 2727SOL    HW1 8759   5.658   1.952   1.391 -0.7686  1.3235 -0.7534
 2727SOL    HW2 8760   5.512   1.917   1.368 -0.8478  0.5341  0.8481
 2728SOL     OW 8761   9.526   7.583   2.707 -0.0750  0.3645  0.3681
 2728SOL    HW1 8762   9.562   7.646   2.644  1.4263 -0.9441 -0.1332
 2728SOL    HW2 8763   9.592   7.579   2.777  0.6387 -1.8038 -0.3794
 2729SOL     OW 8764   4.286   3.959   7.983 -0.1707 -0.7122 -0.6835
 2729SOL    HW1 8765   4.243   3.953   8.068 -1.6433  1.9583 -1.1520
 2729SOL    HW2 8766   4.368   4.005   8.001 -0.8464  0.5693 -0.7709
 2730SOL     OW 8767   7.480   4.617   8.326 -0.5088 -0.1612  0.0214
 2730SOL    HW1 8768   7.423   4.546   8.353  0.8088 -1.1510  0.3010
 2730SOL    HW2 8769   7.567   4.577   8.321  0.4724  1.6745  1.3038
 2731SOL     OW 8770   9.455   1.832   5.579 -0.6856 -0.1780 -0.2006
 2731SOL    HW1 8771   9.533   1.812   5.631  0.9268  1.6147 -1.7494
 2731SOL    HW2 8772   9.386   1.843   5.644  0.9536  0.7889  1.4964
 2732SOL     OW 8773   4.398   4.118   2.317  0.3789 -0.2770  0.6164
 2732SOL    HW1 8774   4.383   4.024   2.321  0.8306 -0.4028 -0.3415
 2732SOL    HW2 8775   4.485   4.131   2.356  0.4773 -0.3054  0.4093
 2733SOL     OW 8776   4.506   3.102   2.288  0.1796 -0.2802 -0.7075
 2733SOL    HW1 8777   4.494   3.007   2.291 -2.4098 -0.0684 -1.8076
 2733SOL    HW2 8778   4.515   3.128   2.380  2.3704 -1.6924 -0.4772
 2734SOL     OW 8779   2.597   4.964   5.809 -0.0212  0.3151 -0.1272
 2734SOL    HW1 8780   2.590   5.041   5.866  0.8865  0.4433 -0.1673
 2734SOL    HW2 8781   2.532   4.979   5.741 -0.3248  0.7222  0.2428
 2735SOL     OW 8782   2.461   9.987   7.316  0.1562  0.1005 -0.3029
 2735SOL    HW1 8783   2.547  10.027   7.303 -0.2565  0.5694 -1.8039
 2735SOL    HW2 8784   2.473   9.895   7.292  0.4291 -0.0271  0.3123
 2736SOL     OW 8785   8.069   5.747   1.276 -0.6887  0.5210  0.4299
 2736SOL    HW1 8786   8.111   5.829   1.303 -0.4841  0.2670  0.8959
 2736SOL    HW2 8787   8.141   5.685   1.264 -0.7680  0.6159 -0.7127
 2737SOL     OW 8788   9.090   4.011   4.886 -0.9233  0.0507  0.0661
 2737SOL    HW1 8789   9.083   3.916   4.881 -0.5035  0.0559 -0.8453
 2737SOL    HW2 8790   9.074   4.041   4.797  0.2881  0.7295  0.0528
 2738SOL     OW 8791   9.147   1.447   2.606 -0.8739 -0.2670  0.2276
 2738SOL    HW1 8792   9.123   1.486   2.690 -1.6006 -2.5828  1.1669
 2738SOL    HW2 8793   9.238   1.419   2.618 -0.9115 -0.4120  0.1866
 2739SOL     OW 8794   9.736   8.543   7.089 -0.5450 -0.0241 -0.0578
 2739SOL    HW1 8795   9.825   8.516   7.110  0.1535  2.5130  0.5827
 2739SOL    HW2 8796   9.716   8.612   7.152 -3.2689 -0.9690  0.2754
 2740SOL     OW 8797   3.067   3.498   4.414 -0.1234 -0.1541 -0.3326
 2740SOL    HW1 8798   3.108   3.485   4.329 -0.3770 -2.4704 -0.1751
 2740SOL    HW2 8799   2.974   3.477   4.399 -0.5958  1.4563  0.0998
 2741SOL     OW 8800   3.490   8.545   5.999 -0.2110  0.1888  0.1080
 2741SOL    HW1 8801   3.443   8.475   5.954 -2.0006  2.0114 -1.0418
 2741SOL    HW2 8802   3.435   8.566   6.075  0.4685  0.1522  0.6208
 2742SOL     OW 8803   8.488   3.449   1.391 -0.5563  0.0914 -0.2160
 2742SOL    HW1 8804   8.461   3.410   1.308  1.2092 -0.8567 -0.3847
 2742SOL    HW2 8805   8.533   3.530   1.366 -0.7337  0.2161 -0.1317
 2743SOL     OW 8806   1.191   3.980   1.731 -0.5389  0.1106  0.5976
 2743SOL    HW1 8807   1.108   4.017   1.762 -2.2160 -2.3917 -0.5044
 2743SOL    HW2 8808   1.189   3.993   1.636  0.6192  0.5188  0.6159
 2744SOL     OW 8809   1.319   3.610   7.355  0.5391  0.0100 -0.0577
 2744SOL    HW1 8810   1.233   3.618   7.312  1.0475  2.6863 -0.7565
 2744SOL    HW2 8811   1.310   3.659   7.436  0.1238 -3.5670  2.2778
 2745SOL     OW 8812   7.320   3.915   8.163 -0.8236  0.0079  0.4178
 2745SOL    HW1 8813   7.225   3.908   8.174 -1.0546  1.8742 -0.1923
 2745SOL    HW2 8814   7.347   3.826   8.137 -2.4810 -0.3872 -0.0798
 2746SOL     OW 8815   1.277   4.176   9.476  0.5999 -0.2580 -0.3671
 2746SOL    HW1 8816   1.337   4.250   9.480 -0.8088  0.8886 -0.0494
 2746SOL    HW2 8817   1.243   4.177   9.387 -0.2033  0.1260 -0.0636
 2747SOL     OW 8818   0.114   8.165   3.520  0.0496 -0.3855 -0.3067
 2747SOL    HW1 8819   0.184   8.178   3.584 -0.2042  0.4341 -0.1805
 2747SOL    HW2 8820   0.117   8.071   3.499  2.0134 -0.1558 -1.2697
 2748SOL     OW 8821   9.672   8.450   0.459  0.1582  0.0527  0.6234
 2748SOL    HW1 8822   9.678   8.356   0.478  0.3903 -0.0853 -0.0862
 2748SOL    HW2 8823   9.756   8.472   0.420 -0.3286  0.2832 -0.3263
 2749SOL     OW 8824   9.637   5.474   8.318 -0.0171  0.2067 -0.2201
 2749SOL    HW1 8825   9.645   5.532   8.242 -1.2151  0.5984 -0.0794
 2749SOL    HW2 8826   9.698   5.508   8.382 -0.5452  1.2022 -0.2227
 2750SOL     OW 8827   2.661   6.127   6.714  0.2365 -0.3470 -0.0475
 2750SOL    HW1 8828   2.581   6.100   6.760  0.5810 -1.5652 -0.1425
 2750SOL    HW2 8829   2.653   6.222   6.707 -0.8146 -0.3650  0.6758
 2751SOL     OW 8830   3.922   4.954   6.826  0.0443 -0.3709 -0.1125
 2751SOL    HW1 8831   3.983   4.941   6.753  0.1141 -0.0704 -0.1080
 2751SOL    HW2 8832   3.976   4.989   6.897 -0.4981  2.1200 -0.8225
 2752SOL     OW 8833   1.061   8.583   7.397  0.2694 -0.6944 -0.3414
 2752SOL    HW1 8834   0.972   8.547   7.392  0.3979 -0.9863 -0.5664
 2752SOL    HW2 8835   1.072   8.606   7.490 -1.1170  2.1401 -0.7646
 2753SOL     OW 8836   7.918   0.376   0.400 -0.5543 -0.4615  0.8363
 2753SOL    HW1 8837   7.829   0.391   0.432 -1.2077  0.1494 -1.1041
 2753SOL    HW2 8838   7.910   0.297   0.346 -0.0904 -0.0123  0.0965
 2754SOL     OW 8839   3.168   9.963   8.119 -0.1470  0.4204  0.0448
 2754SOL    HW1 8840   3.094   9.924   8.074 -0.7601 -0.0732  1.4093
 2754SOL    HW2 8841   3.218   9.888   8.153  0.4494  0.7689 -0.0358
 2755SOL     OW 8842   5.400   0.600   6.145 -0.0660  0.5204  0.4128
 2755SOL    HW1 8843   5.433   0.514   6.170 -1.6455 -0.0366  0.7177
 2755SOL    HW2 8844   5.322   0.580   6.093 -0.5962  1.7719  0.7088
 2756SOL     OW 8845   6.701   9.001   8.748  0.8378  0.3291  0.0716
 2756SOL    HW1 8846   6.608   9.024   8.759  1.0413  0.6953  1.1099
 2756SOL    HW2 8847   6.714   8.928   8.809  1.6470  1.4425  1.2854
 2757SOL     OW 8848   1.916   3.096   1.840  0.0632 -0.1198 -0.1928
 2757SOL    HW1 8849   1.873   3.181   1.852  0.1659 -0.3301  1.9310
 2757SOL    HW2 8850   1.897   3.073   1.749 -2.3084  0.8845 -0.0200
 2758SOL     OW 8851   5.665   7.719   6.894 -0.5937  0.1068 -0.0207
 2758SOL    HW1 8852   5.674   7.709   6.989 -3.0706  1.0947  0.3914
 2758SOL    HW2 8853   5.624   7.804   6.882 -0.2190  0.0632 -2.0078
 2759SOL     OW 8854   6.514   9.056   3.255 -0.5580 -0.0224  0.3146
 2759SOL    HW1 8855   6.495   8.963   3.245  0.0423  0.0259 -1.6337
 2759SOL    HW2 8856   6.610   9.060   3.260 -0.3867  0.6249 -2.1578
 2760SOL     OW 8857   4.645   7.152   2.297  0.3830 -0.3285 -0.2272
 2760SOL    HW1 8858   4.625   7.099   2.374 -1.0052  0.2138 -0.1891
 2760SOL    HW2 8859   4.682   7.232   2.333  1.7407 -0.9103 -0.2511
 2761SOL     OW 8860   2.041   0.379   7.322 -0.2823 -0.2070 -0.6466
 2761SOL    HW1 8861   2.099   0.351   7.393 -0.9401 -3.2411 -1.1934
 2761SOL    HW2 8862   1.969   0.424   7.365  1.5581  2.2041  0.1626
 2762SOL     OW 8863   4.691   7.496   9.690  0.0973 -0.2692 -0.1189
 2762SOL    HW1 8864   4.747   7.537   9.756 -1.1673 -1.3854  1.7328
 2762SOL    HW2 8865   4.712   7.403   9.695  0.0939 -0.3695 -1.4623
 2763SOL     OW 8866   1.548   2.576   0.683  0.4067  0.2252 -0.3734
 2763SOL    HW1 8867   1.526   2.592   0.591  2.2015  2.2516 -0.5440
 2763SOL    HW2 8868   1.513   2.653   0.729  0.3188 -0.3354  0.5220
 2764SOL     OW 8869   5.224   0.882   3.914 -0.0938  0.1228  0.2555
 2764SOL    HW1 8870   5.188   0.818   3.853 -0.7805  1.0914 -0.3651
 2764SOL    HW2 8871   5.271   0.944   3.859 -1.7254  1.6875  0.5520
 2765SOL     OW 8872   8.209   6.042   0.929 -0.0501 -0.0830 -0.1524
 2765SOL    HW1 8873   8.273   5.999   0.871 -0.3369 -0.7609  0.0224
 2765SOL    HW2 8874   8.244   6.130   0.942  0.0191  0.0877 -1.3584
 2766SOL     OW 8875   7.095   4.412   7.963 -0.5933  0.4950  0.1956
 2766SOL    HW1 8876   7.113   4.338   8.020  0.5605  2.5180  2.6585
 2766SOL    HW2 8877   7.004   4.434   7.979 -0.0933  1.4843  1.9195
 2767SOL     OW 8878   2.650   1.524   2.228  0.2625  0.2368 -0.0624
 2767SOL    HW1 8879   2.633   1.503   2.320 -0.7259 -0.0346 -0.2955
 2767SOL    HW2 8880   2.730   1.577   2.230 -0.1765  0.9029  1.0293
 2768SOL     OW 8881   2.456   4.634   5.093  0.8992 -0.2904 -0.5060
 2768SOL    HW1 8882   2.451   4.570   5.164 -0.8802 -1.7653 -1.8678
 2768SOL    HW2 8883   2.391   4.701   5.116  0.3057 -0.7791 -0.7555
 2769SOL     OW 8884   5.990   1.449   1.262 -0.6677 -0.1881 -0.1780
 2769SOL    HW1 8885   5.903   1.428   1.297 -0.4480 -1.7108 -0.4755
 2769SOL    HW2 8886   5.999   1.392   1.186  0.1898  0.7063 -0.7640
 2770SOL     OW 8887   8.785   3.102   1.578 -0.2481  0.0309  0.6801
 2770SOL    HW1 8888   8.753   3.183   1.537 -0.7198 -0.5480 -0.1207
 2770SOL    HW2 8889   8.821   3.051   1.505  0.6687 -0.2020  1.2790
 2771SOL     OW 8890   0.961   2.272   9.576  0.0014 -0.0162 -0.0236
 2771SOL    HW1 8891   0.981   2.178   9.578  0.9626 -0.0502 -3.8971
 2771SOL    HW2 8892   1.047   2.315   9.582 -0.1734  0.4785 -0.9298
 2772SOL     OW 8893   9.066   5.291   7.514 -0.3566  0.3314 -0.5455
 2772SOL    HW1 8894   9.004   5.343   7.565 -0.0015  0.9756 -0.7606
 2772SOL    HW2 8895   9.094   5.222   7.575 -1.7711 -0.3702 -0.6629
 2773SOL     OW 8896   7.204   7.764   6.926  0.5729  0.4692  0.4437
 2773SOL    HW1 8897   7.279   7.711   6.898  1.0754  2.1217 -1.5463
 2773SOL    HW2 8898   7.130   7.704   6.920  1.6341 -1.1519  2.2880
 2774SOL     OW 8899   5.913   7.812   9.353  0.1333 -0.2638 -0.0316
 2774SOL    HW1 8900   5.966   7.877   9.400  0.8569 -0.4006 -0.6360
 2774SOL    HW2 8901   5.976   7.765   9.298 -0.5090 -0.9353 -0.2036
 2775SOL     OW 8902   4.659   4.845   5.498 -0.5189 -0.4480  0.0394
 2775SOL    HW1 8903   4.740   4.794   5.501 -0.1565  0.1680  2.0594
 2775SOL    HW2 8904   4.688   4.936   5.493 -1.0852 -0.2462  0.3314
 2776SOL     OW 8905   9.789   1.980   9.344 -0.0809  0.4755  0.1012
 2776SOL    HW1 8906   9.798   2.073   9.324  1.0987  0.6578  1.3082
 2776SOL    HW2 8907   9.697   1.960   9.327 -0.1052  1.5897 -1.1860
 2777SOL     OW 8908   6.206   7.097   2.392  0.3270 -0.8580  0.6441
 2777SOL    HW1 8909   6.195   7.171   2.332 -0.0192 -1.6521 -0.3111
 2777SOL    HW2 8910   6.116   7.070   2.413  0.4152  0.0022  2.3227
 2778SOL     OW 8911   3.120   4.535   5.692  0.4132 -0.0612 -0.2007
 2778SOL    HW1 8912   3.177   4.458   5.699 -0.2684 -0.7486 -1.7627
 2778SOL    HW2 8913   3.179   4.608   5.675  0.9360 -0.5026 -0.2969
 2779SOL     OW 8914   8.724   4.074   3.615 -0.5002  0.0620 -0.3430
 2779SOL    HW1 8915   8.659   4.145   3.614  0.5665  1.0695 -1.8026
 2779SOL    HW2 8916   8.799   4.112   3.661 -0.6005 -0.8119  0.5817
 2780SOL     OW 8917   3.622   3.914   4.258 -0.2708  0.3317 -0.0137
 2780SOL    HW1 8918   3.620   3.954   4.171 -1.9416 -1.0192 -0.6486
 2780SOL    HW2 8919   3.642   3.822   4.242 -0.0496  0.1700  1.0909
 2781SOL     OW 8920   6.139   4.541   2.430  0.6113  0.2853  0.2721
 2781SOL    HW1 8921   6.073   4.600   2.394  1.0474  0.3609 -0.4144
 2781SOL    HW2 8922   6.091   4.487   2.493 -0.2407 -0.0665 -0.6492
 2782SOL     OW 8923   2.088   6.234   6.379  0.1345  0.2157  0.1547
 2782SOL    HW1 8924   2.073   6.328   6.364 -1.9118 -0.1380 -0.4320
 2782SOL    HW2 8925   2.150   6.230   6.452 -0.5993  2.0259  0.9305
 2783SOL     OW 8926   4.402   0.369   1.718 -0.5506 -0.4946  0.1033
 2783SOL    HW1 8927   4.395   0.349   1.812  1.0469 -1.4286  0.0662
 2783SOL    HW2 8928   4.399   0.284   1.675  0.7477 -0.2561 -0.5192
 2784SOL     OW 8929   6.487   9.174   3.840  0.0230  0.0559 -0.2811
 2784SOL    HW1 8930   6.509   9.178   3.747 -1.8709  0.9866 -0.7520
 2784SOL    HW2 8931   6.550   9.233   3.882 -0.5885  1.5112 -1.3349
 2785SOL     OW 8932   3.543   5.329   6.920 -0.3972 -0.2299  0.2763
 2785SOL    HW1 8933   3.629   5.293   6.900 -0.3366  0.3191 -0.4964
 2785SOL    HW2 8934   3.484   5.253   6.915 -0.5000 -0.0818 -2.7450
 2786SOL     OW 8935   4.515   6.635   6.317  0.4421 -0.1986 -0.0649
 2786SOL    HW1 8936   4.428   6.662   6.286  1.0962  1.0105 -0.9351
 2786SOL    HW2 8937   4.519   6.541   6.296  0.4364  0.3260 -2.8171
 2787SOL     OW 8938   7.277   4.264   0.400  0.2109  0.0552  0.4262
 2787SOL    HW1 8939   7.243   4.273   0.311  2.0535 -1.8515 -0.5639
 2787SOL    HW2 8940   7.349   4.327   0.405 -1.0737  1.5268  1.2864
 2788SOL     OW 8941   3.745   1.847   6.180 -0.4680  0.7544 -0.9092
 2788SOL    HW1 8942   3.767   1.772   6.235 -0.8868 -0.5286 -2.3956
 2788SOL    HW2 8943   3.762   1.923   6.234  1.9514 -0.3318 -0.0161
 2789SOL     OW 8944   1.985   8.801   5.602  0.1981 -0.0079 -0.2101
 2789SOL    HW1 8945   2.002   8.873   5.662 -1.4632  1.4832 -1.4261
 2789SOL    HW2 8946   1.941   8.735   5.655  1.5154 -0.0711  0.8656
 2790SOL     OW 8947   5.036   8.634   4.044  0.0173 -0.4777  0.2428
 2790SOL    HW1 8948   5.090   8.561   4.016 -1.2838 -0.8318 -1.5053
 2790SOL    HW2 8949   4.983   8.599   4.115 -0.4587 -1.1882 -0.4538
 2791SOL     OW 8950   8.689   0.137   3.506  0.5624  0.2844 -0.2292
 2791SOL    HW1 8951   8.670   0.195   3.432 -0.0522 -1.0241 -1.1275
 2791SOL    HW2 8952   8.636   0.172   3.578  1.4003  1.7567 -0.2736
 2792SOL     OW 8953   2.236   8.935   7.675  0.5553  1.0825 -0.3766
 2792SOL    HW1 8954   2.275   9.022   7.672 -0.6251  1.6753  0.3696
 2792SOL    HW2 8955   2.143   8.951   7.689  0.4593 -0.3059  0.9274
 2793SOL     OW 8956   5.299   4.276   4.460  0.8229  0.1765  0.6175
 2793SOL    HW1 8957   5.352   4.257   4.383  2.0782  0.4485  1.3837
 2793SOL    HW2 8958   5.211   4.247   4.437  1.2844 -0.2190 -0.7174
 2794SOL     OW 8959   6.752   4.907   2.828 -0.0132 -0.3245  0.2715
 2794SOL    HW1 8960   6.670   4.936   2.789  0.7023  0.4116 -0.7724
 2794SOL    HW2 8961   6.782   4.836   2.771  0.2972 -0.2751  0.3682
 2795SOL     OW 8962   3.862   1.375   3.058 -0.3642  0.1959 -0.5363
 2795SOL    HW1 8963   3.781   1.345   3.017 -1.2498  0.8139  0.6831
 2795SOL    HW2 8964   3.930   1.360   2.992 -1.5080 -0.0796 -1.6832
 2796SOL     OW 8965   8.513   8.863   3.133  0.0617 -0.0838 -0.2097
 2796SOL    HW1 8966   8.607   8.880   3.129 -0.0143  0.5050  0.3585
 2796SOL    HW2 8967   8.503   8.803   3.207 -0.0110 -0.1198 -0.2496
 2797SOL     OW 8968   7.415   9.268   3.948  0.4594  0.3369 -0.1209
 2797SOL    HW1 8969   7.368   9.351   3.941 -1.4145 -0.6556 -0.0043
 2797SOL    HW2 8970   7.492   9.288   4.002  1.2320  2.4233 -1.8620
 2798SOL     OW 8971   9.877   8.027   4.159 -0.1258  0.3072  0.3150
 2798SOL    HW1 8972   9.927   7.986   4.089  0.0674  0.0883  0.5776
 2798SOL    HW2 8973   9.786   8.026   4.128 -0.1116 -0.2437  0.2864
 2799SOL     OW 8974   7.811   1.214   8.490  0.3384 -0.0817 -0.1347
 2799SOL    HW1 8975   7.792   1.185   8.579 -0.4035  1.6884  0.3343
 2799SOL    HW2 8976   7.736   1.185   8.439 -0.0076  0.2909  0.1566
 2800SOL     OW 8977   4.696   1.284   9.644  0.0909 -0.1532 -0.1247
 2800SOL    HW1 8978   4.695   1.378   9.624  1.0635 -0.1749 -0.3034
 2800SOL    HW2 8979   4.693   1.281   9.740  1.3658  0.1009 -0.0649
 2801SOL     OW 8980   7.455   7.058   3.376  0.0034 -0.6478  0.1740
 2801SOL    HW1 8981   7.411   7.126   3.325  0.5770 -0.5132 -0.1596
 2801SOL    HW2 8982   7.463   6.984   3.316 -1.2340 -1.2745  0.7494
 2802SOL     OW 8983   7.548   0.762   4.376 -0.2960 -0.3744  0.1004
 2802SOL    HW1 8984   7.637   0.795   4.360 -1.3135  3.0573  0.6578
 2802SOL    HW2 8985   7.501   0.782   4.295 -0.9785 -0.4944  0.4655
 2803SOL     OW 8986   1.118   9.290   2.272  0.2323  0.1833  0.0537
 2803SOL    HW1 8987   1.033   9.246   2.264  0.5092 -0.3911  0.2570
 2803SOL    HW2 8988   1.116   9.358   2.204 -0.4457  0.2702  0.1523
 2804SOL     OW 8989   7.340   2.695   7.387 -0.2812 -0.1515 -0.1434
 2804SOL    HW1 8990   7.285   2.633   7.339 -0.6218  1.1822 -1.5504
 2804SOL    HW2 8991   7.287   2.775   7.392  0.6131  0.4131  0.5663
 2805SOL     OW 8992   0.557   9.614   2.285 -0.5617 -0.0073 -0.1238
 2805SOL    HW1 8993   0.570   9.686   2.224 -0.7887 -1.7943 -2.4498
 2805SOL    HW2 8994   0.464   9.620   2.310 -0.5796  0.4940 -0.3141
 2806SOL     OW 8995   0.808   5.373   3.296  0.0651  0.5353  0.2340
 2806SOL    HW1 8996   0.831   5.455   3.253 -1.2508  0.5004 -0.5933
 2806SOL    HW2 8997   0.889   5.344   3.338  1.3766  0.7017 -2.0378
 2807SOL     OW 8998   4.511   9.408   5.157  0.5182  0.5233 -0.2950
 2807SOL    HW1 8999   4.430   9.459   5.168  0.8635  1.6534 -2.4404
 2807SOL    HW2 9000   4.549   9.404   5.245 -2.9411 -2.0767  1.3174
 2808SOL     OW 9001   5.194   5.568   9.081 -0.0563  0.0040 -0.2513
 2808SOL    HW1 9002   5.156   5.544   8.996  0.2996  1.2139 -0.7717
 2808SOL    HW2 9003   5.254   5.640   9.061 -1.0152  1.2673  1.2108
 2809SOL     OW 9004   3.245   5.492   3.823  0.1701 -0.0699  0.2002
 2809SOL    HW1 9005   3.288   5.560   3.771 -2.6956  1.3067 -0.5847
 2809SOL    HW2 9006   3.183   5.451   3.762  0.0345 -1.6481  1.3480
 2810SOL     OW 9007   3.708   3.232   3.504 -0.3482 -0.1073  0.1872
 2810SOL    HW1 9008   3.658   3.239   3.423  0.5604  1.7322 -0.2525
 2810SOL    HW2 9009   3.758   3.151   3.494 -0.1296  0.1722 -1.1588
 2811SOL     OW 9010   1.070   8.797   8.753  0.2274 -0.1233 -0.1076
 2811SOL    HW1 9011   1.069   8.889   8.728  2.2073  0.2221  0.8241
 2811SOL    HW2 9012   1.145   8.760   8.707  0.2493 -0.9304  0.5394
 2812SOL     OW 9013   1.840   0.345   0.312  0.2081 -0.5285  0.2358
 2812SOL    HW1 9014   1.816   0.286   0.384  1.2139 -0.0587  0.9909
 2812SOL    HW2 9015   1.935   0.354   0.320  0.0972  1.1286  0.0948
 2813SOL     OW 9016   7.656   3.695   6.204  0.3750  0.1109  0.0594
 2813SOL    HW1 9017   7.660   3.783   6.166  1.3095 -0.1888 -0.5788
 2813SOL    HW2 9018   7.564   3.672   6.201  0.3385  0.3385 -1.5365
 2814SOL     OW 9019   9.976   2.094   0.817  0.2565  0.6837 -0.0075
 2814SOL    HW1 9020  10.010   2.051   0.895 -0.3736 -1.2601 -0.7408
 2814SOL    HW2 9021   9.883   2.070   0.815 -0.1582  2.2092 -0.4049
 2815SOL     OW 9022   9.222   3.710   2.789  0.2717 -0.0307  0.0589
 2815SOL    HW1 9023   9.171   3.654   2.849  1.2300 -0.3029  0.6367
 2815SOL    HW2 9024   9.174   3.793   2.789 -0.4894 -0.4544  0.1472
 2816SOL     OW 9025   5.170   7.339   5.987 -0.1595 -0.6868  0.1793
 2816SOL    HW1 9026   5.078   7.353   5.961 -0.0376 -0.4004 -0.1108
 2816SOL    HW2 9027   5.167   7.331   6.082 -0.2662  1.2863  0.3860
 2817SOL     OW 9028   9.133   6.202   6.169  0.2693 -0.2961 -0.3137
 2817SOL    HW1 9029   9.206   6.241   6.120 -0.0963  0.7264 -0.0862
 2817SOL    HW2 9030   9.157   6.215   6.261  1.0099 -2.3059 -0.1844
 2818SOL     OW 9031   9.776   8.977   4.878  0.2021 -0.1350 -0.1489
 2818SOL    HW1 9032   9.840   9.047   4.891  1.5334 -1.0870 -1.2311
 2818SOL    HW2 9033   9.798   8.911   4.943  0.1608 -0.3554 -0.3553
 2819SOL     OW 9034   8.379   5.598   2.046  0.2761  0.0153 -0.3320
 2819SOL    HW1 9035   8.319   5.542   2.094 -0.7749  1.2809 -0.1344
 2819SOL    HW2 9036   8.370   5.684   2.086  2.9666  0.0550  0.3611
 2820SOL     OW 9037   4.810   2.055   8.826  0.1929 -0.0941  0.1364
 2820SOL    HW1 9038   4.755   2.013   8.892 -0.4556 -1.9305 -1.4727
 2820SOL    HW2 9039   4.749   2.083   8.758  1.1279 -1.5307 -1.3550
 2821SOL     OW 9040   3.377   5.388   5.613 -0.3344  0.0585 -0.1376
 2821SOL    HW1 9041   3.433   5.338   5.672  1.7164  1.9399 -0.3222
 2821SOL    HW2 9042   3.372   5.335   5.533 -0.5369 -1.0801  0.6188
 2822SOL     OW 9043   1.871   8.925   8.653 -0.5594 -0.6371 -0.0926
 2822SOL    HW1 9044   1.908   8.864   8.589  2.5270  1.5449 -0.6332
 2822SOL    HW2 9045   1.797   8.965   8.607  0.8485  0.0023 -1.9283
 2823SOL     OW 9046   2.691   1.402   4.507 -0.0166 -0.4101  0.0941
 2823SOL    HW1 9047   2.741   1.329   4.469  0.5606 -1.0704  2.0153
 2823SOL    HW2 9048   2.600   1.370   4.506  0.0745 -0.6731 -0.1374
 2824SOL     OW 9049   4.708   5.721   6.192  0.6900  0.6155  0.9374
 2824SOL    HW1 9050   4.707   5.759   6.104  0.6362 -0.0073  0.6621
 2824SOL    HW2 9051   4.748   5.635   6.180 -1.2115 -0.3369  1.1665
 2825SOL     OW 9052   0.401   8.397   9.396 -0.2918 -0.2002  0.0456
 2825SOL    HW1 9053   0.438   8.409   9.483  0.5338  0.2700 -0.3557
 2825SOL    HW2 9054   0.443   8.318   9.362  1.2397  0.9390 -0.8374
 2826SOL     OW 9055   6.335   6.461   6.513 -0.3635 -0.3376 -0.0518
 2826SOL    HW1 9056   6.245   6.434   6.532 -0.6655  0.6298 -0.0816
 2826SOL    HW2 9057   6.358   6.411   6.435  1.0468 -4.7077  2.7989
 2827SOL     OW 9058   4.163   8.251   1.295 -0.1142 -0.9799  0.0154
 2827SOL    HW1 9059   4.075   8.219   1.275 -0.2258  0.2283 -1.5829
 2827SOL    HW2 9060   4.217   8.217   1.224  0.2598  0.1857 -0.2720
 2828SOL     OW 9061   8.112   5.901   7.582  0.6100  0.3280 -0.3335
 2828SOL    HW1 9062   8.078   5.949   7.506 -0.7122  0.3483  0.2501
 2828SOL    HW2 9063   8.049   5.919   7.652  1.3325 -0.4124  0.5277
 2829SOL     OW 9064   9.801   8.320   6.168  0.2717  1.0560  0.2066
 2829SOL    HW1 9065   9.753   8.286   6.244 -1.9704  1.2380 -1.0153
 2829SOL    HW2 9066   9.735   8.369   6.118  1.3755  0.1360 -2.3612
 2830SOL     OW 9067   1.852   5.629   3.724  0.0400  1.2710  0.1746
 2830SOL    HW1 9068   1.776   5.636   3.665 -0.2256  1.2902  0.5172
 2830SOL    HW2 9069   1.884   5.539   3.710  0.2000  1.3918 -0.2630
 2831SOL     OW 9070   7.832   0.682   5.867 -0.1117 -0.0209  0.0212
 2831SOL    HW1 9071   7.809   0.603   5.818  0.4121  0.1051 -0.4377
 2831SOL    HW2 9072   7.782   0.675   5.948 -0.4406 -0.5853 -0.2222
 2832SOL     OW 9073   7.755   8.052   9.790  0.4575 -0.0511  0.5568
 2832SOL    HW1 9074   7.791   8.141   9.791  0.3433  0.0009  0.1361
 2832SOL    HW2 9075   7.811   8.004   9.729  0.1049 -0.0931  0.2619
 2833SOL     OW 9076   6.550   9.180   1.650 -0.0208  0.2706 -0.1477
 2833SOL    HW1 9077   6.462   9.213   1.634  0.5153  1.2229 -1.2681
 2833SOL    HW2 9078   6.570   9.206   1.740 -0.0953  1.9690 -0.5842
 2834SOL     OW 9079   6.566   7.816   7.246  0.6583 -0.2533 -0.2349
 2834SOL    HW1 9080   6.483   7.844   7.286  0.1184 -2.9965  0.7456
 2834SOL    HW2 9081   6.627   7.810   7.320  1.1877 -0.1709 -0.6575
 2835SOL     OW 9082   8.735   6.504   1.698  0.1188  0.1112 -0.1512
 2835SOL    HW1 9083   8.808   6.559   1.728  0.2164  0.2806 -0.6984
 2835SOL    HW2 9084   8.669   6.513   1.767  1.3093 -1.5031  1.3016
 2836SOL     OW 9085   7.769   2.263   2.009 -0.0416 -0.4359 -0.1122
 2836SOL    HW1 9086   7.819   2.325   1.957  0.5382  0.8006  1.8001
 2836SOL    HW2 9087   7.742   2.195   1.947  1.6270  0.3047 -1.7346
 2837SOL     OW 9088   6.278   8.519   4.161  0.3056  0.2256 -0.0091
 2837SOL    HW1 9089   6.252   8.599   4.115 -0.6258  0.2530  0.5386
 2837SOL    HW2 9090   6.212   8.454   4.136  2.0851 -0.9656 -1.9562
 2838SOL     OW 9091   3.387   4.323   6.266 -0.0312  0.3680 -0.0922
 2838SOL    HW1 9092   3.448   4.394   6.287  0.7607  0.1310 -1.4940
 2838SOL    HW2 9093   3.321   4.362   6.210 -0.3096  0.2756  0.1679
 2839SOL     OW 9094   3.167   4.852   3.989 -0.0013  0.0056  0.4915
 2839SOL    HW1 9095   3.072   4.838   3.998  0.3276 -1.6596  1.9002
 2839SOL    HW2 9096   3.196   4.780   3.934  0.6390 -0.2671  1.1829
 2840SOL     OW 9097   5.160   7.049   3.404  0.5610  0.3260 -0.3437
 2840SOL    HW1 9098   5.140   7.139   3.378 -0.8427 -0.1583 -1.0002
 2840SOL    HW2 9099   5.075   7.009   3.421  1.2595 -0.1351  2.6276
 2841SOL     OW 9100   8.087   9.388   8.947  0.4640 -0.3992 -0.3418
 2841SOL    HW1 9101   8.139   9.368   8.868  1.3725 -0.7153  0.3235
 2841SOL    HW2 9102   8.127   9.466   8.983 -0.1057 -0.1159 -0.3120
 2842SOL     OW 9103   4.978   4.298   3.846  0.9233 -0.4224 -0.4045
 2842SOL    HW1 9104   4.920   4.353   3.794 -0.3341  1.7744  2.9948
 2842SOL    HW2 9105   5.055   4.353   3.864  1.4932 -1.2548 -0.1961
 2843SOL     OW 9106   6.045   9.530   1.608  0.2625 -0.0249  0.0683
 2843SOL    HW1 9107   5.952   9.548   1.620 -0.1927 -2.6396  0.9933
 2843SOL    HW2 9108   6.054   9.512   1.514 -0.0729  0.5492 -0.0796
 2844SOL     OW 9109   3.228   7.313   6.144 -0.0749 -0.3591 -0.2550
 2844SOL    HW1 9110   3.245   7.388   6.201  4.3380 -0.7815 -0.6241
 2844SOL    HW2 9111   3.168   7.257   6.193  2.5620 -0.1638  3.6414
 2845SOL     OW 9112   4.442   7.495   1.826 -0.1559  0.5942 -0.1918
 2845SOL    HW1 9113   4.528   7.471   1.792 -0.3185 -2.1512  1.0335
 2845SOL    HW2 9114   4.439   7.455   1.913 -2.2751  1.5422  0.2354
 2846SOL     OW 9115   6.838   5.052   9.157  0.3543  0.3653 -0.2337
 2846SOL    HW1 9116   6.833   5.018   9.068  1.2760 -0.1221 -0.1097
 2846SOL    HW2 9117   6.817   5.145   9.149 -1.8153 -0.1082 -0.6306
 2847SOL     OW 9118   6.804   1.139   7.687  0.1276 -0.8405 -0.7959
 2847SOL    HW1 9119   6.879   1.079   7.681  1.6010  0.8968 -0.7197
 2847SOL    HW2 9120   6.806   1.187   7.605 -0.5106 -0.3277 -0.5129
 2848SOL     OW 9121   8.814   9.290   4.152  0.6806  0.3441 -0.0601
 2848SOL    HW1 9122   8.745   9.334   4.201  0.1657 -1.4402  0.9182
 2848SOL    HW2 9123   8.799   9.315   4.060 -2.0521 -0.9529 -0.0457
 2849SOL     OW 9124   2.657   0.863   0.749 -0.3563 -0.3571 -0.2325
 2849SOL    HW1 9125   2.627   0.875   0.839 -0.4900  0.3780 -0.3665
 2849SOL    HW2 9126   2.576   0.864   0.697 -0.2101  0.2472 -0.4569
 2850SOL     OW 9127   3.057   9.462   8.023 -0.2724 -0.3104  0.3821
 2850SOL    HW1 9128   3.040   9.413   7.942 -0.4600 -1.8312  1.3191
 2850SOL    HW2 9129   3.133   9.516   8.002  1.6002 -2.8929  0.0452
 2851SOL     OW 9130   9.345   4.549   3.364  0.3758 -0.4525  0.0836
 2851SOL    HW1 9131   9.345   4.608   3.289  0.7880 -1.8369 -1.0638
 2851SOL    HW2 9132   9.430   4.564   3.406 -0.5544  1.5927  1.3832
 2852SOL     OW 9133   1.761   9.313   6.336  0.1347 -0.6359 -0.0724
 2852SOL    HW1 9134   1.678   9.277   6.304  0.5663 -0.0431 -2.0405
 2852SOL    HW2 9135   1.828   9.267   6.285  0.8576  0.5674 -0.2640
 2853SOL     OW 9136   2.123   4.666   0.117 -0.3716  0.0623  0.1331
 2853SOL    HW1 9137   2.153   4.756   0.127 -2.5920  1.1150 -1.6266
 2853SOL    HW2 9138   2.031   4.667   0.145 -0.9205 -1.2266 -1.3958
 2854SOL     OW 9139   4.019   1.289   7.940 -0.5666  0.2158  0.5115
 2854SOL    HW1 9140   4.018   1.214   7.881  0.5816  0.1294  0.5821
 2854SOL    HW2 9141   3.987   1.362   7.887 -0.4664 -0.0620  0.0642
 2855SOL     OW 9142   7.091   2.295   5.292  0.0947 -0.2045  0.8292
 2855SOL    HW1 9143   7.018   2.327   5.239 -1.8644 -1.5172  2.5815
 2855SOL    HW2 9144   7.080   2.338   5.377  2.6237  1.1425  0.5937
 2856SOL     OW 9145   3.937   0.428   1.265 -0.5503 -0.0827  0.2461
 2856SOL    HW1 9146   3.846   0.430   1.236 -0.1447 -0.7068 -1.1303
 2856SOL    HW2 9147   3.968   0.341   1.241  0.5398  0.2751  0.3085
 2857SOL     OW 9148   8.689   5.017   1.005  0.2691 -0.0434 -0.0508
 2857SOL    HW1 9149   8.746   5.084   0.967  0.0765  1.3167  1.8998
 2857SOL    HW2 9150   8.603   5.034   0.965  0.7318 -0.7707 -1.4286
 2858SOL     OW 9151   1.945   9.183   2.412  0.7652 -0.2210 -0.2808
 2858SOL    HW1 9152   1.868   9.155   2.362  0.0692  1.0120  0.0608
 2858SOL    HW2 9153   1.910   9.212   2.496  1.4609  1.2963 -0.4791
 2859SOL     OW 9154   9.229   0.448   6.035 -0.2579 -0.3059  0.4708
 2859SOL    HW1 9155   9.289   0.516   6.066  0.3465 -0.3781 -0.5143
 2859SOL    HW2 9156   9.286   0.374   6.013 -0.6834 -0.3337 -0.5819
 2860SOL     OW 9157   4.200   6.569   1.889 -0.0501 -0.1661  0.2771
 2860SOL    HW1 9158   4.209   6.609   1.802  0.1403 -1.7246 -0.4538
 2860SOL    HW2 9159   4.266   6.613   1.942 -1.3291  2.0610  0.1526
 2861SOL     OW 9160   8.636   6.424   8.396 -0.1378 -0.3294 -0.4542
 2861SOL    HW1 9161   8.542   6.443   8.398  0.1473  1.1620 -0.2631
 2861SOL    HW2 9162   8.652   6.375   8.477 -0.3189  1.7231  0.8881
 2862SOL     OW 9163   3.269   2.250   4.151  0.3470 -0.0054 -0.4374
 2862SOL    HW1 9164   3.362   2.242   4.173  0.3468  0.1809 -0.3676
 2862SOL    HW2 9165   3.260   2.338   4.115  0.3847 -0.3867 -1.3971
 2863SOL     OW 9166   1.269   1.476   9.243  0.1018 -0.4046 -0.5586
 2863SOL    HW1 9167   1.291   1.425   9.320 -1.9346 -0.1221  0.2550
 2863SOL    HW2 9168   1.294   1.420   9.169  2.4208 -0.5199  0.2408
 2864SOL     OW 9169   2.542   1.307   3.116  0.0248  0.6493 -0.1895
 2864SOL    HW1 9170   2.538   1.265   3.202  1.7812 -2.9915 -1.6769
 2864SOL    HW2 9171   2.452   1.301   3.082  0.0048 -1.0142  0.0922
 2865SOL     OW 9172   6.399   3.633   4.823  0.0313  0.6044 -0.4231
 2865SOL    HW1 9173   6.395   3.614   4.917 -0.1345 -1.1318 -0.7437
 2865SOL    HW2 9174   6.307   3.645   4.798 -0.0497 -0.3446 -0.6093
 2866SOL     OW 9175   0.399   4.166   8.292 -0.2455 -0.3399  0.2566
 2866SOL    HW1 9176   0.447   4.109   8.232  2.5113  1.8997  0.0798
 2866SOL    HW2 9177   0.355   4.229   8.235  0.3042  0.2780  0.5020
 2867SOL     OW 9178   8.818   8.819   0.409 -0.3983 -0.0059 -0.2427
 2867SOL    HW1 9179   8.912   8.807   0.391 -0.4912 -0.2833 -0.5418
 2867SOL    HW2 9180   8.811   8.810   0.504 -0.2426 -0.8447 -0.3083
 2868SOL     OW 9181   6.104   6.587   0.040  0.0582  0.3612  0.4036
 2868SOL    HW1 9182   6.195   6.604   0.066 -0.5188  2.7391  1.1117
 2868SOL    HW2 9183   6.052   6.641   0.100 -1.8700 -1.2576  0.2789
 2869SOL     OW 9184   5.648   0.739   0.509  0.0886  0.2483  0.2540
 2869SOL    HW1 9185   5.634   0.828   0.477 -0.6805  1.1735  2.8669
 2869SOL    HW2 9186   5.573   0.689   0.479 -0.3527  0.9439  0.1895
 2870SOL     OW 9187   2.797   4.547   0.012 -0.4536 -0.6350  0.1865
 2870SOL    HW1 9188   2.820   4.557   0.105 -1.7581  0.2674  0.4436
 2870SOL    HW2 9189   2.850   4.612  -0.033  0.2360 -1.1218  0.2890
 2871SOL     OW 9190   3.510   4.256   4.264  0.2163 -0.0807  0.1268
 2871SOL    HW1 9191   3.571   4.239   4.193 -1.5295 -0.4468 -1.3662
 2871SOL    HW2 9192   3.555   4.318   4.321  0.5361  2.7855 -2.9499
 2872SOL     OW 9193   3.793   4.380   7.375  0.2199  0.6143  0.0720
 2872SOL    HW1 9194   3.768   4.322   7.447 -1.6783  1.1971 -0.0537
 2872SOL    HW2 9195   3.723   4.369   7.310  0.7208  1.7751 -0.7016
 2873SOL     OW 9196   3.537   7.418   8.156  0.1685 -0.3734  0.2724
 2873SOL    HW1 9197   3.466   7.398   8.095  1.4129 -2.5135 -0.5730
 2873SOL    HW2 9198   3.526   7.357   8.228  3.0173 -3.3536 -1.5161
 2874SOL     OW 9199   3.281   9.727   9.229 -0.1220 -0.0904 -0.4557
 2874SOL    HW1 9200   3.319   9.731   9.142 -0.4160  2.0013 -0.5483
 2874SOL    HW2 9201   3.353   9.702   9.286 -0.2697 -3.0798 -1.4083
 2875SOL     OW 9202   7.905   2.568   1.152  0.3160  0.1018 -0.1836
 2875SOL    HW1 9203   7.906   2.490   1.098  0.3276  0.5864 -0.9031
 2875SOL    HW2 9204   7.858   2.633   1.099 -2.3579 -0.2404  1.6103
 2876SOL     OW 9205   7.566   4.826   3.937 -0.1215 -0.4558  0.3243
 2876SOL    HW1 9206   7.562   4.910   3.892 -0.3758 -0.9511 -0.6066
 2876SOL    HW2 9207   7.481   4.818   3.980  0.3435  0.2893  1.4134
 2877SOL     OW 9208   4.568   8.637   7.135 -0.2949  0.1283  0.3202
 2877SOL    HW1 9209   4.641   8.616   7.193 -0.4356 -2.1594 -0.2243
 2877SOL    HW2 9210   4.609   8.663   7.052 -0.0700 -0.3267  0.2825
 2878SOL     OW 9211   5.883   0.499   2.400  0.1495 -0.0626  0.8176
 2878SOL    HW1 9212   5.951   0.549   2.355  0.6224 -0.2665  1.2946
 2878SOL    HW2 9213   5.811   0.561   2.411 -0.2820 -0.2201 -0.8768
 2879SOL     OW 9214   6.556   6.912   7.750 -0.9029  0.1681  0.0875
 2879SOL    HW1 9215   6.645   6.947   7.755 -1.2818  0.9688  1.9458
 2879SOL    HW2 9216   6.537   6.910   7.656  0.6644  1.0311 -0.2893
 2880SOL     OW 9217   2.591   1.810   2.209 -0.2774 -0.3555  0.7855
 2880SOL    HW1 9218   2.587   1.715   2.218 -1.2142 -0.3032  1.0789
 2880SOL    HW2 9219   2.567   1.827   2.118  0.3340 -0.4151  0.6074
 2881SOL     OW 9220   7.223   1.082   5.639  0.8096  0.0745  0.3169
 2881SOL    HW1 9221   7.174   1.002   5.619  0.7897 -0.0979  1.0258
 2881SOL    HW2 9222   7.314   1.053   5.643  0.7781  0.0390  0.8088
 2882SOL     OW 9223   7.139   1.689   2.336  1.0942  0.0516  0.5770
 2882SOL    HW1 9224   7.055   1.690   2.290  0.3673  2.8844  1.7152
 2882SOL    HW2 9225   7.131   1.617   2.398  0.2984 -0.9382 -0.6174
 2883SOL     OW 9226   4.321   7.707   8.599 -0.7682 -0.3297  0.0391
 2883SOL    HW1 9227   4.329   7.674   8.510 -0.1916  0.8392 -0.3734
 2883SOL    HW2 9228   4.230   7.692   8.623 -0.8559 -0.9175 -0.6454
 2884SOL     OW 9229   7.702   8.043   0.079  0.0930 -0.8238 -0.6328
 2884SOL    HW1 9230   7.769   8.085   0.134 -0.6382 -1.0806  0.4818
 2884SOL    HW2 9231   7.735   8.054  -0.010  0.7058  0.7090 -0.2592
 2885SOL     OW 9232   1.248   7.445   2.231  0.0167 -0.3860 -0.4277
 2885SOL    HW1 9233   1.275   7.401   2.311 -0.3516  0.4188  0.1452
 2885SOL    HW2 9234   1.178   7.504   2.258  0.2631  0.2975 -1.2401
 2886SOL     OW 9235   6.514   1.779   3.467 -0.5403 -0.2665 -0.0085
 2886SOL    HW1 9236   6.509   1.706   3.407  1.0114 -0.4966  0.1002
 2886SOL    HW2 9237   6.477   1.746   3.549 -1.2795 -0.4251 -0.4039
 2887SOL     OW 9238   9.083   5.836   1.224 -0.0070 -0.1067  0.3797
 2887SOL    HW1 9239   9.118   5.885   1.299 -0.7258  0.2748  0.4790
 2887SOL    HW2 9240   9.154   5.837   1.160  0.0953  0.8286  0.4913
 2888SOL     OW 9241   5.115   3.177   7.130  0.7269 -0.2713 -0.0966
 2888SOL    HW1 9242   5.113   3.084   7.149 -1.6122 -0.6098 -1.5825
 2888SOL    HW2 9243   5.024   3.200   7.112  1.4734  1.8742 -1.6388
 2889SOL     OW 9244   1.050   5.170   6.439  0.0030 -0.8659 -0.0387
 2889SOL    HW1 9245   1.125   5.229   6.445 -0.3994 -0.2590 -0.7279
 2889SOL    HW2 9246   1.004   5.198   6.360 -2.3996  0.4688  1.7116
 2890SOL     OW 9247   1.189   1.636   2.695 -0.0719 -0.9093 -0.6287
 2890SOL    HW1 9248   1.240   1.557   2.715  0.1627 -0.4386  0.7646
 2890SOL    HW2 9249   1.099   1.613   2.718  0.1790 -0.4091  0.9619
 2891SOL     OW 9250   9.739   0.806   5.442  0.4026  0.2620  0.0026
 2891SOL    HW1 9251   9.709   0.897   5.444  0.5348  0.2852  1.0592
 2891SOL    HW2 9252   9.819   0.808   5.389 -0.9212  0.3407 -2.1055
 2892SOL     OW 9253   7.995   4.785   9.434 -0.1484  0.0974  0.0372
 2892SOL    HW1 9254   8.061   4.718   9.414  1.0073  1.4076 -0.7593
 2892SOL    HW2 9255   7.914   4.736   9.448  0.2016 -1.3912 -2.4470
 2893SOL     OW 9256   2.876   3.326   3.938  0.1771  0.4070  0.0461
 2893SOL    HW1 9257   2.927   3.265   3.990 -2.3235  0.2647  2.5844
 2893SOL    HW2 9258   2.912   3.412   3.959 -0.7177  0.3384  2.0523
 2894SOL     OW 9259   0.332   9.727   5.984 -0.1225  0.2770  0.0723
 2894SOL    HW1 9260   0.285   9.748   6.064 -0.2685 -0.1147  0.0912
 2894SOL    HW2 9261   0.323   9.805   5.929 -2.1675 -0.3508 -0.5801
 2895SOL     OW 9262   4.577   1.530   0.976 -0.4228  0.2709 -0.1454
 2895SOL    HW1 9263   4.505   1.568   1.026 -1.1263 -0.3216 -0.7101
 2895SOL    HW2 9264   4.543   1.519   0.888  0.2379 -0.3537 -0.3297
 2896SOL     OW 9265   2.508   8.446   3.348  0.6329 -0.4296 -0.2842
 2896SOL    HW1 9266   2.520   8.537   3.377 -1.9972 -0.1310  0.1126
 2896SOL    HW2 9267   2.516   8.451   3.252 -1.2470  0.6202 -0.4455
 2897SOL     OW 9268   4.242   4.917   5.665 -0.1371 -0.2576 -0.6738
 2897SOL    HW1 9269   4.246   4.827   5.633 -0.5453 -0.6104  0.2331
 2897SOL    HW2 9270   4.156   4.923   5.707  0.5707  0.0435  0.7742
 2898SOL     OW 9271   8.211   6.927   3.455  0.0414 -0.6793 -0.0523
 2898SOL    HW1 9272   8.170   6.858   3.403  1.2309 -0.4444 -1.3879
 2898SOL    HW2 9273   8.305   6.913   3.444  0.3138  0.3012  0.8235
 2899SOL     OW 9274   9.942   7.468   3.157 -0.2081  0.3128 -0.0188
 2899SOL    HW1 9275   9.855   7.427   3.153  0.1114 -0.3295 -0.5726
 2899SOL    HW2 9276   9.986   7.423   3.229  1.0525 -2.2053 -2.2184
 2900SOL     OW 9277   4.307   5.754   3.387  0.2343 -0.3045  0.1732
 2900SOL    HW1 9278   4.330   5.664   3.360 -0.2581 -0.6318  0.8293
 2900SOL    HW2 9279   4.315   5.753   3.482  0.0507  0.3048  0.1961
 2901SOL     OW 9280   2.256   1.617   1.173 -0.1253  0.0284 -0.0530
 2901SOL    HW1 9281   2.209   1.672   1.110 -0.0041  1.3044  0.9376
 2901SOL    HW2 9282   2.196   1.609   1.246  1.1692  1.7719  1.2861
 2902SOL     OW 9283   3.138   0.821   5.813  0.4625  0.2223  0.2049
 2902SOL    HW1 9284   3.065   0.835   5.752  0.5641 -1.1485 -0.2809
 2902SOL    HW2 9285   3.118   0.875   5.889  0.0765  1.5985 -0.8317
 2903SOL     OW 9286   3.497   4.193   9.647  0.0898  0.9631 -0.4182
 2903SOL    HW1 9287   3.440   4.223   9.576  1.3825  2.0142 -1.0633
 2903SOL    HW2 9288   3.436   4.161   9.714 -1.2213  1.3474 -1.3693
 2904SOL     OW 9289   0.869   9.715   2.473  0.5877 -0.3893 -0.5371
 2904SOL    HW1 9290   0.883   9.766   2.393 -1.6798 -0.7239 -1.2050
 2904SOL    HW2 9291   0.848   9.780   2.539 -0.9720 -0.3006 -1.0748
 2905SOL     OW 9292   6.812   6.381   4.205  0.0927 -0.4843  0.3133
 2905SOL    HW1 9293   6.883   6.317   4.218 -1.8525 -2.7607  0.3075
 2905SOL    HW2 9294   6.792   6.413   4.293 -2.3450 -3.8827  1.1709
 2906SOL     OW 9295   8.289   1.069   8.749  0.2754 -0.1706 -0.4031
 2906SOL    HW1 9296   8.290   1.112   8.663 -1.1436  0.6975 -0.0219
 2906SOL    HW2 9297   8.252   0.983   8.732  1.8704 -0.7878 -0.9551
 2907SOL     OW 9298   8.216   5.259   5.202  0.1393 -0.1352  0.1887
 2907SOL    HW1 9299   8.219   5.354   5.202  0.5036 -0.1476  0.2920
 2907SOL    HW2 9300   8.277   5.233   5.134  1.1755 -0.3324  1.1700
 2908SOL     OW 9301   5.934   6.541   7.015 -0.6513  0.3357  0.1962
 2908SOL    HW1 9302   6.020   6.501   7.025  0.2883  2.0752 -0.4791
 2908SOL    HW2 9303   5.883   6.479   6.963 -0.0452 -1.0185  1.1869
 2909SOL     OW 9304   4.260   8.235   5.116  0.1819 -0.5665  0.0868
 2909SOL    HW1 9305   4.238   8.288   5.039  1.3075 -0.1744  0.0159
 2909SOL    HW2 9306   4.194   8.166   5.117  0.1656 -0.5942 -1.2573
 2910SOL     OW 9307   6.637   1.763   6.299  0.1090 -0.1496 -0.1334
 2910SOL    HW1 9308   6.658   1.828   6.367 -0.2114 -0.2242  0.0366
 2910SOL    HW2 9309   6.634   1.680   6.345  1.4904 -0.4335 -0.5200
 2911SOL     OW 9310   3.959   2.105   3.235 -0.4408 -0.2892  0.2357
 2911SOL    HW1 9311   3.965   2.136   3.145 -2.1296 -1.4895 -0.3411
 2911SOL    HW2 9312   4.016   2.027   3.237  0.5774  0.4463  0.5701
 2912SOL     OW 9313   0.058   6.398   8.212  0.2787 -0.6535  0.1509
 2912SOL    HW1 9314  -0.005   6.394   8.141  1.5867 -0.6935 -1.0553
 2912SOL    HW2 9315   0.005   6.394   8.292 -1.2984  0.3271 -0.7906
 2913SOL     OW 9316   5.036   3.385   8.627  0.2691 -0.0666  0.2334
 2913SOL    HW1 9317   5.013   3.302   8.586  0.5991 -0.6383  1.1845
 2913SOL    HW2 9318   5.064   3.441   8.554  1.5272 -1.2824 -0.2442
 2914SOL     OW 9319   2.214   9.636   7.629 -0.5647 -0.2383  0.5667
 2914SOL    HW1 9320   2.125   9.662   7.650 -0.9180 -1.2114  0.2916
 2914SOL    HW2 9321   2.260   9.638   7.713 -0.3480  1.9975  0.4747
 2915SOL     OW 9322   3.240   7.603   2.794 -0.5679 -0.2583 -0.8972
 2915SOL    HW1 9323   3.151   7.627   2.820 -0.6428 -2.3934  1.1394
 2915SOL    HW2 9324   3.293   7.620   2.872  0.1795 -2.0473 -0.9649
 2916SOL     OW 9325   5.533   1.328   6.560  0.2612 -0.7491 -0.4039
 2916SOL    HW1 9326   5.490   1.244   6.576 -0.1430 -0.6256 -0.8213
 2916SOL    HW2 9327   5.463   1.393   6.566  0.8176 -0.2643  1.3772
 2917SOL     OW 9328   5.767   2.275   0.223  0.6832 -0.2988 -0.1390
 2917SOL    HW1 9329   5.737   2.358   0.260  0.3745 -0.6851  0.5054
 2917SOL    HW2 9330   5.856   2.292   0.193  0.1849  0.5946 -1.1488
 2918SOL     OW 9331   0.393   2.350   5.379  0.3740  0.1010  0.3275
 2918SOL    HW1 9332   0.374   2.383   5.467 -0.8900  0.1553  0.0605
 2918SOL    HW2 9333   0.341   2.406   5.322  0.2278 -0.7150 -0.3487
 2919SOL     OW 9334   3.394   8.304   6.304  0.0860  0.3025  0.5659
 2919SOL    HW1 9335   3.343   8.334   6.228 -0.0525 -0.4198  0.3661
 2919SOL    HW2 9336   3.330   8.262   6.361  0.3887 -0.2528  0.5029
 2920SOL     OW 9337   1.713   2.015   7.657  0.1408 -0.1834  0.3475
 2920SOL    HW1 9338   1.686   2.085   7.598  3.0200  1.9833  1.3601
 2920SOL    HW2 9339   1.792   1.978   7.617  0.5832 -0.5233  1.4802
 2921SOL     OW 9340   1.628   0.825   6.474  0.0008 -0.1582 -0.1209
 2921SOL    HW1 9341   1.549   0.776   6.497  0.0594  0.0777  0.6071
 2921SOL    HW2 9342   1.668   0.775   6.402 -0.5368 -0.5549 -0.1444
 2922SOL     OW 9343   0.529   2.310   7.125 -0.1371  0.0651  0.4994
 2922SOL    HW1 9344   0.463   2.242   7.133 -1.4675  1.4148  1.6049
 2922SOL    HW2 9345   0.502   2.377   7.187  3.2269 -0.0435  2.2986
 2923SOL     OW 9346   2.238   6.468   1.784 -0.5488  0.0681 -0.3218
 2923SOL    HW1 9347   2.172   6.520   1.737 -0.0852  1.0216  0.0553
 2923SOL    HW2 9348   2.244   6.509   1.870  0.1947 -0.3039 -0.1933
 2924SOL     OW 9349   8.159   7.568   4.210 -0.1984  0.2780 -0.0444
 2924SOL    HW1 9350   8.203   7.618   4.142 -1.1997 -0.0540 -0.9618
 2924SOL    HW2 9351   8.071   7.605   4.215  0.2826  1.2789  2.1305
 2925SOL     OW 9352   6.126   2.387   8.070  0.3706  0.5017  0.3406
 2925SOL    HW1 9353   6.131   2.473   8.113 -0.2795  0.2933  0.8473
 2925SOL    HW2 9354   6.118   2.408   7.977 -0.9320  1.0393  0.5473
 2926SOL     OW 9355   8.131   1.034   1.698  0.1484 -0.2113  0.2361
 2926SOL    HW1 9356   8.145   1.123   1.732  1.2807 -0.6113  0.8557
 2926SOL    HW2 9357   8.219   1.000   1.681 -0.2421 -1.3943  0.4665
 2927SOL     OW 9358   1.564   1.651   1.742 -0.5739  0.3832  0.1547
 2927SOL    HW1 9359   1.636   1.649   1.680  1.1650 -0.2382  2.0940
 2927SOL    HW2 9360   1.518   1.568   1.728 -0.4031  0.3898 -0.4780
 2928SOL     OW 9361   5.675   9.443   5.983  0.1244  0.0196 -0.0879
 2928SOL    HW1 9362   5.769   9.429   5.998 -0.1024 -0.6242  0.8685
 2928SOL    HW2 9363   5.660   9.533   6.010  0.4819  0.1475 -0.3121
 2929SOL     OW 9364   0.984   6.977   0.983 -0.5111  0.3134  0.9253
 2929SOL    HW1 9365   0.982   7.073   0.982 -0.2964  0.3154  0.5919
 2929SOL    HW2 9366   0.933   6.951   0.906  0.5408  0.1819  0.2582
 2930SOL     OW 9367   5.551   1.856   8.772 -0.1680 -0.0897  0.0991
 2930SOL    HW1 9368   5.628   1.892   8.730 -0.8287  1.6112  0.2836
 2930SOL    HW2 9369   5.501   1.932   8.802 -1.3340 -1.1677  1.0365
 2931SOL     OW 9370   7.965   0.367   9.855  0.0498 -0.2338  0.0659
 2931SOL    HW1 9371   8.032   0.375   9.787 -0.1888  0.1570 -0.1245
 2931SOL    HW2 9372   7.914   0.447   9.849  0.9389  0.4962  1.7085
 2932SOL     OW 9373   5.840   2.562   4.492 -0.1494 -0.4433 -0.1430
 2932SOL    HW1 9374   5.887   2.509   4.428 -0.3424 -1.4219  0.5139
 2932SOL    HW2 9375   5.876   2.537   4.577  0.2831  1.0285  0.1528
 2933SOL     OW 9376   6.889   3.756   3.930 -0.3229 -0.2281  0.0850
 2933SOL    HW1 9377   6.888   3.709   4.014  0.1990  0.0453  0.2479
 2933SOL    HW2 9378   6.943   3.701   3.873 -0.4596 -0.2800  0.0048
 2934SOL     OW 9379   5.848   4.141   5.592  0.0924  0.9493 -0.2123
 2934SOL    HW1 9380   5.830   4.225   5.634 -1.7462  0.8131 -0.6305
 2934SOL    HW2 9381   5.770   4.124   5.540  0.5774 -0.8722 -0.3906
 2935SOL     OW 9382   7.082   6.585   4.700 -0.3577  0.2243 -0.1615
 2935SOL    HW1 9383   7.055   6.572   4.791 -1.2585 -1.9795 -0.6929
 2935SOL    HW2 9384   7.014   6.642   4.664 -1.1891 -0.6190  0.0225
 2936SOL     OW 9385   2.595   1.098   4.389  0.0104 -0.0776 -0.1508
 2936SOL    HW1 9386   2.571   1.023   4.445  1.3964 -0.3468  0.1329
 2936SOL    HW2 9387   2.627   1.058   4.308  0.1755  0.2295 -0.2370
 2937SOL     OW 9388   0.014   1.631   3.413  0.2054 -0.1295 -0.1276
 2937SOL    HW1 9389  -0.047   1.703   3.430 -1.1097 -1.0484 -0.7996
 2937SOL    HW2 9390   0.043   1.603   3.500  0.7821  1.2382  0.1349
 2938SOL     OW 9391   5.494   9.062   2.304  0.0862  0.0708 -0.5964
 2938SOL    HW1 9392   5.486   9.054   2.209 -0.2271  0.6535 -0.6234
 2938SOL    HW2 9393   5.469   9.152   2.323  1.2072  0.2914 -0.0697
 2939SOL     OW 9394   4.689   3.885   0.005  0.2181 -0.1707  0.0359
 2939SOL    HW1 9395   4.598   3.889   0.033 -0.0358 -1.5998 -0.5067
 2939SOL    HW2 9396   4.722   3.802   0.041  1.3739  0.4193  0.3967
 2940SOL     OW 9397   4.926   4.540   0.082 -0.0623 -0.0209  0.0183
 2940SOL    HW1 9398   4.928   4.487   0.002  0.8416  2.4135 -1.6889
 2940SOL    HW2 9399   5.006   4.515   0.129 -0.0074 -0.6512 -0.3895
 2941SOL     OW 9400   2.309   7.507   3.679  0.4278  0.1311  0.3692
 2941SOL    HW1 9401   2.326   7.415   3.699  0.8376  0.5665  2.2588
 2941SOL    HW2 9402   2.240   7.505   3.613  1.7389 -1.5395 -1.0395
 2942SOL     OW 9403   9.537   2.892   3.851 -0.2005 -0.0398  0.0679
 2942SOL    HW1 9404   9.501   2.964   3.903 -1.6054 -0.3047 -0.5045
 2942SOL    HW2 9405   9.464   2.862   3.797  0.4648 -1.6323 -0.0013
 2943SOL     OW 9406   4.533  -0.006   0.716  0.0433 -0.4005  0.2560
 2943SOL    HW1 9407   4.531  -0.046   0.803  0.9314 -0.6211  0.1792
 2943SOL    HW2 9408   4.572   0.080   0.730  1.3707 -0.9221 -0.0988
 2944SOL     OW 9409   0.679   6.817   9.218  0.0304 -0.0376 -0.3140
 2944SOL    HW1 9410   0.625   6.740   9.239  0.0998 -0.3458 -1.2236
 2944SOL    HW2 9411   0.735   6.829   9.295 -2.5185  1.3757  1.4684
 2945SOL     OW 9412   3.780   1.663   7.149  0.2620 -0.0632  0.5443
 2945SOL    HW1 9413   3.820   1.663   7.062 -2.3668  0.2831 -0.7694
 2945SOL    HW2 9414   3.757   1.754   7.164 -0.1211 -0.2645  1.2016
 2946SOL     OW 9415   1.328   2.246   9.107 -0.4866  0.1181  0.4018
 2946SOL    HW1 9416   1.378   2.236   9.188 -2.3472  0.9062  1.7140
 2946SOL    HW2 9417   1.311   2.156   9.079 -0.4454 -0.1854  1.3065
 2947SOL     OW 9418   9.700   7.570   2.467  0.0113  0.9008  0.4919
 2947SOL    HW1 9419   9.676   7.656   2.502 -0.7598  0.9514 -0.1319
 2947SOL    HW2 9420   9.778   7.586   2.414 -0.1466  1.2255  0.3537
 2948SOL     OW 9421   0.947   9.668   7.138  0.0743  0.1475  0.4544
 2948SOL    HW1 9422   1.011   9.607   7.099 -0.8236 -1.4114  1.3276
 2948SOL    HW2 9423   0.874   9.668   7.076 -0.1967 -0.1966  0.7662
 2949SOL     OW 9424   4.963   0.350   4.400 -0.4104  0.0563  0.2083
 2949SOL    HW1 9425   4.974   0.387   4.488 -0.9455  0.9938 -0.1000
 2949SOL    HW2 9426   4.869   0.329   4.395 -0.2057 -0.8949  0.1953
 2950SOL     OW 9427   2.266   2.528   5.601  0.0830  0.0716  0.0455
 2950SOL    HW1 9428   2.179   2.540   5.640  0.7018  0.4811  1.3715
 2950SOL    HW2 9429   2.320   2.595   5.644  1.1272 -0.3942 -0.5206
 2951SOL     OW 9430   3.123   8.949   2.329  0.1988 -0.1908  0.9631
 2951SOL    HW1 9431   3.142   8.856   2.318  2.1028  0.3549 -0.9066
 2951SOL    HW2 9432   3.202   8.984   2.370 -1.1980  0.3695  3.3732
 2952SOL     OW 9433   1.748   6.925   2.449 -0.0360 -0.2668 -0.3837
 2952SOL    HW1 9434   1.664   6.932   2.405  1.2411  2.6355 -2.7549
 2952SOL    HW2 9435   1.796   6.858   2.399  0.0058  0.1137 -0.8637
 2953SOL     OW 9436   4.724   1.035   0.206  0.5503  0.3569  0.7559
 2953SOL    HW1 9437   4.768   0.972   0.150 -1.5189 -0.7937  0.3061
 2953SOL    HW2 9438   4.752   1.120   0.173  2.5207 -0.2928  0.6384
 2954SOL     OW 9439   0.419   7.998   6.953 -0.3633 -0.2617 -0.4044
 2954SOL    HW1 9440   0.427   8.007   6.858  0.4358  0.8914 -0.2494
 2954SOL    HW2 9441   0.428   7.904   6.969  4.3796 -0.2005 -1.1393
 2955SOL     OW 9442   8.236   1.833   3.672 -0.2126  0.0758  0.2826
 2955SOL    HW1 9443   8.145   1.806   3.672 -0.1708 -0.1916  1.7248
 2955SOL    HW2 9444   8.262   1.832   3.580 -1.5203 -0.3029 -0.1047
 2956SOL     OW 9445   3.099   7.869   6.387 -0.1685  0.1146 -0.1924
 2956SOL    HW1 9446   3.106   7.800   6.453  0.1191  0.6585  0.3488
 2956SOL    HW2 9447   3.091   7.821   6.304  0.7073 -0.5681  0.1036
 2957SOL     OW 9448   5.694   9.924   9.487 -0.4657 -0.1249 -0.1562
 2957SOL    HW1 9449   5.718   9.842   9.444  0.3378 -1.3450  2.3931
 2957SOL    HW2 9450   5.599   9.926   9.483 -0.6204 -2.0144  0.9782
 2958SOL     OW 9451   2.557   9.727   8.881 -0.0661  0.1335 -0.0973
 2958SOL    HW1 9452   2.591   9.814   8.900 -0.3199  0.3251 -0.5093
 2958SOL    HW2 9453   2.576   9.676   8.960  2.5446 -0.2094 -0.8401
 2959SOL     OW 9454   9.493   6.074   7.264 -0.0448  0.2429 -0.0803
 2959SOL    HW1 9455   9.399   6.074   7.244 -0.2128  0.4915  0.6417
 2959SOL    HW2 9456   9.530   6.141   7.207 -0.3227  0.2039 -0.3093
 2960SOL     OW 9457   4.731   7.932   1.276  0.3939 -0.5047 -0.5394
 2960SOL    HW1 9458   4.778   7.992   1.333 -0.3821 -0.0515 -0.3714
 2960SOL    HW2 9459   4.680   7.876   1.335 -0.3862 -0.0554 -0.7654
 2961SOL     OW 9460   8.917   6.667   8.881  0.0141  0.4288 -0.6424
 2961SOL    HW1 9461   8.826   6.687   8.903 -0.8034 -2.9784 -0.2881
 2961SOL    HW2 9462   8.968   6.703   8.953 -1.4426 -0.4848  0.9035
 2962SOL     OW 9463   9.401   3.651   5.958  0.2023 -0.1970 -0.1715
 2962SOL    HW1 9464   9.329   3.611   6.006 -0.3467  0.0945 -0.7444
 2962SOL    HW2 9465   9.472   3.658   6.023  0.1040 -1.4860  0.1040
 2963SOL     OW 9466   9.231   2.246   4.797 -0.4802 -0.2275  0.3858
 2963SOL    HW1 9467   9.201   2.287   4.716 -0.1671  0.5185  0.6364
 2963SOL    HW2 9468   9.327   2.244   4.788 -0.4331  0.0445  0.8271
 2964SOL     OW 9469   4.060   2.611   2.631  0.4037 -0.1023  0.7054
 2964SOL    HW1 9470   4.107   2.552   2.570  1.0937 -2.1958  3.0777
 2964SOL    HW2 9471   3.968   2.599   2.609  0.6942  1.5125 -1.8268
 2965SOL     OW 9472   4.363   6.393   4.456 -0.4349  0.7528  0.6285
 2965SOL    HW1 9473   4.352   6.315   4.509  0.5473 -0.0836 -0.3505
 2965SOL    HW2 9474   4.410   6.454   4.513  1.2947 -0.4070  0.5136
 2966SOL     OW 9475   6.852   3.443   5.728  0.1969 -0.1200  0.2921
 2966SOL    HW1 9476   6.819   3.470   5.642 -0.4099  1.0637  0.8778
 2966SOL    HW2 9477   6.936   3.402   5.709 -1.4758 -3.2466 -1.2716
 2967SOL     OW 9478   6.241   9.741   5.727  0.5050 -0.0998  0.3275
 2967SOL    HW1 9479   6.333   9.765   5.721  0.1573  1.3272  0.1760
 2967SOL    HW2 9480   6.195   9.825   5.734 -0.8058 -0.7660  0.0855
 2968SOL     OW 9481   9.485   8.773   1.811 -0.4088  0.0976 -0.1276
 2968SOL    HW1 9482   9.573   8.789   1.774  0.2031 -1.1700  0.7158
 2968SOL    HW2 9483   9.497   8.782   1.905 -1.2351  0.0948 -0.0177
 2969SOL     OW 9484   3.829   5.375   9.773  0.0232  0.6390  0.5430
 2969SOL    HW1 9485   3.781   5.322   9.709 -0.4823  1.6326  0.0683
 2969SOL    HW2 9486   3.762   5.430   9.814  0.5335  0.9278  1.0065
 2970SOL     OW 9487   6.030   7.591   8.655  0.0199 -0.6612 -0.5959
 2970SOL    HW1 9488   6.018   7.522   8.721 -0.8241 -0.0833 -0.1197
 2970SOL    HW2 9489   6.106   7.563   8.605 -0.9332 -2.5070 -1.1068
 2971SOL     OW 9490   3.498   7.847   1.715 -0.4133  0.0315  0.4637
 2971SOL    HW1 9491   3.444   7.926   1.714  0.8785  0.9989  1.8011
 2971SOL    HW2 9492   3.468   7.799   1.792  0.2535  0.3158  0.9102
 2972SOL     OW 9493   3.518   1.497   1.377  0.5483 -0.1437  0.3242
 2972SOL    HW1 9494   3.586   1.463   1.437  1.4531  0.7338 -0.1852
 2972SOL    HW2 9495   3.565   1.517   1.296 -0.6992 -1.5123 -0.7934
 2973SOL     OW 9496   4.534   9.472   9.659 -0.7595 -0.0501  0.0985
 2973SOL    HW1 9497   4.505   9.477   9.568 -1.0567 -1.0297  0.1263
 2973SOL    HW2 9498   4.562   9.381   9.670  4.0554  1.0869 -0.4658
 2974SOL     OW 9499   0.331   2.693   3.895  0.0192 -0.3796 -0.0246
 2974SOL    HW1 9500   0.353   2.766   3.836 -1.7969 -0.0422 -0.3380
 2974SOL    HW2 9501   0.242   2.713   3.925  0.6594 -0.8572  2.3769
 2975SOL     OW 9502   6.626   6.240   5.866  0.3778 -0.6576  0.6671
 2975SOL    HW1 9503   6.561   6.237   5.935 -1.4770  0.5448 -0.9372
 2975SOL    HW2 9504   6.578   6.218   5.786  1.1101  3.1600 -1.0629
 2976SOL     OW 9505   2.334   7.085   7.506  0.3875  0.5241 -0.9132
 2976SOL    HW1 9506   2.394   7.067   7.579  0.6297  0.8043 -1.0446
 2976SOL    HW2 9507   2.264   7.138   7.545 -0.6710 -1.1680 -0.3685
 2977SOL     OW 9508   4.678   8.642   3.902 -0.4600 -0.5126  0.0448
 2977SOL    HW1 9509   4.742   8.713   3.898 -0.3261 -0.5915  0.6634
 2977SOL    HW2 9510   4.629   8.658   3.983 -1.9417  0.1378 -0.9271
 2978SOL     OW 9511   0.526   2.760   7.843 -0.1158 -0.3750 -0.3289
 2978SOL    HW1 9512   0.450   2.752   7.900  0.5457 -0.5433  0.5586
 2978SOL    HW2 9513   0.597   2.718   7.892  0.2632 -1.4034 -1.7094
 2979SOL     OW 9514   7.096   2.233   4.965  0.0022  0.0797  0.7226
 2979SOL    HW1 9515   7.141   2.181   5.031 -1.1042  0.0285  1.4608
 2979SOL    HW2 9516   7.040   2.293   5.014 -0.3599  0.4833 -0.1487
 2980SOL     OW 9517   0.351   5.157   2.357 -0.1873  0.0790  0.2029
 2980SOL    HW1 9518   0.346   5.113   2.442  0.1756  1.5327  1.0222
 2980SOL    HW2 9519   0.437   5.132   2.322 -0.8805 -1.5970 -0.3887
 2981SOL     OW 9520   4.404   9.873   4.162  0.2733  0.3594  0.2317
 2981SOL    HW1 9521   4.331   9.850   4.220 -1.1895  0.1631 -1.5718
 2981SOL    HW2 9522   4.459   9.795   4.160 -0.0649  0.1017  0.7672
 2982SOL     OW 9523   4.224   2.622   4.920 -0.4354  0.7330  0.0545
 2982SOL    HW1 9524   4.129   2.633   4.912 -0.2275  2.0105 -1.0452
 2982SOL    HW2 9525   4.261   2.703   4.883  1.0848  0.2375  0.4112
 2983SOL     OW 9526   6.715   7.315   3.130 -0.3312  0.3732  0.0948
 2983SOL    HW1 9527   6.625   7.281   3.125 -0.5834  0.7285  1.7687
 2983SOL    HW2 9528   6.765   7.245   3.170 -0.0417  0.5029 -0.0381
 2984SOL     OW 9529   8.389   3.744   1.748  0.5950 -0.1656  0.1161
 2984SOL    HW1 9530   8.331   3.691   1.693  0.3808 -0.8090  0.9406
 2984SOL    HW2 9531   8.463   3.686   1.766  1.3193  0.5090 -0.5878
 2985SOL     OW 9532   7.369   8.259   6.110 -0.0852 -0.0354  0.0851
 2985SOL    HW1 9533   7.294   8.311   6.139 -0.5707 -0.1139 -0.9652
 2985SOL    HW2 9534   7.385   8.288   6.020  1.2830  0.1194  0.3526
 2986SOL     OW 9535   4.999   4.789   7.126  0.3573 -0.4316  0.5624
 2986SOL    HW1 9536   5.053   4.833   7.060  0.3858 -2.7875 -1.1300
 2986SOL    HW2 9537   5.062   4.754   7.189  0.5239 -0.1932  0.5302
 2987SOL     OW 9538   6.243   4.761   9.740 -0.5337 -0.3121 -0.1195
 2987SOL    HW1 9539   6.244   4.780   9.647 -0.7141  0.5055  0.0407
 2987SOL    HW2 9540   6.151   4.765   9.765 -0.3588  1.1127  0.4068
 2988SOL     OW 9541   1.298   9.096   8.168  0.0126 -0.1596 -0.2132
 2988SOL    HW1 9542   1.326   9.133   8.252  0.0529  1.3660 -0.8580
 2988SOL    HW2 9543   1.327   9.005   8.171  2.7666  0.6422  0.1885
 2989SOL     OW 9544   6.108   9.794   4.749 -0.1390 -0.0655 -0.1783
 2989SOL    HW1 9545   6.095   9.879   4.792  2.0831  0.8141 -1.1035
 2989SOL    HW2 9546   6.092   9.729   4.817  0.8876  1.2010  1.3343
 2990SOL     OW 9547   7.985   6.569   6.448  0.5075  0.2848 -0.5997
 2990SOL    HW1 9548   7.978   6.664   6.454  1.5532  0.3966 -1.0524
 2990SOL    HW2 9549   7.911   6.543   6.393  1.6260  1.1117 -2.6290
 2991SOL     OW 9550   5.994   0.743   1.695 -0.2671  0.6979 -0.2762
 2991SOL    HW1 9551   5.960   0.765   1.782  0.8163  0.2788  0.2750
 2991SOL    HW2 9552   5.948   0.664   1.670  1.1116 -0.5883  1.0116
 2992SOL     OW 9553   6.475   7.068   9.349  0.1705  0.3478  0.1531
 2992SOL    HW1 9554   6.394   7.029   9.380  0.0908  0.4484  0.0741
 2992SOL    HW2 9555   6.456   7.091   9.257  1.0446 -1.8145 -0.6367
 2993SOL     OW 9556   5.066   8.690   7.906  0.5579 -0.3654  0.1001
 2993SOL    HW1 9557   5.159   8.675   7.888  0.7788 -0.9814  1.6273
 2993SOL    HW2 9558   5.022   8.617   7.863  0.8811 -0.6881  0.3099
 2994SOL     OW 9559   2.288   9.061   9.346  0.8006  0.2860 -0.3924
 2994SOL    HW1 9560   2.325   9.136   9.392 -0.3985  1.5198 -1.3521
 2994SOL    HW2 9561   2.219   9.098   9.291 -1.2070 -1.7814  0.5873
 2995SOL     OW 9562   8.865   3.318   7.177  0.1285 -0.0043 -0.4425
 2995SOL    HW1 9563   8.776   3.323   7.141  0.1253 -0.3437 -0.4880
 2995SOL    HW2 9564   8.865   3.238   7.229  0.1776  0.4192  0.2120
 2996SOL     OW 9565   6.600   2.923   4.272 -0.1461  0.6098 -0.0716
 2996SOL    HW1 9566   6.591   3.008   4.229  0.2185 -0.2097 -1.8424
 2996SOL    HW2 9567   6.512   2.886   4.274  0.1309 -0.2577 -2.1252
 2997SOL     OW 9568   0.840   4.011   3.865 -0.2033  0.1756 -0.6164
 2997SOL    HW1 9569   0.886   4.020   3.948  0.4884  0.9360 -1.0637
 2997SOL    HW2 9570   0.784   3.935   3.876  1.2899 -0.8938 -0.1027
 2998SOL     OW 9571   4.370   8.646   1.426 -0.1438  0.1651  0.1464
 2998SOL    HW1 9572   4.423   8.722   1.406  1.7559 -0.8498  1.0993
 2998SOL    HW2 9573   4.394   8.622   1.516 -1.8254 -0.6644  0.4155
 2999SOL     OW 9574   4.158   0.479   2.921 -0.4907 -0.2745 -0.2558
 2999SOL    HW1 9575   4.154   0.535   2.843  0.3627  2.7655  1.7188
 2999SOL    HW2 9576   4.251   0.468   2.938 -0.6003 -2.8881 -0.8454
 3000SOL     OW 9577   1.916   0.229   9.221  0.8181 -0.1161 -0.6642
 3000SOL    HW1 9578   1.997   0.277   9.202  0.3703  0.4451 -1.1811
 3000SOL    HW2 9579   1.915   0.158   9.157  0.3165  0.5845 -1.4574
 3001SOL     OW 9580   9.168   4.493   5.894 -0.0340  0.6785  0.1196
 3001SOL    HW1 9581   9.150   4.493   5.800  0.6120  0.1367 -0.0074
 3001SOL    HW2 9582   9.260   4.519   5.901  1.0596 -2.7915  0.3486
 3002SOL     OW 9583   4.294   8.786   2.352 -0.1394  0.2249  0.0152
 3002SOL    HW1 9584   4.206   8.762   2.324  0.5468 -0.8894 -1.2876
 3002SOL    HW2 9585   4.283   8.818   2.442 -1.9233  0.5835 -0.2953
 3003SOL     OW 9586   8.224   6.779   8.456 -0.4247  0.4249  0.0741
 3003SOL    HW1 9587   8.247   6.810   8.544  1.6366  0.3607 -0.3908
 3003SOL    HW2 9588   8.157   6.713   8.471  0.4658 -0.1786  1.6833
 3004SOL     OW 9589   2.738   7.222   4.279 -0.2284  0.1030 -0.1584
 3004SOL    HW1 9590   2.791   7.205   4.201 -0.3278  0.2397 -0.2547
 3004SOL    HW2 9591   2.670   7.155   4.276  0.2435 -0.4052  0.2428
 3005SOL     OW 9592   3.278   7.899   4.674  0.1947  0.0501  0.1913
 3005SOL    HW1 9593   3.266   7.890   4.580 -1.5101  0.2397  0.3637
 3005SOL    HW2 9594   3.319   7.817   4.702 -0.9513 -0.7599 -0.4640
 3006SOL     OW 9595   0.194   4.211   6.352 -0.2949 -0.4471  0.2393
 3006SOL    HW1 9596   0.223   4.300   6.333 -1.4107 -0.0097  0.5054
 3006SOL    HW2 9597   0.244   4.186   6.430 -0.0361 -0.0174  0.2154
 3007SOL     OW 9598   5.997   0.056   7.915 -0.5208  0.7270 -0.1797
 3007SOL    HW1 9599   5.958   0.060   8.002  0.9994 -2.5357  0.7904
 3007SOL    HW2 9600   6.087   0.086   7.927 -0.4209  0.6552 -0.7089
 3008SOL     OW 9601   2.445   4.893   3.971 -0.0339 -0.3193 -0.6203
 3008SOL    HW1 9602   2.486   4.948   4.038  0.0810 -0.8591 -0.2394
 3008SOL    HW2 9603   2.363   4.937   3.951  0.3921  0.3875 -0.8583
 3009SOL     OW 9604   3.835   9.433   4.786 -0.4949 -0.3385  0.1423
 3009SOL    HW1 9605   3.876   9.347   4.776 -2.2056 -1.0158 -1.6673
 3009SOL    HW2 9606   3.846   9.475   4.701 -1.7143  0.2869  0.2799
 3010SOL     OW 9607   6.280   0.362   0.321 -0.2710  0.1521 -0.2886
 3010SOL    HW1 9608   6.324   0.397   0.397  0.9198  0.1518 -0.9588
 3010SOL    HW2 9609   6.216   0.299   0.356 -0.4927  0.9308  0.7453
 3011SOL     OW 9610   2.648   7.600   4.669  0.8238  0.2632 -0.3839
 3011SOL    HW1 9611   2.674   7.541   4.740  0.5695 -0.2267 -0.6914
 3011SOL    HW2 9612   2.694   7.567   4.592  0.9545  0.6812 -0.4886
 3012SOL     OW 9613   6.456   7.126   3.355 -0.1585  0.3551 -0.0060
 3012SOL    HW1 9614   6.468   7.180   3.278  2.7420  1.7413  1.2643
 3012SOL    HW2 9615   6.435   7.188   3.425  0.7816 -0.4347  1.0034
 3013SOL     OW 9616   5.881   0.919   5.566  0.0241  0.3775 -0.5803
 3013SOL    HW1 9617   5.832   0.852   5.518 -0.8917  1.2442 -0.8795
 3013SOL    HW2 9618   5.973   0.897   5.549 -0.2670  0.1732 -2.0677
 3014SOL     OW 9619   1.037   3.309   5.440 -1.0079  0.7193 -0.2650
 3014SOL    HW1 9620   0.956   3.285   5.485 -1.2109  1.0948 -0.4316
 3014SOL    HW2 9621   1.051   3.239   5.376 -1.7372  1.1662 -0.9300
 3015SOL     OW 9622   7.719   3.360   9.411  0.2719 -0.0521  0.2471
 3015SOL    HW1 9623   7.807   3.341   9.443 -0.2003  0.4097  1.9557
 3015SOL    HW2 9624   7.667   3.374   9.491 -1.3340 -0.2462 -0.7139
 3016SOL     OW 9625   1.798   1.140   4.832  0.1110 -0.0379 -0.0269
 3016SOL    HW1 9626   1.885   1.152   4.793 -0.0136 -1.3623 -0.7742
 3016SOL    HW2 9627   1.815   1.091   4.913 -0.0318 -1.5770 -0.8940
 3017SOL     OW 9628   4.699   2.640   9.433  0.1367 -0.3732  0.3613
 3017SOL    HW1 9629   4.708   2.731   9.405 -0.8684 -0.5311 -0.5386
 3017SOL    HW2 9630   4.765   2.593   9.382 -1.0173 -0.5059 -1.0702
 3018SOL     OW 9631   5.428   1.681   8.590  0.4337 -0.8499 -0.1327
 3018SOL    HW1 9632   5.470   1.742   8.650 -0.3662  0.7181 -1.0891
 3018SOL    HW2 9633   5.496   1.657   8.528  0.7199 -0.8262  0.1709
 3019SOL     OW 9634   6.355   0.610   6.548  0.3227 -0.5054  0.5085
 3019SOL    HW1 9635   6.423   0.666   6.510 -1.0100  0.2855 -0.7946
 3019SOL    HW2 9636   6.275   0.661   6.541 -0.2619 -0.9503  3.0739
 3020SOL     OW 9637   6.245   9.217   3.492 -0.0621  0.3979  0.1997
 3020SOL    HW1 9638   6.160   9.246   3.524 -0.5698  0.3170 -1.0443
 3020SOL    HW2 9639   6.226   9.138   3.441  0.8511 -0.0393  0.5198
 3021SOL     OW 9640   7.105   7.341   5.819  0.1541  0.0219  0.2827
 3021SOL    HW1 9641   7.173   7.408   5.827  0.0881  0.3361 -1.3817
 3021SOL    HW2 9642   7.047   7.357   5.893  2.1916 -0.6643  2.1311
 3022SOL     OW 9643   6.207   6.955   9.382  0.9999  0.5421 -0.7516
 3022SOL    HW1 9644   6.172   6.866   9.383 -0.2489  0.9568  1.8306
 3022SOL    HW2 9645   6.155   7.001   9.317  0.4281 -0.1925 -0.8336
 3023SOL     OW 9646   8.803   8.782   8.792 -0.4639 -0.2365  0.2627
 3023SOL    HW1 9647   8.802   8.712   8.727 -2.3561  0.6105 -0.6891
 3023SOL    HW2 9648   8.786   8.737   8.875  1.4531 -1.2582  0.1565
 3024SOL     OW 9649   0.811   0.501   8.527  0.0539  0.0006  0.2569
 3024SOL    HW1 9650   0.843   0.456   8.605 -0.1388 -0.9072 -0.1745
 3024SOL    HW2 9651   0.765   0.433   8.477 -0.4685  0.7332 -0.2876
 3025SOL     OW 9652   6.342   1.426   4.595  1.4891 -0.0878  0.3582
 3025SOL    HW1 9653   6.275   1.435   4.662  1.5967  3.1086  0.1728
 3025SOL    HW2 9654   6.302   1.373   4.527 -0.2738  0.4460  0.9446
 3026SOL     OW 9655   0.121   7.206   8.852 -0.1038 -0.1294 -0.1756
 3026SOL    HW1 9656   0.085   7.276   8.798 -0.9297  1.1135  1.8550
 3026SOL    HW2 9657   0.045   7.172   8.900  0.4971 -1.5870 -0.2144
 3027SOL     OW 9658   3.140   0.316   8.082  0.3057  0.3922 -0.1588
 3027SOL    HW1 9659   3.124   0.276   7.997 -0.7573  1.3202 -0.4150
 3027SOL    HW2 9660   3.154   0.409   8.062  1.7623  0.3564  0.5145
 3028SOL     OW 9661   7.872   4.213   4.849 -0.4388  0.4895 -0.0861
 3028SOL    HW1 9662   7.906   4.124   4.846 -1.3301  0.1666 -0.9833
 3028SOL    HW2 9663   7.807   4.213   4.919 -0.4238  0.4447 -0.0724
 3029SOL     OW 9664   1.408   9.475   6.214 -0.5120 -0.1388  0.0439
 3029SOL    HW1 9665   1.381   9.400   6.162 -2.6998  0.9828 -0.5608
 3029SOL    HW2 9666   1.455   9.531   6.152 -0.0924 -0.3552  0.1593
 3030SOL     OW 9667  10.005   0.299   3.362 -0.1425  0.6625  0.5004
 3030SOL    HW1 9668  10.007   0.387   3.324  0.5915  0.2345 -0.5010
 3030SOL    HW2 9669   9.913   0.283   3.382 -0.0608  2.6030  3.0266
 3031SOL     OW 9670   7.525   4.463   2.345  0.8210 -0.3688  0.1523
 3031SOL    HW1 9671   7.620   4.473   2.346  1.0195 -2.0453  0.2904
 3031SOL    HW2 9672   7.494   4.523   2.414  1.6367  1.1668 -0.7679
 3032SOL     OW 9673   9.826   7.116   5.165  0.0188  0.6405 -0.0815
 3032SOL    HW1 9674   9.763   7.057   5.124  0.3061  1.4368 -1.7511
 3032SOL    HW2 9675   9.909   7.067   5.163  0.1960  0.9637 -1.2000
 3033SOL     OW 9676   0.725   8.495   7.886  0.1039  0.0697  0.1882
 3033SOL    HW1 9677   0.727   8.454   7.800  1.0455  0.2877  0.0965
 3033SOL    HW2 9678   0.805   8.548   7.890  1.9202 -2.5199  2.4523
 3034SOL     OW 9679   5.676   7.571   7.968 -0.0808  0.2770  0.2518
 3034SOL    HW1 9680   5.600   7.626   7.986 -0.8692 -0.6899 -0.0690
 3034SOL    HW2 9681   5.640   7.487   7.939  1.0257 -0.9682  2.1972
 3035SOL     OW 9682   4.364   8.143   4.450 -0.4159 -0.1370  0.5599
 3035SOL    HW1 9683   4.345   8.055   4.482  0.9149 -0.9421 -0.7333
 3035SOL    HW2 9684   4.459   8.151   4.459 -0.0433 -0.1934 -2.5398
 3036SOL     OW 9685   2.180   8.803   9.127 -0.3947 -0.7260  0.6289
 3036SOL    HW1 9686   2.259   8.792   9.180 -1.0365  0.0947  1.7873
 3036SOL    HW2 9687   2.212   8.811   9.037  0.6292 -3.8934  0.5813
 3037SOL     OW 9688   6.147   6.636   4.412 -0.6349  0.3352  0.4290
 3037SOL    HW1 9689   6.136   6.731   4.425 -2.0432  0.2370  0.0362
 3037SOL    HW2 9690   6.074   6.596   4.459 -1.3589 -0.4293 -1.2715
 3038SOL     OW 9691   6.022   9.299   0.527  0.7996  0.6471  0.0595
 3038SOL    HW1 9692   6.095   9.330   0.474  0.1894  0.1325 -1.1205
 3038SOL    HW2 9693   6.039   9.206   0.540  2.0541  1.1356  2.6594
 3039SOL     OW 9694   3.821   8.217   1.753 -0.0006  0.4884  0.3178
 3039SOL    HW1 9695   3.797   8.133   1.714  1.5307  0.3726 -0.4641
 3039SOL    HW2 9696   3.818   8.201   1.848  1.9688 -1.0168  0.2003
 3040SOL     OW 9697   8.436   2.501   1.391 -0.5388 -0.2017  0.1203
 3040SOL    HW1 9698   8.384   2.553   1.453 -0.7933  1.3680 -1.3396
 3040SOL    HW2 9699   8.376   2.431   1.364 -0.7710 -0.2981  0.8369
 3041SOL     OW 9700   1.956   4.421   1.331  0.6843  0.0696  0.4907
 3041SOL    HW1 9701   2.034   4.379   1.366  1.3035  1.0363  0.3291
 3041SOL    HW2 9702   1.986   4.507   1.301 -0.4432  0.4724  0.4355
 3042SOL     OW 9703   2.538   3.236   5.878  0.1637 -0.1554  0.1402
 3042SOL    HW1 9704   2.610   3.293   5.852  0.8690 -1.2613 -0.4188
 3042SOL    HW2 9705   2.542   3.234   5.973  0.5345  0.2284  0.1331
 3043SOL     OW 9706   1.153   1.870   1.286  0.5934  0.1434  0.1642
 3043SOL    HW1 9707   1.221   1.820   1.240 -0.3519 -1.4135  0.3742
 3043SOL    HW2 9708   1.193   1.897   1.368  0.6933 -1.6710  0.7652
 3044SOL     OW 9709   6.756   6.566   9.385 -0.1580  0.2032 -0.0494
 3044SOL    HW1 9710   6.775   6.592   9.295 -0.7017 -0.2812 -0.3048
 3044SOL    HW2 9711   6.722   6.646   9.426 -1.6792 -0.0168 -0.7947
 3045SOL     OW 9712   6.818   0.509   0.119 -0.0806 -0.6496  0.3655
 3045SOL    HW1 9713   6.765   0.430   0.107  1.2947 -1.4167 -0.9641
 3045SOL    HW2 9714   6.908   0.477   0.128  0.3623  0.7078  1.0156
 3046SOL     OW 9715   0.963   1.647   4.803 -0.3883  0.2581  0.0556
 3046SOL    HW1 9716   1.041   1.594   4.786 -0.6472 -0.1464  0.1059
 3046SOL    HW2 9717   0.899   1.584   4.837 -1.5153  0.1422 -2.1384
 3047SOL     OW 9718   0.371   4.620   4.863  0.4317 -0.4277 -0.4333
 3047SOL    HW1 9719   0.461   4.600   4.889  0.3813 -0.8512 -0.5628
 3047SOL    HW2 9720   0.346   4.545   4.809 -0.8032 -1.4633  1.4745
 3048SOL     OW 9721   8.952   4.596   3.110 -0.1480  0.1804 -0.8143
 3048SOL    HW1 9722   8.877   4.640   3.069 -0.8512  0.3755  0.6211
 3048SOL    HW2 9723   8.957   4.633   3.198  1.5109 -0.0036 -0.7942
 3049SOL     OW 9724   9.589   8.243   5.303 -0.5467  0.4146 -0.4667
 3049SOL    HW1 9725   9.651   8.313   5.322 -1.3285  0.7826  0.8765
 3049SOL    HW2 9726   9.589   8.188   5.381 -0.4914 -0.6874 -1.2142
 3050SOL     OW 9727   1.021   8.598   3.255 -0.6055  0.0265 -0.4694
 3050SOL    HW1 9728   0.944   8.654   3.245  0.1518  1.2054  0.0709
 3050SOL    HW2 9729   1.055   8.620   3.341  0.1290 -0.7736 -0.5395
 3051SOL     OW 9730   4.057   7.711   5.397 -0.0829 -0.2960 -0.0585
 3051SOL    HW1 9731   4.055   7.793   5.347 -3.2114  0.5470  1.1920
 3051SOL    HW2 9732   4.043   7.738   5.488 -0.9908 -2.1694  0.4144
 3052SOL     OW 9733   6.720   0.612   1.304  0.0326 -0.0174 -0.3933
 3052SOL    HW1 9734   6.802   0.623   1.256 -0.2253  0.6483 -0.7031
 3052SOL    HW2 9735   6.714   0.690   1.360 -0.6526  0.2329 -0.7931
 3053SOL     OW 9736   8.523   3.242   2.686 -0.0802  0.5444 -0.7382
 3053SOL    HW1 9737   8.554   3.154   2.708  1.4803  1.4872  1.1221
 3053SOL    HW2 9738   8.444   3.253   2.737  0.1418  0.4844 -0.3780
 3054SOL     OW 9739   7.319   3.419   3.290  0.1544  0.5277 -0.2789
 3054SOL    HW1 9740   7.400   3.410   3.341  0.4605  2.9184 -0.2077
 3054SOL    HW2 9741   7.339   3.381   3.205 -0.5050 -3.9913  1.3149
 3055SOL     OW 9742   4.914   8.130   1.402  0.1510 -0.6429 -0.0594
 3055SOL    HW1 9743   5.009   8.143   1.399  0.0164  0.2583 -1.4288
 3055SOL    HW2 9744   4.877   8.215   1.379 -0.9867 -1.1017  0.0047
 3056SOL     OW 9745   5.252   9.413   4.398 -0.3153 -0.5160 -0.4427
 3056SOL    HW1 9746   5.225   9.330   4.439 -1.0334 -1.4584 -2.6935
 3056SOL    HW2 9747   5.345   9.401   4.378 -0.4960 -0.8997 -1.0521
 3057SOL     OW 9748   9.156   2.502   7.388 -0.0628  0.0695  0.3292
 3057SOL    HW1 9749   9.144   2.577   7.331 -0.2682 -0.1801  0.0409
 3057SOL    HW2 9750   9.083   2.444   7.368 -0.2349  0.0532  0.9652
 3058SOL     OW 9751   0.190   2.131   2.350 -0.3368  0.0756  0.1427
 3058SOL    HW1 9752   0.107   2.097   2.317 -0.0391 -0.3741 -0.1427
 3058SOL    HW2 9753   0.204   2.086   2.433 -0.6059  0.4960  0.4212
 3059SOL     OW 9754   0.547   1.267   0.027  0.1171 -0.3327  0.2300
 3059SOL    HW1 9755   0.499   1.334  -0.021  1.9420  2.0809  1.5334
 3059SOL    HW2 9756   0.487   1.193   0.031 -1.8071  0.9766 -1.7716
 3060SOL     OW 9757   7.565   9.971   2.598 -0.4502  0.3066 -0.3193
 3060SOL    HW1 9758   7.523   9.974   2.512 -2.3103  1.8289  0.5729
 3060SOL    HW2 9759   7.655   9.997   2.582 -1.0881  1.8322 -1.6600
 3061SOL     OW 9760   7.622   2.318   4.559 -0.0359 -0.7210 -0.1489
 3061SOL    HW1 9761   7.670   2.247   4.601  1.9683 -0.3155 -1.6149
 3061SOL    HW2 9762   7.611   2.384   4.628 -0.7313 -1.8603  0.8604
 3062SOL     OW 9763   7.362   6.209   4.047  0.0368 -0.0569 -0.1010
 3062SOL    HW1 9764   7.378   6.302   4.032 -2.1186  0.9221  2.7546
 3062SOL    HW2 9765   7.376   6.197   4.141  0.2481 -2.6516 -0.3857
 3063SOL     OW 9766   6.147   6.932   1.736 -0.0664  0.0515 -0.2911
 3063SOL    HW1 9767   6.170   6.955   1.826  1.2890 -2.3645  0.0801
 3063SOL    HW2 9768   6.062   6.887   1.743 -0.6919  1.1663 -0.4626
 3064SOL     OW 9769   4.102   9.335   6.351 -0.4926  0.1518 -0.1423
 3064SOL    HW1 9770   4.047   9.410   6.332 -0.7497 -0.2666 -1.1599
 3064SOL    HW2 9771   4.043   9.269   6.388 -0.5438 -0.0367 -0.5501
 3065SOL     OW 9772   7.820   0.052   2.535  0.1558 -0.2761  0.2272
 3065SOL    HW1 9773   7.895   0.019   2.485  0.8299  1.0724  0.2996
 3065SOL    HW2 9774   7.812   0.143   2.509 -0.7673 -0.0964  1.0718
 3066SOL     OW 9775   9.921   2.997   6.532  0.3267  0.1655 -0.5540
 3066SOL    HW1 9776   9.995   3.051   6.560  0.8289 -0.9813  0.4084
 3066SOL    HW2 9777   9.912   2.931   6.600  0.1396 -1.3672 -1.9863
 3067SOL     OW 9778   3.231   2.293   5.849 -0.0282  0.2221 -0.0770
 3067SOL    HW1 9779   3.143   2.287   5.811  0.0294  1.0539 -0.3612
 3067SOL    HW2 9780   3.289   2.257   5.782 -0.0163  0.9306 -0.4630
 3068SOL     OW 9781   9.202   3.596   7.549 -0.3955  0.4907  0.3710
 3068SOL    HW1 9782   9.250   3.677   7.531 -0.3753  0.6431  1.0775
 3068SOL    HW2 9783   9.163   3.573   7.465  2.4657 -0.7077 -0.7631
 3069SOL     OW 9784   4.997   5.997   4.238 -0.1039 -0.3175 -0.8400
 3069SOL    HW1 9785   4.909   5.986   4.272 -0.3284  0.5839 -1.1024
 3069SOL    HW2 9786   5.055   5.977   4.311 -0.5425 -0.1948 -0.4603
 3070SOL     OW 9787   7.554   6.353   4.619  0.1434 -0.3523 -0.4140
 3070SOL    HW1 9788   7.612   6.365   4.544  1.6898  0.8304  0.9033
 3070SOL    HW2 9789   7.486   6.420   4.609  0.9681  0.5308 -0.2109
 3071SOL     OW 9790   1.000   0.879   9.596 -0.7433  0.1859 -0.1334
 3071SOL    HW1 9791   0.982   0.853   9.506 -0.3042  1.2135 -0.5368
 3071SOL    HW2 9792   1.086   0.841   9.614 -0.5256  0.5440 -0.3922
 3072SOL     OW 9793   5.833   1.551   1.986  0.0524  0.3935 -0.4410
 3072SOL    HW1 9794   5.761   1.536   1.924 -1.0106 -1.0296  1.0494
 3072SOL    HW2 9795   5.873   1.465   1.999  0.6475  0.7712  0.3684
 3073SOL     OW 9796   6.161   9.694   0.136  0.0113  0.1332  0.1003
 3073SOL    HW1 9797   6.155   9.788   0.155  1.0332  0.3985 -0.7830
 3073SOL    HW2 9798   6.143   9.686   0.043 -0.8225 -0.6579  0.3126
 3074SOL     OW 9799   9.084   2.423   8.108  0.3905  0.2950  0.3814
 3074SOL    HW1 9800   9.093   2.410   8.014  0.3041 -1.9928  0.6324
 3074SOL    HW2 9801   9.008   2.480   8.118 -0.0441 -0.0319 -0.9145
 3075SOL     OW 9802   2.068   3.208   9.983 -0.1272  0.6258  0.1684
 3075SOL    HW1 9803   2.033   3.187   9.897 -0.2530 -0.6578  0.5135
 3075SOL    HW2 9804   2.097   3.124  10.019  0.6532  1.2456  1.0616
 3076SOL     OW 9805   7.367   4.566   6.574 -0.1634 -0.0401 -0.3175
 3076SOL    HW1 9806   7.427   4.549   6.502 -1.3367 -1.7348 -0.9632
 3076SOL    HW2 9807   7.303   4.629   6.537 -1.8363 -2.2648 -1.4873
 3077SOL     OW 9808   8.716   1.932   7.588  0.2879 -0.0393  0.0167
 3077SOL    HW1 9809   8.742   2.021   7.614  0.3266 -0.3438  1.0812
 3077SOL    HW2 9810   8.621   1.931   7.595  0.2460  0.0863 -0.5534
 3078SOL     OW 9811   4.634   4.040   6.262 -0.6319  0.1029 -0.2278
 3078SOL    HW1 9812   4.675   4.121   6.230 -0.2214  0.1032  0.2736
 3078SOL    HW2 9813   4.580   4.069   6.335  1.1871 -0.3066  1.3714
 3079SOL     OW 9814   7.500   9.908   8.472  0.4356  0.2167 -0.1405
 3079SOL    HW1 9815   7.478   9.979   8.533 -0.1119 -0.5351  0.5581
 3079SOL    HW2 9816   7.429   9.909   8.408  1.6854  1.8796 -1.6206
 3080SOL     OW 9817   5.618   1.979   3.687  0.7946  0.7446  0.5909
 3080SOL    HW1 9818   5.689   2.011   3.742  0.4052  0.3584  1.3332
 3080SOL    HW2 9819   5.645   2.000   3.598  3.1925 -1.8529  0.5475
 3081SOL     OW 9820   3.808   6.810   6.510  0.6549  0.0184  0.6925
 3081SOL    HW1 9821   3.888   6.781   6.467 -0.1029  0.3867 -1.0815
 3081SOL    HW2 9822   3.741   6.747   6.482  0.4099 -0.6564  2.6448
 3082SOL     OW 9823   9.343   7.490   0.734 -0.3094 -0.4913 -0.0945
 3082SOL    HW1 9824   9.429   7.509   0.771  0.3832 -0.2744 -1.7598
 3082SOL    HW2 9825   9.286   7.559   0.767 -0.3384 -1.6088  2.4831
 3083SOL     OW 9826   9.431   6.055   1.090 -0.3198  0.2075 -0.0144
 3083SOL    HW1 9827   9.389   6.137   1.116  1.2309  0.5491  1.5843
 3083SOL    HW2 9828   9.445   6.064   0.996  1.8834  2.8358  0.4268
 3084SOL     OW 9829   5.484   0.698   9.074 -0.3767  0.3920  0.1660
 3084SOL    HW1 9830   5.436   0.723   9.153 -0.0161 -1.8373  1.1447
 3084SOL    HW2 9831   5.415   0.681   9.009 -0.7172  1.1765  0.3100
 3085SOL     OW 9832   5.790   1.211   6.682  0.0774 -0.5964  0.2476
 3085SOL    HW1 9833   5.725   1.279   6.664  0.0861 -0.8211 -0.6870
 3085SOL    HW2 9834   5.781   1.150   6.609 -0.4173 -1.9879  1.4124
 3086SOL     OW 9835   1.746   7.897   6.343 -0.3834 -0.3309 -0.3265
 3086SOL    HW1 9836   1.674   7.836   6.324 -1.5736  0.9810 -0.1455
 3086SOL    HW2 9837   1.721   7.979   6.300  0.4231  0.5131  0.7596
 3087SOL     OW 9838   9.624   2.476   2.379 -0.5111 -0.0180 -0.0956
 3087SOL    HW1 9839   9.567   2.494   2.304 -2.8976  1.0293  1.8279
 3087SOL    HW2 9840   9.605   2.546   2.441  0.1981 -1.6597  2.1026
 3088SOL     OW 9841   0.295   9.180   5.837  0.1086  0.0843  0.5068
 3088SOL    HW1 9842   0.257   9.093   5.824 -0.1316  0.0295  1.4650
 3088SOL    HW2 9843   0.319   9.182   5.929 -1.7396  1.7326  1.0359
 3089SOL     OW 9844   8.970   0.553   9.089  0.0409  0.3085 -0.2574
 3089SOL    HW1 9845   8.969   0.529   8.997  1.1043  2.7144 -0.9863
 3089SOL    HW2 9846   8.914   0.631   9.094  1.2106  1.1297  0.8056
 3090SOL     OW 9847   4.886   7.273   3.146 -0.5520 -0.0438  0.7068
 3090SOL    HW1 9848   4.868   7.367   3.148  0.0488  0.0564  2.0498
 3090SOL    HW2 9849   4.814   7.234   3.195 -1.4524 -0.4340 -0.8416
 3091SOL     OW 9850   9.489   2.268   3.368  0.7148  0.0403 -0.1079
 3091SOL    HW1 9851   9.566   2.217   3.342  0.2653 -0.0075 -1.4075
 3091SOL    HW2 9852   9.493   2.346   3.313  0.5736  0.6987  0.8007
 3092SOL     OW 9853   0.039   7.945   5.419  0.1728  0.3496  0.0763
 3092SOL    HW1 9854  -0.002   8.031   5.412  0.3974  0.3821 -1.1105
 3092SOL    HW2 9855   0.017   7.914   5.507  1.5795  2.3769  1.2333
 3093SOL     OW 9856   0.874   7.702   5.132 -0.1942 -0.4090 -0.1853
 3093SOL    HW1 9857   0.962   7.733   5.109  0.4174 -2.0215 -0.1456
 3093SOL    HW2 9858   0.815   7.765   5.090  0.9594  0.1402 -1.0513
 3094SOL     OW 9859   3.278   5.593   2.141  0.1747  0.1918 -0.1299
 3094SOL    HW1 9860   3.342   5.632   2.200 -0.2447  1.0435 -0.2230
 3094SOL    HW2 9861   3.325   5.583   2.058 -0.4784  3.2236 -0.9821
 3095SOL     OW 9862   4.671   3.554   6.550 -1.0555 -0.0670  0.8610
 3095SOL    HW1 9863   4.659   3.495   6.625 -1.3545 -0.4247  0.5354
 3095SOL    HW2 9864   4.656   3.642   6.586  0.1235 -0.1107  1.5179
 3096SOL     OW 9865   5.690   0.328   8.433 -0.1327 -0.5887 -0.3123
 3096SOL    HW1 9866   5.758   0.268   8.464  1.8293  0.8058 -1.6468
 3096SOL    HW2 9867   5.683   0.309   8.339 -1.6576 -0.7161 -0.1976
 3097SOL     OW 9868   7.213   8.505   2.560 -0.4589  0.6503  0.0149
 3097SOL    HW1 9869   7.217   8.410   2.546  2.4277  0.8647 -1.1895
 3097SOL    HW2 9870   7.157   8.537   2.489 -0.5593 -0.0273 -0.2205
 3098SOL     OW 9871   7.565   0.739   8.099  0.3330 -0.2455 -0.0186
 3098SOL    HW1 9872   7.485   0.760   8.147  1.1105 -1.2155  1.8061
 3098SOL    HW2 9873   7.534   0.703   8.016 -1.1311 -0.7253  0.6989
 3099SOL     OW 9874   8.034   6.711   8.967  0.1852 -0.6257 -0.1038
 3099SOL    HW1 9875   8.102   6.735   9.030 -0.2093 -1.2269  0.5635
 3099SOL    HW2 9876   8.046   6.617   8.953 -0.4986 -0.7368  0.0129
 3100SOL     OW 9877   8.995   1.807   4.391 -0.3046  0.0455  0.0787
 3100SOL    HW1 9878   9.046   1.808   4.472  0.4072 -2.5041 -0.2491
 3100SOL    HW2 9879   8.972   1.898   4.377  1.7668  0.9368  1.7669
 3101SOL     OW 9880   1.199   4.291   5.086 -0.0839  0.3601 -0.4026
 3101SOL    HW1 9881   1.184   4.215   5.030  0.7055 -0.6140  0.6544
 3101SOL    HW2 9882   1.127   4.288   5.150  0.7945 -0.4364  0.5885
 3102SOL     OW 9883   4.783   0.870   1.818 -0.3720 -0.5466  0.0016
 3102SOL    HW1 9884   4.839   0.838   1.748 -0.2460 -2.9173  1.0877
 3102SOL    HW2 9885   4.700   0.822   1.806 -0.6036 -0.4122  0.9965
 3103SOL     OW 9886   5.677   4.177   0.359  0.6224  0.1647  0.5148
 3103SOL    HW1 9887   5.699   4.248   0.300  1.5924  0.9146  1.7240
 3103SOL    HW2 9888   5.747   4.113   0.349  0.8286  0.3266  0.8943
 3104SOL     OW 9889   0.803   2.731   5.985 -0.4111 -0.5579 -0.4958
 3104SOL    HW1 9890   0.805   2.817   6.026 -1.6027 -0.0101 -1.5187
 3104SOL    HW2 9891   0.884   2.689   6.013  0.3520  1.0159 -0.2435
 3105SOL     OW 9892   9.540   0.459   7.307 -0.3689 -0.0642  0.0090
 3105SOL    HW1 9893   9.550   0.427   7.218  0.8003 -1.6023  0.6513
 3105SOL    HW2 9894   9.512   0.550   7.297  0.2233 -0.0553 -1.9232
 3106SOL     OW 9895   1.436   8.939   3.053  0.1025  0.1035 -0.5217
 3106SOL    HW1 9896   1.495   8.918   3.126 -0.8192 -0.1430  0.1799
 3106SOL    HW2 9897   1.470   8.889   2.979  2.0477  1.6582 -0.7458
 3107SOL     OW 9898   8.120   8.991   3.647  0.4570  0.6691 -0.6820
 3107SOL    HW1 9899   8.034   8.951   3.635  0.0162  1.6635 -0.9545
 3107SOL    HW2 9900   8.144   9.022   3.560  1.5226 -0.3991 -0.7994
 3108SOL     OW 9901   8.574   2.080   8.246 -0.4740 -0.5542  0.2771
 3108SOL    HW1 9902   8.611   2.147   8.188  1.1136 -1.0168  0.7193
 3108SOL    HW2 9903   8.632   2.078   8.321 -0.8901 -1.9562  0.5901
 3109SOL     OW 9904   0.237   5.534   4.005 -0.0658 -0.0280  0.1505
 3109SOL    HW1 9905   0.190   5.453   3.984  2.5202 -1.3679 -0.9391
 3109SOL    HW2 9906   0.313   5.534   3.946  1.0906  2.2028  1.4903
 3110SOL     OW 9907   7.352   8.790   1.377  0.1520  0.2408  0.1821
 3110SOL    HW1 9908   7.426   8.786   1.316  1.5386  2.5467  1.5827
 3110SOL    HW2 9909   7.392   8.787   1.464 -1.7532 -2.4618  1.0823
 3111SOL     OW 9910   4.383   0.593   0.710  0.1763 -0.1027 -0.0545
 3111SOL    HW1 9911   4.412   0.675   0.670 -0.8234 -0.0787 -0.7718
 3111SOL    HW2 9912   4.416   0.525   0.650 -1.1114 -0.0806 -0.8177
 3112SOL     OW 9913   1.275   4.982   6.360 -0.2852 -0.0130  0.2412
 3112SOL    HW1 9914   1.220   5.020   6.428  1.8043  0.9163  1.4940
 3112SOL    HW2 9915   1.257   5.035   6.282  0.4149  1.6993  1.2036
 3113SOL     OW 9916   5.540   5.400   2.278  0.1183  0.1419 -0.1708
 3113SOL    HW1 9917   5.533   5.316   2.323  0.6818  0.0781 -0.1973
 3113SOL    HW2 9918   5.450   5.422   2.254 -0.1867  0.1335  0.8982
 3114SOL     OW 9919   1.169   7.789   4.187  0.5647 -0.1443 -0.2759
 3114SOL    HW1 9920   1.108   7.749   4.248  1.0465 -0.9863 -0.3397
 3114SOL    HW2 9921   1.256   7.764   4.219  0.8246 -0.5424 -1.2599
 3115SOL     OW 9922   5.972   1.633   8.701  0.7993  0.2448 -0.3559
 3115SOL    HW1 9923   6.049   1.581   8.680  2.0326  1.8055  0.0908
 3115SOL    HW2 9924   5.999   1.723   8.686 -0.2066  1.0049  1.9755
 3116SOL     OW 9925   5.791   0.921   8.876  0.0929  0.2874  0.3938
 3116SOL    HW1 9926   5.802   0.935   8.782  2.2579  0.9679  0.6917
 3116SOL    HW2 9927   5.720   0.981   8.901 -0.4499  0.1594 -0.7687
 3117SOL     OW 9928   5.736   6.757   6.348  0.2077 -0.2048  0.3251
 3117SOL    HW1 9929   5.776   6.712   6.422 -1.1494 -0.5033  0.9110
 3117SOL    HW2 9930   5.794   6.831   6.330  0.4192  0.0330  1.8716
 3118SOL     OW 9931   4.949   8.931   0.708 -0.1454  0.2333  0.1553
 3118SOL    HW1 9932   5.035   8.915   0.746 -0.2079  2.1569  1.2238
 3118SOL    HW2 9933   4.956   8.899   0.618  2.1354  1.6064 -0.2285
 3119SOL     OW 9934   9.849   0.522   3.908 -0.5112 -0.0268 -0.6150
 3119SOL    HW1 9935   9.786   0.486   3.971 -0.6514 -0.4214 -0.9750
 3119SOL    HW2 9936   9.875   0.606   3.946 -1.0142 -0.0057 -0.3015
 3120SOL     OW 9937   8.844   1.664   5.202 -0.1438  0.0563 -0.9180
 3120SOL    HW1 9938   8.906   1.709   5.146  3.5698 -3.1935  0.0742
 3120SOL    HW2 9939   8.848   1.712   5.285  0.2959  0.4850 -1.1796
 3121SOL     OW 9940   9.177   8.758   5.881 -0.7016 -0.1548 -0.2065
 3121SOL    HW1 9941   9.219   8.761   5.795  0.5513  2.8220  0.3932
 3121SOL    HW2 9942   9.099   8.813   5.872 -1.6957 -1.4553  0.0843
 3122SOL     OW 9943   2.551   2.882   3.461 -0.0619 -0.2332  0.3045
 3122SOL    HW1 9944   2.581   2.838   3.541 -1.3537 -0.8670  0.4615
 3122SOL    HW2 9945   2.488   2.948   3.492  0.4882  0.4947 -0.0900
 3123SOL     OW 9946   6.690   1.702   5.729  0.0847  0.2553  0.0916
 3123SOL    HW1 9947   6.771   1.729   5.684  0.6840 -1.8590 -0.1884
 3123SOL    HW2 9948   6.720   1.659   5.808 -0.7052 -1.3658 -0.4610
 3124SOL     OW 9949   1.346   2.197   7.876 -0.2047 -0.5469 -0.2952
 3124SOL    HW1 9950   1.336   2.123   7.817 -0.9462 -0.1795 -0.6445
 3124SOL    HW2 9951   1.437   2.191   7.906  0.2914 -0.5759 -1.6997
 3125SOL     OW 9952   6.409   4.935   3.529 -0.1913 -0.0111 -0.6820
 3125SOL    HW1 9953   6.323   4.902   3.555  0.0280 -0.3947 -0.4399
 3125SOL    HW2 9954   6.454   4.953   3.611  0.0157  0.0476 -0.8077
 3126SOL     OW 9955   4.028   5.237   9.903  0.8738  0.7193 -0.4253
 3126SOL    HW1 9956   3.978   5.161   9.935  1.5395 -0.1929 -1.4793
 3126SOL    HW2 9957   3.963   5.291   9.858  0.6205  0.1354 -0.7692
 3127SOL     OW 9958   8.468   3.219   4.974 -0.3647  0.2584  0.1502
 3127SOL    HW1 9959   8.549   3.184   4.937  0.5198  1.0971  1.2174
 3127SOL    HW2 9960   8.399   3.180   4.920  0.7881  0.6419 -1.7297
 3128SOL     OW 9961   1.722   7.050   2.034 -0.3547 -0.2206  0.7975
 3128SOL    HW1 9962   1.654   7.080   2.094  0.7087 -0.1320  1.9854
 3128SOL    HW2 9963   1.802   7.091   2.066  0.6966 -2.2565  0.9129
 3129SOL     OW 9964   2.575   4.430   1.513 -0.1413 -0.0981  0.0920
 3129SOL    HW1 9965   2.533   4.515   1.506 -0.0124 -0.0317  0.1249
 3129SOL    HW2 9966   2.509   4.368   1.480  0.0844  0.0969 -0.7371
 3130SOL     OW 9967   0.840   6.051   4.361  0.7044  0.3485 -0.0751
 3130SOL    HW1 9968   0.833   6.118   4.429  1.2414  1.3552 -0.9829
 3130SOL    HW2 9969   0.752   6.015   4.353  0.5537  0.4647  0.8772
 3131SOL     OW 9970   4.822   3.552   6.296 -0.0303  0.6947 -0.6063
 3131SOL    HW1 9971   4.762   3.615   6.255 -0.3967  0.9444  0.2852
 3131SOL    HW2 9972   4.801   3.556   6.390  1.8612  1.3055 -0.1654
 3132SOL     OW 9973   8.704   6.027   0.757  0.0152 -0.0675 -0.1512
 3132SOL    HW1 9974   8.757   6.074   0.693 -0.4882  2.6334  1.2972
 3132SOL    HW2 9975   8.726   6.067   0.841 -1.0013 -1.9879  1.1186
 3133SOL     OW 9976   3.034   5.406   7.368 -0.6653 -0.9798  0.5972
 3133SOL    HW1 9977   3.072   5.364   7.290  0.4991 -2.6541  1.9957
 3133SOL    HW2 9978   3.067   5.496   7.364 -1.5257 -0.6861 -1.3793
 3134SOL     OW 9979   5.083   1.465   2.249  0.6287  0.4628 -0.1533
 3134SOL    HW1 9980   5.154   1.424   2.300 -1.5596 -1.5547  1.4830
 3134SOL    HW2 9981   5.092   1.428   2.161  0.7440 -0.9470  0.4269
 3135SOL     OW 9982   7.568   3.610   7.578  0.0287  0.3144  0.1915
 3135SOL    HW1 9983   7.631   3.538   7.572  0.6443  0.8405  0.1808
 3135SOL    HW2 9984   7.482   3.568   7.571  0.3949 -0.3451 -0.5109
 3136SOL     OW 9985   7.618   0.314   8.302  0.7072 -0.6909 -0.6133
 3136SOL    HW1 9986   7.594   0.403   8.276  1.1391 -0.7305 -1.1787
 3136SOL    HW2 9987   7.555   0.258   8.258 -0.3354 -0.6169  0.7188
 3137SOL     OW 9988   9.043   5.654   5.917  0.1407  0.4429 -0.3920
 3137SOL    HW1 9989   9.028   5.577   5.971  0.4410  0.6060 -0.0693
 3137SOL    HW2 9990   9.122   5.693   5.953 -1.9543  2.9701  1.8720
 3138SOL     OW 9991   6.891   9.655   2.219  0.5197  0.6375 -0.0740
 3138SOL    HW1 9992   6.883   9.643   2.314 -0.4386  4.6182  0.5284
 3138SOL    HW2 9993   6.984   9.642   2.201  0.8913  0.7053  1.6089
 3139SOL     OW 9994   5.091   3.542   5.373  0.8753 -0.1216 -0.1820
 3139SOL    HW1 9995   5.182   3.567   5.390  0.2075  1.4832  1.3726
 3139SOL    HW2 9996   5.060   3.505   5.456 -0.8635  2.6737  0.5593
 3140SOL     OW 9997   9.568   3.737   7.169 -0.2675 -0.0385 -0.7268
 3140SOL    HW1 9998   9.608   3.797   7.106  1.5585 -1.0058 -0.5714
 3140SOL    HW2 9999   9.533   3.666   7.115 -0.4471  0.0848 -0.7726
 3141SOL     OW10000   1.941   2.324   9.115 -0.7267 -0.1693  0.0957
 3141SOL    HW110001   1.911   2.233   9.113 -0.2442 -0.3214 -0.8034
 3141SOL    HW210002   1.891   2.368   9.047  1.1470 -0.4732 -1.5681
 3142SOL     OW10003   0.537   4.073   1.940 -0.2875 -0.3875 -0.6136
 3142SOL    HW110004   0.478   4.033   2.004 -0.3479 -1.2908 -1.2161
 3142SOL    HW210005   0.614   4.098   1.991  0.0866 -2.0075 -0.3508
 3143SOL     OW10006   8.979   3.266   1.400  0.0848 -0.0409 -0.2134
 3143SOL    HW110007   8.886   3.264   1.381  0.3309 -2.0218 -1.5212
 3143SOL    HW210008   9.005   3.357   1.384 -1.5423  0.4712 -0.1002
 3144SOL     OW10009   5.481   5.720   2.276 -0.0122 -0.7862 -0.0501
 3144SOL    HW110010   5.395   5.737   2.315 -0.6262  0.3232 -1.8059
 3144SOL    HW210011   5.475   5.629   2.245 -0.0750 -1.1343  0.9129
 3145SOL     OW10012   1.790   4.538   5.244 -0.3436  0.2050 -0.3505
 3145SOL    HW110013   1.772   4.593   5.168  1.0162  0.6982 -0.3425
 3145SOL    HW210014   1.883   4.551   5.262 -0.7154  0.4472  1.6526
 3146SOL     OW10015   8.710   9.336   1.655 -0.4117 -0.2560  0.0229
 3146SOL    HW110016   8.677   9.412   1.704  1.0021 -0.0059  0.6409
 3146SOL    HW210017   8.771   9.294   1.715 -0.9374 -1.7294 -0.4318
 3147SOL     OW10018   0.521   7.975   0.479 -0.7142  0.3891 -0.3299
 3147SOL    HW110019   0.455   7.998   0.545 -0.0498  3.2469 -0.5321
 3147SOL    HW210020   0.576   7.909   0.522 -2.4518 -0.5521  0.5655
 3148SOL     OW10021   7.912   1.706   2.726  0.3148  0.2834  0.6961
 3148SOL    HW110022   7.955   1.762   2.790 -0.1891 -0.1930  1.4694
 3148SOL    HW210023   7.828   1.683   2.766  0.6832 -1.3505  0.5871
 3149SOL     OW10024   4.786   3.400   3.152 -0.5692  0.7587 -0.2194
 3149SOL    HW110025   4.841   3.366   3.223  1.8451  1.5482 -1.5972
 3149SOL    HW210026   4.736   3.471   3.193  0.6158  1.0630  0.7825
 3150SOL     OW10027   9.650   7.228   1.632  0.4312  0.2490 -0.1630
 3150SOL    HW110028   9.646   7.179   1.714  0.3384 -0.8720 -0.8236
 3150SOL    HW210029   9.732   7.278   1.638  0.7103 -0.2643  0.3734
 3151SOL     OW10030   5.822   8.946   6.009 -0.0265  0.0229  0.0585
 3151SOL    HW110031   5.744   8.944   6.065  0.2631  2.3488  0.6632
 3151SOL    HW210032   5.797   9.001   5.934  0.5734 -0.4275 -0.4843
 3152SOL     OW10033   1.307   1.958   4.491  0.9585  0.1047 -0.6982
 3152SOL    HW110034   1.396   1.930   4.513  0.0955 -2.7957 -0.4751
 3152SOL    HW210035   1.277   2.005   4.569  1.3136 -1.4751  0.4346
 3153SOL     OW10036   8.116   8.196   9.913 -0.2811 -0.3484  0.0068
 3153SOL    HW110037   8.165   8.187   9.831 -1.3578 -0.5687 -0.6340
 3153SOL    HW210038   8.174   8.160   9.979  0.3444 -0.8076 -0.7679
 3154SOL     OW10039   6.795   1.351   6.061 -0.0855  0.2028  0.4228
 3154SOL    HW110040   6.727   1.372   5.997 -1.1901 -0.7434  1.2272
 3154SOL    HW210041   6.863   1.416   6.046 -0.2866 -0.0028 -1.7071
 3155SOL     OW10042   7.696   4.021   0.272 -0.1355  0.7871  0.4712
 3155SOL    HW110043   7.739   4.016   0.187 -0.7537 -0.6514  0.2169
 3155SOL    HW210044   7.742   4.092   0.318  2.0529 -0.2027 -0.0366
 3156SOL     OW10045   8.401   1.760   9.320 -0.1765  0.1124  0.1332
 3156SOL    HW110046   8.357   1.681   9.288 -0.5127  1.4397 -3.0633
 3156SOL    HW210047   8.355   1.833   9.278  2.0219  1.8411  0.4937
 3157SOL     OW10048   9.908   3.015   1.908 -0.4775 -0.3517  0.2272
 3157SOL    HW110049   9.960   3.032   1.986 -1.1103  1.4122  0.3125
 3157SOL    HW210050   9.842   3.084   1.907 -1.8306 -1.5898 -0.7330
 3158SOL     OW10051   9.140   9.400   9.382  0.1918 -0.2270 -0.0160
 3158SOL    HW110052   9.192   9.324   9.357  0.6312  0.4402 -1.1949
 3158SOL    HW210053   9.052   9.365   9.398  0.3111 -0.9420 -0.8433
 3159SOL     OW10054   0.580   6.204   8.767  0.0954 -0.1956 -0.0214
 3159SOL    HW110055   0.669   6.235   8.785  0.2541 -0.3806 -0.4779
 3159SOL    HW210056   0.542   6.187   8.854  1.4759 -2.8945  0.1355
 3160SOL     OW10057   7.280   6.708   9.230 -0.0596  0.7639 -0.3847
 3160SOL    HW110058   7.370   6.680   9.212  0.5570  0.9018  2.0820
 3160SOL    HW210059   7.242   6.637   9.282 -2.0207 -0.0589 -2.7379
 3161SOL     OW10060   4.361   8.129   5.540 -0.0505  0.3103 -0.2730
 3161SOL    HW110061   4.345   8.166   5.453 -1.3268  1.7940  0.5367
 3161SOL    HW210062   4.299   8.057   5.547  1.0107 -0.7245 -1.0756
 3162SOL     OW10063   0.677   6.473   9.676 -0.5336  0.3215 -0.0979
 3162SOL    HW110064   0.604   6.419   9.645 -0.2542 -0.3541  0.3865
 3162SOL    HW210065   0.745   6.463   9.608  0.2669 -1.5558  0.9112
 3163SOL     OW10066   4.664   4.505   3.871  0.3769  0.2197 -0.0616
 3163SOL    HW110067   4.603   4.578   3.872 -0.9694 -0.8396 -0.4368
 3163SOL    HW210068   4.727   4.527   3.802 -0.4388  0.7069 -0.6832
 3164SOL     OW10069   2.184   7.475   2.650 -0.7126 -0.1698 -0.0978
 3164SOL    HW110070   2.104   7.478   2.702 -0.3311  0.5678  0.4661
 3164SOL    HW210071   2.205   7.567   2.635  0.3586 -0.3519  0.2700
 3165SOL     OW10072   5.769   2.880   6.702  0.3425 -0.5608  0.0081
 3165SOL    HW110073   5.727   2.900   6.619 -0.7662 -1.1155  0.4187
 3165SOL    HW210074   5.825   2.956   6.720 -0.0184 -0.0839 -0.8493
 3166SOL     OW10075   6.267   4.739   2.624 -0.2461 -0.5367  0.1450
 3166SOL    HW110076   6.297   4.796   2.695  3.6963 -0.9112 -0.9616
 3166SOL    HW210077   6.214   4.796   2.568 -1.6614  0.2971  2.2186
 3167SOL     OW10078   5.702   8.831   7.319 -0.1656  0.0021  0.0746
 3167SOL    HW110079   5.751   8.751   7.304 -1.7449 -0.6325 -2.3045
 3167SOL    HW210080   5.730   8.890   7.249 -3.7053 -0.9469 -2.3980
 3168SOL     OW10081   9.879   7.484   8.910  0.5534 -0.3564  0.3464
 3168SOL    HW110082   9.895   7.480   8.816 -2.7136 -0.7557 -0.3292
 3168SOL    HW210083   9.847   7.396   8.933  2.7190 -0.7435  2.2077
 3169SOL     OW10084   2.322   1.046   4.596 -0.0202 -0.1840  0.1885
 3169SOL    HW110085   2.391   1.097   4.639  0.1904  0.1278 -0.5028
 3169SOL    HW210086   2.283   1.107   4.533 -0.3726 -0.6057 -0.0059
 3170SOL     OW10087   4.055   5.591   5.286  0.0278 -0.7504 -0.3253
 3170SOL    HW110088   4.031   5.624   5.373  0.9413 -1.2431  0.1405
 3170SOL    HW210089   3.973   5.560   5.248 -0.3042 -1.0325  0.5897
 3171SOL     OW10090   2.348   8.109   5.251 -0.2049  0.4169 -0.4284
 3171SOL    HW110091   2.427   8.157   5.229 -0.8084  0.8243 -1.8238
 3171SOL    HW210092   2.363   8.020   5.221  0.5202 -0.0780  1.2503
 3172SOL     OW10093   9.873   6.491   8.693 -0.0713  0.6273 -0.0985
 3172SOL    HW110094   9.967   6.500   8.705  0.0354  0.3194 -0.6837
 3172SOL    HW210095   9.843   6.442   8.770  0.4974 -0.7077 -0.6857
 3173SOL     OW10096   6.247   0.479   8.201 -1.0152  0.1746 -0.0138
 3173SOL    HW110097   6.181   0.476   8.269 -1.6527 -0.1859 -0.6378
 3173SOL    HW210098   6.265   0.572   8.189 -0.4556  0.2210  1.0531
 3174SOL     OW10099   6.990   5.112   8.365 -0.0996 -0.2605  0.1559
 3174SOL    HW110100   6.990   5.194   8.413 -0.1749 -0.5037  0.5710
 3174SOL    HW210101   7.083   5.086   8.361  0.3427  1.3190 -2.5251
 3175SOL     OW10102   1.412   9.522   4.052 -0.3362 -1.0082 -0.4432
 3175SOL    HW110103   1.355   9.446   4.042  0.8170 -1.9758  0.1462
 3175SOL    HW210104   1.407   9.567   3.967 -1.7182 -1.2364 -0.4928
 3176SOL     OW10105   7.603   2.152   4.940  0.1915 -0.4500 -0.1295
 3176SOL    HW110106   7.631   2.167   5.030 -0.9533  0.3065  0.1164
 3176SOL    HW210107   7.561   2.066   4.941 -0.6149 -0.0578  0.2633
 3177SOL     OW10108   6.025   3.642   1.540  0.0904  0.0773  0.5187
 3177SOL    HW110109   5.945   3.610   1.498 -0.4261 -0.3151  1.7510
 3177SOL    HW210110   6.060   3.565   1.586  0.2542  0.6440  1.3703
 3178SOL     OW10111   2.966   1.240   4.674  0.0034  0.3009 -0.0780
 3178SOL    HW110112   2.923   1.239   4.589  0.5730  0.3775 -0.3744
 3178SOL    HW210113   3.029   1.169   4.671 -2.5434 -2.2568  1.6937
 3179SOL     OW10114   0.684   7.231   7.383  0.4666 -0.0927  0.5663
 3179SOL    HW110115   0.662   7.322   7.364  1.2714 -0.0064 -0.0044
 3179SOL    HW210116   0.772   7.235   7.420  0.5973 -0.6545  0.3213
 3180SOL     OW10117   8.129   4.604   1.268  0.9369  0.4945  0.3555
 3180SOL    HW110118   8.199   4.625   1.330  1.5110  0.6746 -0.3323
 3180SOL    HW210119   8.053   4.585   1.323  1.8647 -1.0363  1.1984
 3181SOL     OW10120   8.262   0.370   9.236 -0.5304 -0.7129 -0.4976
 3181SOL    HW110121   8.345   0.391   9.193  0.2397 -0.8979  0.8507
 3181SOL    HW210122   8.198   0.429   9.195  0.9863  2.2117  1.0473
 3182SOL     OW10123   0.601   8.646   9.397 -0.6150 -0.0841  0.5851
 3182SOL    HW110124   0.513   8.648   9.359 -1.0285 -1.1669  1.4589
 3182SOL    HW210125   0.640   8.566   9.363 -0.2378  0.0069  0.8020
 3183SOL     OW10126   4.852   6.260   3.435  0.3949  0.0809 -0.1092
 3183SOL    HW110127   4.886   6.193   3.375 -0.5819  0.0867 -0.6779
 3183SOL    HW210128   4.806   6.211   3.503  1.0761  0.1012  0.3768
 3184SOL     OW10129   7.020   6.066   9.836 -0.2590  0.4028 -0.4336
 3184SOL    HW110130   7.103   6.061   9.787 -1.0839  1.4225 -2.0129
 3184SOL    HW210131   7.032   6.005   9.909  1.3459 -0.5798 -1.4461
 3185SOL     OW10132   0.899   0.688   3.317 -0.2986  0.0811 -0.6931
 3185SOL    HW110133   0.938   0.666   3.401  1.7576  2.9897 -0.7293
 3185SOL    HW210134   0.805   0.692   3.334 -0.0319 -0.5176  1.1439
 3186SOL     OW10135   2.455   9.941   9.963  0.0148 -0.1613  0.1332
 3186SOL    HW110136   2.457   9.918   9.870  2.0688  1.4114 -0.2822
 3186SOL    HW210137   2.361   9.941   9.985 -0.8374  2.2362 -2.7250
 3187SOL     OW10138   9.495   8.419   4.914 -0.2939  0.0093  0.2705
 3187SOL    HW110139   9.405   8.427   4.947  0.0847 -0.7492  1.5536
 3187SOL    HW210140   9.488   8.442   4.821 -2.0823 -1.4158 -0.0118
 3188SOL     OW10141   7.882   3.610   9.895 -0.6245 -0.8385 -0.0863
 3188SOL    HW110142   7.894   3.607   9.990 -1.8804 -1.8683  0.0651
 3188SOL    HW210143   7.798   3.567   9.880 -1.0399  0.3951 -1.5708
 3189SOL     OW10144   4.481   4.739   9.434 -0.6693 -0.0359  0.7889
 3189SOL    HW110145   4.396   4.772   9.463 -0.8527 -0.8304  1.1814
 3189SOL    HW210146   4.538   4.746   9.511 -0.5978 -0.2419  0.7564
 3190SOL     OW10147   8.398   3.989   6.972  0.2104  0.1054 -0.2953
 3190SOL    HW110148   8.419   4.083   6.967 -0.3092  0.4510  2.3085
 3190SOL    HW210149   8.332   3.975   6.904  0.5079  1.5745 -0.9181
 3191SOL     OW10150   3.623   5.511   2.615 -0.2386 -0.1072 -0.0493
 3191SOL    HW110151   3.719   5.508   2.616 -0.1308  1.6862  1.9031
 3191SOL    HW210152   3.597   5.443   2.677 -0.2257 -0.3737 -0.3338
 3192SOL     OW10153   0.964   2.527   1.493  0.4158  0.3034  0.0549
 3192SOL    HW110154   0.982   2.606   1.543 -1.8019 -0.2815  1.9590
 3192SOL    HW210155   0.870   2.530   1.476  0.4701 -1.4094 -0.7868
 3193SOL     OW10156   6.236   5.500   7.779 -0.4395  0.4764 -0.5556
 3193SOL    HW110157   6.240   5.582   7.828 -1.7672 -0.4947  1.3377
 3193SOL    HW210158   6.152   5.503   7.734  0.0935  0.6977 -1.5485
 3194SOL     OW10159   8.953   3.024   2.862  0.1213 -0.2659 -0.1354
 3194SOL    HW110160   8.999   2.980   2.789  0.6224 -1.8823  1.0849
 3194SOL    HW210161   9.023   3.044   2.925 -0.4428  0.1672  0.3595
 3195SOL     OW10162   7.926   4.081   5.258 -0.5424 -0.1559 -0.2844
 3195SOL    HW110163   7.960   3.998   5.294 -0.5701  0.4209  1.1382
 3195SOL    HW210164   7.974   4.149   5.305 -0.1128  0.6739 -1.8428
 3196SOL     OW10165   3.689   0.936   3.959 -0.0208 -0.2139  0.8788
 3196SOL    HW110166   3.622   0.973   4.017 -2.3795 -2.8092  0.0238
 3196SOL    HW210167   3.720   0.858   4.005  0.9899 -0.1372  0.3609
 3197SOL     OW10168   6.759   8.205   2.810  0.1918  0.1840 -0.0158
 3197SOL    HW110169   6.666   8.181   2.815  0.2823  0.0200  1.1360
 3197SOL    HW210170   6.781   8.198   2.717 -1.2736  1.4860 -0.4953
 3198SOL     OW10171   7.533   5.701   9.316  0.4548  0.3777 -0.0479
 3198SOL    HW110172   7.558   5.711   9.408  3.1790 -1.4004 -0.4789
 3198SOL    HW210173   7.443   5.667   9.319  0.7761 -0.4307  2.0087
 3199SOL     OW10174   3.792   4.483   9.220 -0.5204  0.0101  0.3009
 3199SOL    HW110175   3.736   4.510   9.293 -0.4920 -1.8234  1.0539
 3199SOL    HW210176   3.737   4.427   9.166 -0.2709  0.6407 -0.6433
 3200SOL     OW10177   1.084   5.495   3.046 -0.1578 -0.3745  0.2822
 3200SOL    HW110178   0.990   5.490   3.063 -0.2587  0.7904  0.1524
 3200SOL    HW210179   1.101   5.427   2.981 -1.4000  1.0704 -1.6575
 3201SOL     OW10180   6.805   2.157   4.902 -0.3231 -0.2458 -0.2106
 3201SOL    HW110181   6.724   2.115   4.933  0.7395 -0.4720  2.5505
 3201SOL    HW210182   6.847   2.189   4.982  2.0955  0.3089 -1.6112
 3202SOL     OW10183   9.317   2.562   3.843 -0.2351  0.2881  0.4901
 3202SOL    HW110184   9.238   2.572   3.897  0.0034  0.8390  0.7461
 3202SOL    HW210185   9.327   2.648   3.801  0.3889  0.3067  0.6749
 3203SOL     OW10186   6.156   6.318   7.727 -0.4593  0.1195  0.4985
 3203SOL    HW110187   6.194   6.233   7.707 -0.8554 -0.0927  0.6422
 3203SOL    HW210188   6.141   6.358   7.641 -2.2433 -0.8288  0.3121
 3204SOL     OW10189   7.792   9.639   9.934 -0.3233 -0.2035 -0.4763
 3204SOL    HW110190   7.835   9.694   9.869 -0.4164  1.1334  0.5342
 3204SOL    HW210191   7.855   9.568   9.950  0.5334  0.4953 -0.6459
 3205SOL     OW10192   3.595   9.951   0.683 -0.1754 -0.2159  0.3673
 3205SOL    HW110193   3.685   9.922   0.695 -0.8152 -2.9103 -0.5912
 3205SOL    HW210194   3.551   9.931   0.765 -0.3408 -0.8674  0.1266
 3206SOL     OW10195   2.033   8.002   6.534  0.0513  0.3836 -0.1310
 3206SOL    HW110196   2.093   8.074   6.557 -0.2850  0.4968  0.4054
 3206SOL    HW210197   2.082   7.949   6.472  0.3704  0.9859 -0.4033
 3207SOL     OW10198   8.479   3.945   8.313 -0.2943  0.7150  0.0801
 3207SOL    HW110199   8.564   3.989   8.323  0.2542 -0.0352 -0.9587
 3207SOL    HW210200   8.456   3.959   8.221 -1.1016  0.5535  0.2505
 3208SOL     OW10201   0.083   9.555   7.448  0.0789 -0.0559 -0.3812
 3208SOL    HW110202   0.131   9.555   7.365 -0.3851 -0.6613 -0.6567
 3208SOL    HW210203   0.036   9.639   7.448  1.9449  1.0454  0.3881
 3209SOL     OW10204   0.342   0.720   2.808 -0.4819  0.6327 -0.2140
 3209SOL    HW110205   0.380   0.638   2.775 -2.3445 -0.2479 -0.2851
 3209SOL    HW210206   0.378   0.787   2.750  1.2714 -0.0701 -0.0099
 3210SOL     OW10207   0.339   3.670   9.349  0.2028  0.8645  0.5552
 3210SOL    HW110208   0.383   3.687   9.266  1.2203 -1.1691  0.6147
 3210SOL    HW210209   0.286   3.592   9.332 -3.2664  3.0216  0.5848
 3211SOL     OW10210   1.537   8.242   7.987  0.9220  0.0820 -0.0513
 3211SOL    HW110211   1.463   8.255   8.046 -0.2241 -1.5803 -1.0251
 3211SOL    HW210212   1.614   8.243   8.043 -0.2162 -2.8568  1.7679
 3212SOL     OW10213   1.841   6.698   7.759 -0.0129 -0.2292 -0.0600
 3212SOL    HW110214   1.784   6.668   7.688 -0.2191  1.0816 -0.4814
 3212SOL    HW210215   1.892   6.621   7.783  0.8443 -0.4750 -2.3837
 3213SOL     OW10216   9.360   8.162   0.801  0.6184 -0.3477  0.0414
 3213SOL    HW110217   9.349   8.238   0.744  2.4544  0.2678  0.4285
 3213SOL    HW210218   9.395   8.198   0.883  2.3608 -1.6315 -0.0625
 3214SOL     OW10219   7.812   3.176   5.119  0.4689  0.1246 -0.3768
 3214SOL    HW110220   7.735   3.216   5.079 -0.2839 -1.5498 -0.6801
 3214SOL    HW210221   7.845   3.242   5.180 -0.9298  1.0427 -0.5829
 3215SOL     OW10222   2.889   0.518   2.239 -0.0233  0.5864 -0.2716
 3215SOL    HW110223   2.951   0.445   2.231 -0.1064  0.3954  0.6273
 3215SOL    HW210224   2.871   0.522   2.333 -0.8617  1.0727 -0.4507
 3216SOL     OW10225   7.093   4.848   5.961  0.6103  0.1076 -0.0377
 3216SOL    HW110226   7.185   4.872   5.947  0.6458  2.4005  3.2049
 3216SOL    HW210227   7.088   4.827   6.054 -2.3877  1.1890  0.1244
 3217SOL     OW10228   5.736   2.405   4.800  0.3600  0.0186  0.5924
 3217SOL    HW110229   5.649   2.408   4.759  1.1133 -0.5622 -1.1706
 3217SOL    HW210230   5.722   2.363   4.884 -0.9184 -1.0945 -0.1346
 3218SOL     OW10231   5.293   7.904   9.438  0.3677  0.6812 -0.4423
 3218SOL    HW110232   5.348   7.972   9.399  0.5667  0.1782 -1.0507
 3218SOL    HW210233   5.300   7.830   9.378  0.5144 -0.0423  0.4469
 3219SOL     OW10234   2.254   6.870   9.431 -0.0835  0.1424 -0.1556
 3219SOL    HW110235   2.210   6.812   9.368  0.1645 -0.0161 -0.1857
 3219SOL    HW210236   2.186   6.896   9.492 -0.3571  0.4057 -0.5726
 3220SOL     OW10237   6.660   8.499   3.520 -0.2490 -0.0281 -0.8127
 3220SOL    HW110238   6.659   8.475   3.427  0.2302  0.1294 -0.8637
 3220SOL    HW210239   6.580   8.548   3.534 -0.0882  0.3648 -1.2564
 3221SOL     OW10240   1.907   8.023   8.258 -0.2367 -0.8822 -0.4925
 3221SOL    HW110241   1.982   8.082   8.267 -1.3012  0.3591  0.6538
 3221SOL    HW210242   1.898   8.009   8.164 -1.4052  2.7627 -1.0661
 3222SOL     OW10243   4.456   8.143   9.331  0.3019  0.0433  0.5893
 3222SOL    HW110244   4.463   8.221   9.277  1.1630  1.0413  2.0719
 3222SOL    HW210245   4.546   8.111   9.339 -0.0269 -1.0719  0.0775
 3223SOL     OW10246   9.433   9.395   0.498  0.3248 -0.5382  0.2147
 3223SOL    HW110247   9.364   9.461   0.506 -0.0166 -0.6966 -1.1300
 3223SOL    HW210248   9.513   9.439   0.528 -0.4374 -0.5949  2.5794
 3224SOL     OW10249   3.505   6.481   8.931  1.1552  0.7472  0.0056
 3224SOL    HW110250   3.440   6.482   8.860  1.7354 -0.2418 -0.5653
 3224SOL    HW210251   3.529   6.573   8.943  0.9498  0.9440 -1.0085
 3225SOL     OW10252   0.344   1.640   2.166  0.3169  0.5660 -0.2855
 3225SOL    HW110253   0.430   1.599   2.175  0.7493  1.4723 -0.1381
 3225SOL    HW210254   0.344   1.709   2.232 -0.1094  1.2610 -0.9938
 3226SOL     OW10255   1.356   9.925   1.093 -0.2968  0.1604  0.1043
 3226SOL    HW110256   1.279   9.926   1.035 -0.2973 -0.0116  0.1012
 3226SOL    HW210257   1.320   9.912   1.180 -0.1693 -1.6106 -0.0756
 3227SOL     OW10258   4.765   4.237   1.604 -0.5670  0.3757  0.2353
 3227SOL    HW110259   4.694   4.257   1.665 -0.5472 -0.2072  0.4544
 3227SOL    HW210260   4.814   4.318   1.597 -1.5380  0.9332 -0.2969
 3228SOL     OW10261   5.953   8.156   8.933 -0.1807  0.1752  0.3084
 3228SOL    HW110262   5.886   8.099   8.897 -0.9845 -0.3580  2.5163
 3228SOL    HW210263   5.917   8.244   8.923 -0.4936  0.0223  0.0619
 3229SOL     OW10264   3.786   1.291   2.485  0.1828  0.2159  0.1519
 3229SOL    HW110265   3.799   1.339   2.403 -0.0647 -1.6860 -1.0738
 3229SOL    HW210266   3.701   1.321   2.517 -0.8397 -0.6850 -1.5725
 3230SOL     OW10267   8.694   5.017   8.844  0.3199  0.0755 -0.6173
 3230SOL    HW110268   8.617   4.960   8.848  0.3317  0.0819 -0.2409
 3230SOL    HW210269   8.664   5.096   8.799 -0.2148  0.5684  0.5579
 3231SOL     OW10270   7.510   1.988   7.565 -0.0549  0.0874  0.0155
 3231SOL    HW110271   7.512   2.036   7.647 -2.5740  0.3800 -0.0013
 3231SOL    HW210272   7.494   2.055   7.499 -0.8117 -0.4471 -0.3580
 3232SOL     OW10273   3.727   4.094   7.519 -0.0034 -0.0319 -0.0295
 3232SOL    HW110274   3.817   4.096   7.552 -0.4407 -0.1766  1.2169
 3232SOL    HW210275   3.736   4.060   7.430  1.1246 -0.5581  0.2558
 3233SOL     OW10276   2.112   1.328   6.508 -0.4801  0.7704  0.2862
 3233SOL    HW110277   2.033   1.338   6.454 -1.8189 -1.2022  1.6807
 3233SOL    HW210278   2.117   1.234   6.525  0.9523  1.0943  2.0092
 3234SOL     OW10279   8.384   4.545   6.420  0.6484 -0.0159 -0.4604
 3234SOL    HW110280   8.382   4.637   6.394 -0.5762 -0.1538 -0.8762
 3234SOL    HW210281   8.478   4.526   6.429  0.9190  1.6064  0.8726
 3235SOL     OW10282   5.360   5.694   8.909 -0.3635 -0.1177 -0.0549
 3235SOL    HW110283   5.359   5.723   8.817  1.7069  2.0352  0.5219
 3235SOL    HW210284   5.446   5.654   8.921  0.6326  2.3206  1.6302
 3236SOL     OW10285   5.079   5.115   8.172  0.1107  0.0824 -0.1803
 3236SOL    HW110286   5.109   5.206   8.178 -0.5266  0.2365  1.0722
 3236SOL    HW210287   5.117   5.083   8.091  2.4515  0.7197  0.5726
 3237SOL     OW10288   7.794   0.903   8.236 -0.1771  0.0380  0.7358
 3237SOL    HW110289   7.850   0.924   8.161 -0.9779  2.7123  0.7863
 3237SOL    HW210290   7.743   0.827   8.208  1.9799 -1.2036 -0.0590
 3238SOL     OW10291   1.298   2.373   2.031  0.4011  0.0737  0.0708
 3238SOL    HW110292   1.264   2.439   2.092  0.2283 -0.3930  0.4868
 3238SOL    HW210293   1.373   2.334   2.077  1.1144  0.6537 -0.5802
 3239SOL     OW10294   9.611   7.747   9.351  0.0028 -0.7265  0.6231
 3239SOL    HW110295   9.643   7.685   9.286  0.0472  0.4915 -0.5603
 3239SOL    HW210296   9.683   7.754   9.415  1.8916  1.2625 -1.4913
 3240SOL     OW10297   2.220   4.828   6.261  0.2106 -0.0327  0.1653
 3240SOL    HW110298   2.292   4.856   6.204  1.7426 -1.8922  1.0687
 3240SOL    HW210299   2.231   4.880   6.340  1.1943 -0.9487  0.6633
 3241SOL     OW10300   2.585   8.577   2.759 -0.3513 -0.2093 -0.3854
 3241SOL    HW110301   2.603   8.669   2.780 -0.7864  0.0897 -1.2940
 3241SOL    HW210302   2.668   8.545   2.723  0.1512 -0.5046  0.9455
 3242SOL     OW10303   1.815   5.231   2.518  0.6423 -0.2414 -0.4717
 3242SOL    HW110304   1.882   5.188   2.465 -1.3645 -2.7148 -1.2486
 3242SOL    HW210305   1.755   5.271   2.455 -0.8353 -1.7312 -0.0997
 3243SOL     OW10306   7.138   5.159   0.172  0.1540 -0.0182  0.2114
 3243SOL    HW110307   7.205   5.110   0.124  0.1515 -1.1927  1.3712
 3243SOL    HW210308   7.056   5.140   0.125  0.2781 -0.4587  0.1724
 3244SOL     OW10309   6.227   6.357   0.230 -0.5047  0.4582  0.3045
 3244SOL    HW110310   6.257   6.386   0.144 -1.3859  2.0678  0.4874
 3244SOL    HW210311   6.138   6.324   0.214 -0.1273 -0.6424  0.3827
 3245SOL     OW10312   7.985   4.266   3.351  0.2324 -0.4054 -0.0676
 3245SOL    HW110313   8.077   4.238   3.357 -0.3734 -2.3130  2.7728
 3245SOL    HW210314   7.979   4.340   3.412 -0.6511 -2.4679  2.5665
 3246SOL     OW10315   1.803   2.977   9.567  0.1469  0.0097  0.1380
 3246SOL    HW110316   1.760   2.891   9.569  1.1502 -0.5890 -1.5755
 3246SOL    HW210317   1.839   2.988   9.655 -0.0548 -1.3024  0.4038
 3247SOL     OW10318   7.815   6.429   8.440  0.4563 -0.3599 -0.4692
 3247SOL    HW110319   7.767   6.461   8.364  0.1592 -2.8432 -1.4078
 3247SOL    HW210320   7.747   6.396   8.499  0.7771  0.2258  0.2474
 3248SOL     OW10321   2.949   0.747   5.227 -0.5440 -0.0242  0.0746
 3248SOL    HW110322   2.962   0.716   5.316  1.5867 -0.8887 -0.4555
 3248SOL    HW210323   2.856   0.732   5.209 -1.0601  0.3860  2.1877
 3249SOL     OW10324   8.688   6.446   2.142  0.1909  0.7653 -0.0129
 3249SOL    HW110325   8.664   6.456   2.234  0.6248  0.2958  0.1540
 3249SOL    HW210326   8.663   6.356   2.119  0.4747  0.7378 -0.2311
 3250SOL     OW10327   9.157   8.099   7.494  0.4830  0.3306  0.2258
 3250SOL    HW110328   9.186   8.140   7.412  2.4003  1.4205  1.3581
 3250SOL    HW210329   9.066   8.127   7.504  0.2171  0.1907 -1.4926
 3251SOL     OW10330   6.715   2.444   1.215 -0.5293  0.3227  1.1520
 3251SOL    HW110331   6.642   2.506   1.217 -1.6268 -0.8546 -0.3713
 3251SOL    HW210332   6.677   2.360   1.241  0.1871 -0.3820  0.0122
 3252SOL     OW10333   9.615   1.882   0.102  0.0039  0.4473 -0.2845
 3252SOL    HW110334   9.603   1.975   0.082  1.0048  0.1450 -2.5902
 3252SOL    HW210335   9.541   1.839   0.058  0.5476  0.0286 -0.8207
 3253SOL     OW10336   6.435   8.648   3.549 -0.3099 -1.2473 -0.0699
 3253SOL    HW110337   6.388   8.727   3.578  1.4462  0.1364 -0.8229
 3253SOL    HW210338   6.372   8.577   3.562 -1.2509 -0.0624  2.5708
 3254SOL     OW10339   1.895   9.777   1.397 -0.5075  0.1449  0.9997
 3254SOL    HW110340   1.802   9.799   1.406 -0.8598 -0.6992 -0.3147
 3254SOL    HW210341   1.895   9.683   1.378  0.6566  0.0254  1.5295
 3255SOL     OW10342   0.091   7.764   7.119 -0.1277 -0.1513  0.1204
 3255SOL    HW110343   0.040   7.688   7.147 -1.5263  0.9868  0.7919
 3255SOL    HW210344   0.096   7.755   7.024 -0.6457 -0.8494  0.1444
 3256SOL     OW10345   0.538   4.152   9.720  0.2437 -0.2366  0.1750
 3256SOL    HW110346   0.595   4.099   9.776  1.2869  1.6652  1.0128
 3256SOL    HW210347   0.592   4.228   9.697 -1.6762  1.2240  0.3011
 3257SOL     OW10348   3.806   2.671   8.838  0.0806 -0.6010 -0.3279
 3257SOL    HW110349   3.832   2.675   8.746  0.5190 -0.3487 -0.1935
 3257SOL    HW210350   3.887   2.661   8.887 -0.0751 -0.0053  0.0778
 3258SOL     OW10351   6.973   5.619   9.307  0.8373  0.5561 -0.2264
 3258SOL    HW110352   6.961   5.600   9.400  0.0145 -1.3419 -0.6842
 3258SOL    HW210353   6.948   5.539   9.262  1.5129  1.3310 -2.0925
 3259SOL     OW10354   0.449   7.841   1.196  0.3350  0.3459  0.5204
 3259SOL    HW110355   0.414   7.770   1.143 -0.2259  1.3277 -0.4595
 3259SOL    HW210356   0.526   7.803   1.238  0.3920 -0.6719 -0.4494
 3260SOL     OW10357   7.395   7.525   7.501 -0.2359  0.7287 -0.6472
 3260SOL    HW110358   7.396   7.462   7.574  0.0265  1.6714  0.1798
 3260SOL    HW210359   7.452   7.486   7.435  0.6311  0.5031  0.2137
 3261SOL     OW10360   5.278   6.550   7.680  0.3649  0.1491  0.5459
 3261SOL    HW110361   5.308   6.552   7.589  3.5855 -2.0319  1.4108
 3261SOL    HW210362   5.342   6.496   7.725 -1.1685  1.0905  4.1514
 3262SOL     OW10363   3.436   8.186   2.300 -0.1044  0.0684  0.3685
 3262SOL    HW110364   3.370   8.255   2.305 -2.0523 -1.6304 -0.6395
 3262SOL    HW210365   3.409   8.122   2.366  0.5202 -0.6737 -0.0836
 3263SOL     OW10366   1.709   1.114   6.802 -0.0087 -0.3257  0.0650
 3263SOL    HW110367   1.688   1.024   6.828  0.0556 -0.1818  0.6271
 3263SOL    HW210368   1.799   1.127   6.833 -0.3598  0.2590  0.8710
 3264SOL     OW10369   7.219   1.499   1.571  0.1976 -0.3255  0.3577
 3264SOL    HW110370   7.130   1.527   1.551 -0.0305 -0.7659  0.7385
 3264SOL    HW210371   7.208   1.418   1.621  0.8286 -0.7484 -0.1805
 3265SOL     OW10372   8.692   7.637   4.840 -0.0713  0.3360  0.0109
 3265SOL    HW110373   8.764   7.576   4.846 -1.0934 -0.9559 -0.3907
 3265SOL    HW210374   8.628   7.594   4.783 -0.6286  1.9818 -0.6975
 3266SOL     OW10375   2.274   8.712   4.285 -0.2430 -0.1887 -0.1309
 3266SOL    HW110376   2.301   8.676   4.369 -2.8111 -1.4269  0.2369
 3266SOL    HW210377   2.251   8.803   4.304  2.7380  0.7368 -0.3432
 3267SOL     OW10378   9.029   2.680   8.237 -0.7673  0.2977  0.2644
 3267SOL    HW110379   9.027   2.752   8.301 -0.8568 -0.2123  0.8432
 3267SOL    HW210380   9.051   2.722   8.154  0.3905  0.8340  0.8259
 3268SOL     OW10381   3.429   3.942   9.090  0.3123  0.1122  0.0797
 3268SOL    HW110382   3.463   3.988   9.013 -0.9948  0.9479 -0.0393
 3268SOL    HW210383   3.504   3.895   9.126  0.8541 -0.6763 -1.9568
 3269SOL     OW10384   3.463   5.961   4.172  0.5054  0.2350  0.0907
 3269SOL    HW110385   3.528   5.924   4.231  0.1941 -0.4944 -0.0144
 3269SOL    HW210386   3.380   5.949   4.217  0.0493 -1.9765 -1.2481
 3270SOL     OW10387   3.733   1.979   1.794  0.0177 -0.1012 -0.4128
 3270SOL    HW110388   3.763   1.907   1.738  0.2872  0.2876 -0.7798
 3270SOL    HW210389   3.644   1.996   1.764 -0.0480 -0.2849 -0.3228
 3271SOL     OW10390   6.877   8.799   4.281  0.5448  0.1390 -0.5527
 3271SOL    HW110391   6.911   8.714   4.251  2.5236 -1.0203  4.0296
 3271SOL    HW210392   6.799   8.776   4.331 -0.3373  1.3960 -1.3249
 3272SOL     OW10393   4.174   9.771   1.340  0.3363 -0.6239  0.1341
 3272SOL    HW110394   4.163   9.744   1.431  0.1322  1.1393  0.6801
 3272SOL    HW210395   4.260   9.738   1.316  1.0068  0.0790  1.4471
 3273SOL     OW10396   1.733   6.073   9.537  0.0297 -0.0057  0.4233
 3273SOL    HW110397   1.780   6.148   9.501 -2.6933  0.7839 -1.8238
 3273SOL    HW210398   1.668   6.112   9.595  1.2576 -1.0101  2.6134
 3274SOL     OW10399   3.944   7.273   5.565 -0.5455  0.7442 -0.4399
 3274SOL    HW110400   3.891   7.208   5.520  0.1211  0.7284 -1.2345
 3274SOL    HW210401   3.916   7.357   5.529 -1.3964  0.9170  0.5754
 3275SOL     OW10402   6.541   5.790   1.184  0.4458 -0.1197 -0.0015
 3275SOL    HW110403   6.538   5.774   1.278  1.5239  1.1490  0.2834
 3275SOL    HW210404   6.583   5.876   1.176  1.5723 -0.7780 -1.6862
 3276SOL     OW10405   1.974   7.735   8.327  0.1554 -0.6107 -0.2848
 3276SOL    HW110406   2.024   7.660   8.358 -0.2697 -0.6123  0.4210
 3276SOL    HW210407   2.032   7.779   8.265  1.3694 -0.1778  1.0957
 3277SOL     OW10408   6.058   5.994   7.978  0.3113 -0.2047 -0.3299
 3277SOL    HW110409   6.152   6.016   7.974  0.4763 -0.3068  2.0102
 3277SOL    HW210410   6.014   6.074   7.948  1.0677  1.9839  3.6778
 3278SOL     OW10411   0.131   1.749   9.207  0.2642  0.8133  0.2143
 3278SOL    HW110412   0.180   1.669   9.225 -1.2910 -0.0919  0.6418
 3278SOL    HW210413   0.053   1.719   9.159 -0.5337  2.0037  0.7171
 3279SOL     OW10414   9.765   2.149   4.351 -0.5647 -0.2005  0.4333
 3279SOL    HW110415   9.717   2.077   4.309  1.0444  0.1290 -2.1325
 3279SOL    HW210416   9.804   2.109   4.429 -1.4958 -1.5280  0.2516
 3280SOL     OW10417   9.158   2.911   3.923 -0.1050 -0.7414 -1.2838
 3280SOL    HW110418   9.242   2.886   3.963 -0.6788 -1.6266 -0.5819
 3280SOL    HW210419   9.182   2.945   3.837  1.0223 -0.4133 -0.8693
 3281SOL     OW10420   6.957   9.177   4.022  0.0839  0.2305 -0.2454
 3281SOL    HW110421   7.039   9.137   3.992  0.1839  0.7465 -0.6639
 3281SOL    HW210422   6.891   9.109   4.008  0.7581 -1.0568  2.1586
 3282SOL     OW10423   7.729   7.772   4.590  0.7201  0.1363 -0.2277
 3282SOL    HW110424   7.667   7.840   4.561 -0.8867 -1.1749  0.0372
 3282SOL    HW210425   7.777   7.813   4.662 -0.2034  0.9921 -0.0766
 3283SOL     OW10426   8.273   0.086   8.825  0.0185 -0.3239  0.3867
 3283SOL    HW110427   8.208   0.139   8.872 -1.0693 -0.7813 -0.5533
 3283SOL    HW210428   8.281   0.128   8.740  1.1865 -0.1139  0.5840
 3284SOL     OW10429   9.275   1.648   4.871  0.0155 -0.6171  0.3458
 3284SOL    HW110430   9.230   1.565   4.858  0.4326 -0.6624 -0.9860
 3284SOL    HW210431   9.287   1.683   4.782 -1.2185  1.4350  0.9202
 3285SOL     OW10432   0.014   6.682   0.078 -0.1536 -0.3475  0.2899
 3285SOL    HW110433   0.104   6.679   0.110 -1.0143 -1.8695  2.8729
 3285SOL    HW210434   0.005   6.770   0.042  2.5612 -0.4194 -0.7960
 3286SOL     OW10435   5.856   3.181   8.310  0.2080 -0.3925  0.4815
 3286SOL    HW110436   5.817   3.193   8.223  0.3770  0.6468  0.5412
 3286SOL    HW210437   5.785   3.146   8.363 -0.7458  1.6356  0.6326
 3287SOL     OW10438   7.772   4.781   3.535  0.0527  0.0313  0.7888
 3287SOL    HW110439   7.732   4.725   3.602  0.2018  0.0892  0.9266
 3287SOL    HW210440   7.789   4.721   3.462 -1.6206  0.2803  0.1430
 3288SOL     OW10441   8.736   8.259   7.726 -0.0597  0.7577  0.1422
 3288SOL    HW110442   8.748   8.164   7.729  2.4525  0.9872 -0.1444
 3288SOL    HW210443   8.796   8.293   7.792 -0.9438  2.1541  0.2589
 3289SOL     OW10444   2.510   8.309   4.435  0.2331  0.1852  0.0309
 3289SOL    HW110445   2.580   8.301   4.370  0.2317 -2.6201  0.2781
 3289SOL    HW210446   2.430   8.286   4.388  0.0745 -0.7043  0.7086
 3290SOL     OW10447   2.685   6.727   6.896 -0.7464 -0.5811 -0.0003
 3290SOL    HW110448   2.626   6.768   6.832 -0.6262  1.2722  1.0364
 3290SOL    HW210449   2.634   6.653   6.930 -2.0849  0.3522  0.1119
 3291SOL     OW10450   6.518   0.459   3.516 -0.1165 -0.2089  0.3977
 3291SOL    HW110451   6.431   0.464   3.555 -0.7704  1.0905 -1.1408
 3291SOL    HW210452   6.503   0.466   3.422  1.7774  2.5481  0.1786
 3292SOL     OW10453   2.852   5.395   2.198 -0.6714 -0.0970 -0.0409
 3292SOL    HW110454   2.775   5.425   2.151 -0.2991  0.7853 -0.1075
 3292SOL    HW210455   2.915   5.467   2.189 -0.9976  0.6803  2.8419
 3293SOL     OW10456   3.617   0.227   0.555 -0.1947  0.3505 -0.8566
 3293SOL    HW110457   3.613   0.144   0.601 -0.3210  1.5872  1.4875
 3293SOL    HW210458   3.691   0.217   0.494  0.5507 -1.0591  0.2309
 3294SOL     OW10459   1.814   6.988   7.758 -0.1058  0.4243  0.5087
 3294SOL    HW110460   1.871   6.976   7.835 -1.4575 -0.3426  1.4283
 3294SOL    HW210461   1.812   6.903   7.716  0.4344  0.7823 -0.2685
 3295SOL     OW10462   4.661   6.436   2.768  0.1712 -0.0436 -0.2969
 3295SOL    HW110463   4.727   6.500   2.740  1.4918 -1.8349 -1.5987
 3295SOL    HW210464   4.712   6.359   2.794 -1.3739 -0.8874  0.3898
 3296SOL     OW10465   7.114   0.429   1.537  0.6857 -0.4392 -0.3139
 3296SOL    HW110466   7.151   0.390   1.616  0.9622  0.8658  0.2404
 3296SOL    HW210467   7.123   0.362   1.470 -0.1896 -1.8329  0.9167
 3297SOL     OW10468   7.019   7.201   5.389 -0.5549 -0.0894  0.0927
 3297SOL    HW110469   7.096   7.218   5.333  1.0079  1.2785  2.4911
 3297SOL    HW210470   7.015   7.105   5.394  0.3985 -0.2114 -0.8423
 3298SOL     OW10471   8.852   6.902   0.590 -0.4706  0.0723 -0.3235
 3298SOL    HW110472   8.914   6.839   0.626 -0.5528 -0.0052 -0.3166
 3298SOL    HW210473   8.902   6.982   0.580 -0.6400  0.3138  0.6821
 3299SOL     OW10474   9.800   9.557   4.400 -0.4736 -0.5766 -0.4612
 3299SOL    HW110475   9.839   9.644   4.397  0.7799 -1.1097 -0.1557
 3299SOL    HW210476   9.730   9.559   4.334  0.0061  0.4265 -0.9525
 3300SOL     OW10477   1.719   2.523   6.848 -0.2419  0.6887  0.5855
 3300SOL    HW110478   1.769   2.442   6.856 -0.1924  0.4319 -1.6254
 3300SOL    HW210479   1.632   2.495   6.819 -0.6183  1.3490  1.0453
 3301SOL     OW10480   0.034   0.685   1.666  0.1955  0.0912  0.2432
 3301SOL    HW110481  -0.031   0.755   1.674  0.0994  0.1370 -0.7507
 3301SOL    HW210482   0.036   0.644   1.752 -0.2208  0.9018  0.6503
 3302SOL     OW10483   9.785   6.685   4.620 -0.3113 -0.2202  0.1723
 3302SOL    HW110484   9.747   6.658   4.537  0.2329 -3.3110  0.8286
 3302SOL    HW210485   9.728   6.648   4.687  0.4521  0.3791  1.1931
 3303SOL     OW10486   9.570   5.904   0.502  0.2663 -0.7116  0.4980
 3303SOL    HW110487   9.598   5.893   0.593 -0.1019 -2.2145  0.4581
 3303SOL    HW210488   9.482   5.941   0.508  0.8294  0.6783  0.6900
 3304SOL     OW10489   5.676   9.975   1.136 -0.2479  0.6434 -0.2328
 3304SOL    HW110490   5.623   9.983   1.216 -0.5042  0.0297 -0.3331
 3304SOL    HW210491   5.652   9.889   1.101  0.5717  0.5082 -0.4641
 3305SOL     OW10492   7.143   1.483   2.131  0.2518 -0.1832  0.1060
 3305SOL    HW110493   7.150   1.430   2.211 -0.6188  0.6786  0.7791
 3305SOL    HW210494   7.233   1.492   2.100  0.6193 -0.4743  1.0350
 3306SOL     OW10495   2.379   2.107   2.542  0.2443 -0.3436  0.0006
 3306SOL    HW110496   2.449   2.152   2.494 -0.5331  1.2463  0.3047
 3306SOL    HW210497   2.422   2.031   2.581  1.3470 -0.5420 -1.4980
 3307SOL     OW10498   4.712   8.353   8.593  0.1796  0.2308 -0.4264
 3307SOL    HW110499   4.746   8.399   8.517 -1.4567  0.9580 -0.7378
 3307SOL    HW210500   4.784   8.296   8.620  1.2995  1.0320 -1.6174
 3308SOL     OW10501   9.132   3.070   4.960 -0.5098  0.1643 -0.0015
 3308SOL    HW110502   9.188   3.011   5.012  2.3264  1.2712 -1.5560
 3308SOL    HW210503   9.113   3.143   5.019  0.3937  0.1304  0.3556
 3309SOL     OW10504   5.833   8.174   1.376  0.4140  0.4918  0.1869
 3309SOL    HW110505   5.882   8.181   1.295  0.6959 -0.9138  0.2095
 3309SOL    HW210506   5.782   8.093   1.366 -2.1743  2.0188  0.0295
 3310SOL     OW10507   1.313   6.771   2.949  0.5251 -0.1908  0.4155
 3310SOL    HW110508   1.338   6.732   2.865  1.4902 -0.6115  0.8822
 3310SOL    HW210509   1.380   6.741   3.010  1.0241  1.7871  0.9050
 3311SOL     OW10510   5.182   5.173   7.633 -0.1103 -0.5375  0.1296
 3311SOL    HW110511   5.245   5.244   7.629 -0.5882 -0.1454 -1.9737
 3311SOL    HW210512   5.098   5.214   7.611 -0.5610 -1.5544 -0.1327
 3312SOL     OW10513   4.480   3.098   6.752 -0.1109  0.4329  0.7922
 3312SOL    HW110514   4.404   3.152   6.772 -0.6481 -0.6204  1.7362
 3312SOL    HW210515   4.446   3.008   6.750  1.1667 -0.0971  1.5991
 3313SOL     OW10516   7.403   3.248   8.130 -0.0516  0.0885  0.5456
 3313SOL    HW110517   7.464   3.174   8.130 -1.0688 -0.7846 -1.1303
 3313SOL    HW210518   7.460   3.324   8.145  1.1627 -0.8801  1.1302
 3314SOL     OW10519   6.401   3.171   6.781 -0.4454  0.4188 -0.0793
 3314SOL    HW110520   6.448   3.184   6.863 -0.2654 -0.1154 -0.0969
 3314SOL    HW210521   6.317   3.214   6.795 -0.4045  0.3578  0.3727
 3315SOL     OW10522   2.088   8.238   9.629 -0.1267 -0.2261 -0.1467
 3315SOL    HW110523   2.148   8.313   9.623 -0.2351  0.1691  2.4891
 3315SOL    HW210524   2.115   8.192   9.709 -1.6602 -1.5602 -0.3409
 3316SOL     OW10525   5.541   9.513   8.529 -0.2018  0.4622  0.1381
 3316SOL    HW110526   5.481   9.469   8.589  1.3071  0.1637  1.5083
 3316SOL    HW210527   5.583   9.442   8.482  0.2256  0.5716  0.3487
 3317SOL     OW10528   4.436   2.549   5.058 -0.1032 -0.3827 -0.3269
 3317SOL    HW110529   4.354   2.565   5.012  0.5474 -0.5084 -1.5791
 3317SOL    HW210530   4.410   2.510   5.142 -1.3109 -0.3364 -0.6673
 3318SOL     OW10531   2.025   0.762   1.752 -0.1908 -0.2347  0.5383
 3318SOL    HW110532   1.945   0.801   1.715  0.2532 -0.8682 -1.1625
 3318SOL    HW210533   2.016   0.668   1.734  1.4421 -0.1901 -0.7646
 3319SOL     OW10534   1.582   1.646   4.517 -0.2875  0.3921 -0.0439
 3319SOL    HW110535   1.552   1.713   4.577 -0.4168  1.1504 -0.9224
 3319SOL    HW210536   1.674   1.666   4.502  0.1733 -0.7553  1.1287
 3320SOL     OW10537   7.301   8.254   8.380 -0.2124  0.6496 -0.5042
 3320SOL    HW110538   7.255   8.195   8.320  0.1214 -0.2215  0.0848
 3320SOL    HW210539   7.394   8.238   8.364 -0.1001 -0.4839  1.0730
 3321SOL     OW10540   1.914   3.348   7.256  0.4188 -0.1811 -0.3608
 3321SOL    HW110541   1.912   3.433   7.212  1.0555 -0.1912 -0.4214
 3321SOL    HW210542   1.829   3.308   7.236  0.8321 -0.3645 -1.9516
 3322SOL     OW10543   8.140   1.963   0.755  0.2093 -0.1277 -0.5347
 3322SOL    HW110544   8.088   2.009   0.821  0.4390 -0.0374 -0.4170
 3322SOL    HW210545   8.225   1.949   0.797  1.2000  2.0433 -1.6468
 3323SOL     OW10546   3.046   1.349   6.220  0.1470  0.5657 -0.4733
 3323SOL    HW110547   3.031   1.347   6.125 -0.4558  2.2279 -0.4394
 3323SOL    HW210548   3.095   1.429   6.236  0.7192  0.0275  0.5696
 3324SOL     OW10549   9.525   0.581   5.355 -0.0760  0.7118  0.3084
 3324SOL    HW110550   9.568   0.507   5.311 -1.9731  0.8643 -2.0134
 3324SOL    HW210551   9.597   0.640   5.378  1.1767 -0.2345 -1.0066
 3325SOL     OW10552   0.676   9.332   6.676 -0.0596  0.1192  0.2374
 3325SOL    HW110553   0.652   9.419   6.643 -0.2763  0.0623  0.2432
 3325SOL    HW210554   0.756   9.310   6.629 -1.1889 -0.6380 -1.4182
 3326SOL     OW10555   3.433   7.061   8.559  0.3093 -0.2506  0.2582
 3326SOL    HW110556   3.361   7.063   8.621  0.7756 -0.0409  0.7941
 3326SOL    HW210557   3.432   6.972   8.524  0.8990 -0.7982  1.5854
 3327SOL     OW10558   3.916   3.373   4.864  0.5388 -0.2677  0.7054
 3327SOL    HW110559   3.981   3.341   4.801  0.6698  1.8133 -0.3046
 3327SOL    HW210560   3.832   3.351   4.824  0.6259  0.6715 -0.0480
 3328SOL     OW10561   3.807   9.235   2.999 -0.2246 -0.1389 -0.2701
 3328SOL    HW110562   3.840   9.211   3.086 -1.2993 -0.6243  0.0133
 3328SOL    HW210563   3.868   9.193   2.938 -0.5096 -1.3330  0.2384
 3329SOL     OW10564   8.508   2.782   0.933 -0.4174 -0.1607 -0.9416
 3329SOL    HW110565   8.501   2.686   0.926  1.0367 -0.2844 -0.9468
 3329SOL    HW210566   8.526   2.811   0.843  0.1302  0.0248 -0.7719
 3330SOL     OW10567   6.284   3.972   2.576 -0.1194  0.1650 -0.1081
 3330SOL    HW110568   6.296   4.043   2.513 -0.5176  0.1122 -0.2504
 3330SOL    HW210569   6.294   3.892   2.524  2.8368  0.0482  0.5084
 3331SOL     OW10570   4.695   9.873   5.932 -0.4259 -0.6708 -0.2274
 3331SOL    HW110571   4.776   9.864   5.981 -0.1452  2.2214  0.0303
 3331SOL    HW210572   4.626   9.866   5.998 -0.1921  0.3001  0.1308
 3332SOL     OW10573   9.174   3.598   2.049  0.1627 -0.2493  0.8390
 3332SOL    HW110574   9.257   3.574   2.090  1.4682 -1.9253 -2.4875
 3332SOL    HW210575   9.194   3.677   2.000 -1.3520  1.6513  3.0475
 3333SOL     OW10576   1.362   3.841   0.149 -0.0790  0.1779  0.4732
 3333SOL    HW110577   1.422   3.880   0.085  0.3941  0.0808  0.8590
 3333SOL    HW210578   1.416   3.823   0.226  0.3963 -3.6383 -0.5305
 3334SOL     OW10579   5.277   0.798   6.870  0.5019 -0.0503 -0.6216
 3334SOL    HW110580   5.265   0.714   6.826  0.1850  0.3248 -1.2777
 3334SOL    HW210581   5.189   0.835   6.876  0.1970 -1.0027  2.2615
 3335SOL     OW10582   2.178   1.789   4.434  0.0138 -0.2870 -0.0451
 3335SOL    HW110583   2.145   1.846   4.503  1.5835 -0.7322  1.1184
 3335SOL    HW210584   2.119   1.714   4.433 -2.1319  1.2715 -1.6438
 3336SOL     OW10585   7.107   7.226   7.616  0.0311 -0.4326 -0.2386
 3336SOL    HW110586   7.048   7.156   7.587 -0.0725 -0.3071 -0.3295
 3336SOL    HW210587   7.117   7.210   7.710 -1.7070  0.6794  0.1715
 3337SOL     OW10588   7.122   6.571   1.735 -0.0597  0.0870 -0.2383
 3337SOL    HW110589   7.029   6.557   1.716  0.1934 -1.0115 -0.7791
 3337SOL    HW210590   7.136   6.525   1.818 -0.1672  0.9831  0.2937
 3338SOL     OW10591   6.870   2.985   8.155  0.2039 -0.0461 -0.9545
 3338SOL    HW110592   6.880   2.947   8.068  0.9397 -1.3617 -0.3181
 3338SOL    HW210593   6.810   2.926   8.201  0.8685 -0.1144 -0.1514
 3339SOL     OW10594   1.596   9.870   3.657  0.7126  0.7037 -0.0072
 3339SOL    HW110595   1.556   9.878   3.571  1.6515  0.2282 -0.5094
 3339SOL    HW210596   1.661   9.940   3.660  0.0985  1.2570  0.6647
 3340SOL     OW10597   1.453   4.645   2.442  0.3621  0.4039  0.0261
 3340SOL    HW110598   1.481   4.702   2.370  3.0540  0.1282  0.7382
 3340SOL    HW210599   1.499   4.563   2.426 -1.5517 -0.7808  0.3492
 3341SOL     OW10600   7.462   1.535   5.041 -0.0239 -0.4458 -0.2564
 3341SOL    HW110601   7.468   1.466   5.107  0.4435 -0.1036  0.0691
 3341SOL    HW210602   7.545   1.531   4.994  0.4365  0.5269  0.4226
 3342SOL     OW10603   5.968   5.004   5.028  0.1235  0.4280 -0.0145
 3342SOL    HW110604   5.916   5.002   5.108  0.0294  1.1187 -0.0526
 3342SOL    HW210605   5.923   4.946   4.967 -0.7716  1.2414 -0.1467
 3343SOL     OW10606   9.306   2.134   1.839 -0.2642  0.3152  0.5221
 3343SOL    HW110607   9.357   2.212   1.814 -2.4421  1.0478 -2.1785
 3343SOL    HW210608   9.363   2.060   1.817  1.0485  1.0815  1.1865
 3344SOL     OW10609   9.723   7.451   6.484 -0.1756  0.4306  0.1981
 3344SOL    HW110610   9.812   7.481   6.465 -0.3221  0.9085  0.2531
 3344SOL    HW210611   9.669   7.493   6.417 -0.7347  2.3195  1.7291
 3345SOL     OW10612   1.256   7.115   6.011 -0.6321  0.3574 -0.1669
 3345SOL    HW110613   1.259   7.187   6.074 -1.0554  0.7439 -0.5915
 3345SOL    HW210614   1.337   7.066   6.028  0.3552  1.7187 -0.8084
 3346SOL     OW10615   3.162   8.237   9.419 -0.1546 -0.3679 -0.3161
 3346SOL    HW110616   3.215   8.236   9.339 -0.2288  2.5632 -0.5207
 3346SOL    HW210617   3.079   8.195   9.393  0.1293 -0.2182 -1.5381
 3347SOL     OW10618   1.859   7.603   1.648  0.0804  0.4084 -0.0349
 3347SOL    HW110619   1.931   7.548   1.679 -0.2172  1.4720  2.8817
 3347SOL    HW210620   1.804   7.615   1.725 -2.5870  0.6462 -1.8710
 3348SOL     OW10621   7.922   9.026   9.880 -0.5874 -0.5676 -0.8692
 3348SOL    HW110622   7.864   9.090   9.922  0.6927 -0.3069  0.5786
 3348SOL    HW210623   7.910   9.041   9.787 -1.8540  0.3679 -0.5876
 3349SOL     OW10624   3.827   0.175   0.964  0.2906 -0.2086  0.1235
 3349SOL    HW110625   3.876   0.205   1.040 -2.5359  1.3090  1.5234
 3349SOL    HW210626   3.866   0.223   0.890 -0.0105  2.1477  1.3952
 3350SOL     OW10627   5.362   4.643   4.015 -0.2562  0.0970  1.1977
 3350SOL    HW110628   5.357   4.624   4.109 -1.5236  0.3467  1.2011
 3350SOL    HW210629   5.348   4.558   3.973 -0.5193  0.1188  1.2371
 3351SOL     OW10630   8.043   7.144   1.536 -0.1148  0.8296  0.2470
 3351SOL    HW110631   7.992   7.108   1.609 -0.9311  0.8169 -0.3136
 3351SOL    HW210632   8.047   7.238   1.553  0.5485  0.7050  0.8178
 3352SOL     OW10633   3.884   7.905   2.472 -0.5353 -0.4484  0.2067
 3352SOL    HW110634   3.941   7.958   2.416 -0.5680 -0.6053  0.0256
 3352SOL    HW210635   3.865   7.827   2.420 -1.3195 -0.1685  0.0738
 3353SOL     OW10636   4.158   8.968   0.173 -0.0679  0.0636 -0.2325
 3353SOL    HW110637   4.101   8.891   0.177  0.3201 -0.2574 -0.6878
 3353SOL    HW210638   4.187   8.971   0.081 -1.6724  1.9304 -0.7331
 3354SOL     OW10639   8.994   0.414   1.438  0.0562 -0.2102  0.3596
 3354SOL    HW110640   9.054   0.437   1.509  1.8649  0.0166 -1.1561
 3354SOL    HW210641   9.010   0.322   1.421 -0.1830 -0.2009  0.0749
 3355SOL     OW10642   7.902   6.423   7.869  0.4525  0.5006 -0.1638
 3355SOL    HW110643   7.847   6.397   7.942  1.5567  0.7882  0.7880
 3355SOL    HW210644   7.877   6.364   7.798  2.3955 -2.8201  1.6918
 3356SOL     OW10645   8.792   8.812   1.444  0.2079 -0.2312  0.1187
 3356SOL    HW110646   8.731   8.796   1.517  1.8946  0.8018  1.8498
 3356SOL    HW210647   8.817   8.725   1.414  0.7416 -0.7315  1.9057
 3357SOL     OW10648   6.926   7.473   1.180 -0.1110 -0.0021 -0.1786
 3357SOL    HW110649   6.837   7.478   1.215 -0.0354 -0.4657  0.0850
 3357SOL    HW210650   6.916   7.425   1.098 -0.0815 -0.1805 -0.0770
 3358SOL     OW10651   6.848   7.887   3.546  0.0308 -0.2032  0.5955
 3358SOL    HW110652   6.829   7.883   3.639 -2.0457  0.2977  0.2450
 3358SOL    HW210653   6.891   7.972   3.534 -0.2667  0.0134  1.0310
 3359SOL     OW10654   2.194   7.221   0.165  0.5502 -0.5434  0.0067
 3359SOL    HW110655   2.211   7.194   0.075  0.5744 -1.6144  0.3235
 3359SOL    HW210656   2.278   7.212   0.210  0.8408  1.1343 -0.1151
 3360SOL     OW10657   6.251   1.087   2.049 -0.2690  0.2144  0.0312
 3360SOL    HW110658   6.314   1.132   1.993  0.5914  0.1898  0.9499
 3360SOL    HW210659   6.252   1.135   2.131 -1.1019 -0.0780  0.2304
 3361SOL     OW10660   3.615   3.874   2.305  0.3091  0.2431 -0.3592
 3361SOL    HW110661   3.649   3.959   2.276  0.1977  0.5354  0.3516
 3361SOL    HW210662   3.533   3.864   2.257  0.1103  0.7375 -0.1359
 3362SOL     OW10663   2.874   1.649   2.280 -0.3225  0.1854  0.0863
 3362SOL    HW110664   2.913   1.607   2.356  0.2142  1.4489  0.5360
 3362SOL    HW210665   2.907   1.739   2.282 -2.3614  1.0132 -0.1430
 3363SOL     OW10666   7.712   4.087   8.599  0.1723  0.6886  0.0182
 3363SOL    HW110667   7.661   4.084   8.517  1.7850 -0.3317 -1.0190
 3363SOL    HW210668   7.733   4.179   8.611 -0.3947  0.8971 -0.5182
 3364SOL     OW10669   4.484   0.132   2.152 -0.6436  0.2184 -0.2436
 3364SOL    HW110670   4.500   0.173   2.067 -2.0594 -0.8932 -1.0830
 3364SOL    HW210671   4.411   0.072   2.137  0.6297 -1.8092  1.1786
 3365SOL     OW10672   0.614   7.662   7.778 -0.1482  0.2143  0.0573
 3365SOL    HW110673   0.615   7.681   7.684  0.5034  1.9924  0.3927
 3365SOL    HW210674   0.685   7.714   7.814 -0.7108 -0.0445  1.6130
 3366SOL     OW10675   3.631   4.820   6.818  0.0691 -0.2363  0.2980
 3366SOL    HW110676   3.718   4.861   6.815  0.3089 -0.6516  1.1570
 3366SOL    HW210677   3.608   4.821   6.911 -2.5751  3.3911 -0.1693
 3367SOL     OW10678   9.813   8.809   1.444  0.2702 -0.2647 -0.5333
 3367SOL    HW110679   9.850   8.826   1.358 -1.2116  2.5189 -0.7365
 3367SOL    HW210680   9.879   8.840   1.506  1.2524 -2.0912 -0.5790
 3368SOL     OW10681   5.845   4.855   3.700  0.0888  0.0943  0.5015
 3368SOL    HW110682   5.832   4.949   3.688  0.6887  0.0614 -0.5050
 3368SOL    HW210683   5.791   4.815   3.631  1.1117 -0.2278 -0.1351
 3369SOL     OW10684   5.104   8.796   8.594 -0.3968 -0.2858 -0.0942
 3369SOL    HW110685   5.097   8.700   8.587 -0.6366 -0.3092  0.4294
 3369SOL    HW210686   5.137   8.811   8.683  0.9029  0.0660 -0.6103
 3370SOL     OW10687   5.015   4.620   9.500  0.0225 -0.1496 -0.0876
 3370SOL    HW110688   4.948   4.584   9.441  0.3952 -0.3113 -0.4207
 3370SOL    HW210689   5.005   4.715   9.493  0.0163 -0.1682 -0.3603
 3371SOL     OW10690   2.056   3.092   4.570  0.6551 -0.2276 -0.0518
 3371SOL    HW110691   2.030   3.140   4.649  1.5896  2.1815 -1.1150
 3371SOL    HW210692   1.976   3.048   4.541 -0.0411 -0.0015  1.4225
 3372SOL     OW10693   7.270   8.472   1.502 -0.5041  0.1570  0.1571
 3372SOL    HW110694   7.176   8.457   1.494 -0.1244 -1.6610 -1.6177
 3372SOL    HW210695   7.302   8.476   1.412  1.3195 -0.9252  0.6988
 3373SOL     OW10696   6.155   1.113   9.349 -0.6169  0.4640  0.4271
 3373SOL    HW110697   6.109   1.053   9.289  2.2293 -1.3380 -0.1140
 3373SOL    HW210698   6.230   1.063   9.381 -0.0794  2.5892  2.8211
 3374SOL     OW10699   8.042   1.357   7.203 -0.5245 -0.3265 -0.3504
 3374SOL    HW110700   7.967   1.418   7.201  0.2902  0.7979  0.9693
 3374SOL    HW210701   8.081   1.372   7.289  0.2969 -2.0469 -0.3920
 3375SOL     OW10702   8.674   4.012   0.082 -0.0807 -0.3035 -0.2639
 3375SOL    HW110703   8.719   4.091   0.110  0.5328 -0.8945  0.4741
 3375SOL    HW210704   8.649   4.029  -0.008 -0.4922  0.9574  0.0620
 3376SOL     OW10705   9.796   4.633   7.746  0.3719 -0.5955 -0.0422
 3376SOL    HW110706   9.724   4.614   7.686 -2.1771  2.4519  1.7519
 3376SOL    HW210707   9.772   4.589   7.828  0.9886 -0.2524  0.3318
 3377SOL     OW10708   4.593   6.927   5.725 -0.2101  0.7269  0.6973
 3377SOL    HW110709   4.605   6.832   5.730  0.3353  0.7132 -0.5199
 3377SOL    HW210710   4.669   6.962   5.772  0.4977  0.5583 -0.2837
 3378SOL     OW10711   2.286   5.175   7.725 -0.0293  0.1013  0.4157
 3378SOL    HW110712   2.288   5.270   7.711  0.0204  0.0606  0.1501
 3378SOL    HW210713   2.378   5.149   7.721 -0.2035 -0.3142 -1.9542
 3379SOL     OW10714   6.455   7.762   2.567 -0.3666  0.2710  1.1103
 3379SOL    HW110715   6.366   7.768   2.532 -0.6037 -0.8570  1.5031
 3379SOL    HW210716   6.444   7.761   2.662  0.2026  2.0495  1.2269
 3380SOL     OW10717   9.054   6.791   9.082  0.5635 -0.4677  0.7055
 3380SOL    HW110718   9.057   6.787   9.178  2.0523  0.2517  0.7216
 3380SOL    HW210719   9.118   6.858   9.059 -0.1237 -0.2861 -0.7856
 3381SOL     OW10720   9.181   4.251   6.044 -0.5814 -0.2713 -0.2762
 3381SOL    HW110721   9.118   4.193   6.002 -2.1440  0.1464  1.3777
 3381SOL    HW210722   9.183   4.328   5.987 -0.1962 -0.9848 -1.2731
 3382SOL     OW10723   5.104   1.237   5.794  0.1111  0.0766 -0.4096
 3382SOL    HW110724   5.124   1.168   5.858 -0.7276 -0.9747 -1.2447
 3382SOL    HW210725   5.116   1.195   5.709 -1.2463  0.7073 -0.9366
 3383SOL     OW10726   8.843   3.720   4.749  0.4115  0.3070 -0.3514
 3383SOL    HW110727   8.821   3.650   4.688  0.4080  0.1927 -0.2211
 3383SOL    HW210728   8.933   3.701   4.777  0.6205  0.6851 -0.7635
 3384SOL     OW10729   1.221   1.521   4.743 -0.0796 -0.4399  0.3284
 3384SOL    HW110730   1.316   1.530   4.738 -0.0986  0.0256  0.7450
 3384SOL    HW210731   1.203   1.434   4.707  0.4773 -0.4147 -0.0128
 3385SOL     OW10732   0.494   0.837   8.221  0.6724 -0.2427  0.4882
 3385SOL    HW110733   0.567   0.792   8.264  0.3775 -2.1129 -0.8289
 3385SOL    HW210734   0.440   0.766   8.186 -0.2554  1.1537 -1.0406
 3386SOL     OW10735   4.719   1.535   7.327  0.3852  0.1357  0.1000
 3386SOL    HW110736   4.691   1.472   7.261  1.2988 -0.7213  0.5000
 3386SOL    HW210737   4.649   1.534   7.393  0.4239 -0.5084  0.1322
 3387SOL     OW10738   3.934   1.823   0.575  0.3237 -0.2404  0.0467
 3387SOL    HW110739   3.839   1.831   0.572  0.1541 -2.0722 -0.5908
 3387SOL    HW210740   3.966   1.896   0.523 -0.7352  0.3538  0.2123
 3388SOL     OW10741   9.447   2.615   4.291  0.1389  0.6582  0.0719
 3388SOL    HW110742   9.475   2.530   4.326  0.1047 -0.4912 -2.4900
 3388SOL    HW210743   9.518   2.643   4.233  0.2746  2.5661  1.0796
 3389SOL     OW10744   1.790   3.599   4.108 -0.2013  0.4491 -0.1308
 3389SOL    HW110745   1.744   3.532   4.159  1.0023 -0.2930  0.0011
 3389SOL    HW210746   1.720   3.652   4.070 -1.1526  0.0730  1.0261
 3390SOL     OW10747   6.371   0.026   7.925  0.6058  0.3506 -0.1630
 3390SOL    HW110748   6.422  -0.054   7.938  0.9303  0.7857  1.4862
 3390SOL    HW210749   6.359   0.062   8.014  1.2484  2.6057 -0.9180
 3391SOL     OW10750   5.523   0.400   4.806 -0.5650  0.3376 -0.0437
 3391SOL    HW110751   5.525   0.451   4.725 -1.2375 -0.3859 -0.5430
 3391SOL    HW210752   5.577   0.323   4.787  0.7463  1.0053  0.8271
 3392SOL     OW10753   9.280   8.863   6.936  0.2110 -0.7287  0.3153
 3392SOL    HW110754   9.218   8.865   7.009  0.6475 -0.7126  0.6937
 3392SOL    HW210755   9.323   8.778   6.945  0.1223 -0.8134 -0.0502
 3393SOL     OW10756   4.505   0.717   1.217 -0.3470  0.4009  0.0936
 3393SOL    HW110757   4.559   0.652   1.171 -1.2695 -0.1892 -0.1736
 3393SOL    HW210758   4.426   0.724   1.164 -0.6874  1.0056  0.6688
 3394SOL     OW10759   2.491   0.549   6.929  0.3509 -0.1822 -0.2265
 3394SOL    HW110760   2.501   0.581   6.839  2.0666  1.6878  0.5515
 3394SOL    HW210761   2.580   0.552   6.965 -0.2053 -1.5158  1.3519
 3395SOL     OW10762   3.089   2.209   8.124 -0.0983 -0.4846  0.1423
 3395SOL    HW110763   3.019   2.199   8.188 -0.1904  2.9109  0.7473
 3395SOL    HW210764   3.045   2.235   8.043  0.3645  0.4045  0.1674
 3396SOL     OW10765   1.634   5.012   8.301 -0.3037 -0.6759 -0.2930
 3396SOL    HW110766   1.686   5.060   8.366 -0.6294 -2.0473  1.0286
 3396SOL    HW210767   1.574   5.078   8.266  1.5321  0.6909 -1.0782
 3397SOL     OW10768   1.442   9.382   0.561  0.2367  0.0088  0.2160
 3397SOL    HW110769   1.470   9.412   0.648  0.8649  0.1070 -0.0146
 3397SOL    HW210770   1.521   9.345   0.522  0.1129  0.5274 -0.5527
 3398SOL     OW10771   1.977   8.756   3.898 -0.5306  0.1400 -0.6043
 3398SOL    HW110772   2.033   8.707   3.958  0.8391 -0.0716 -1.9843
 3398SOL    HW210773   1.965   8.841   3.941 -0.3455 -0.3144  0.3760
 3399SOL     OW10774   0.666   2.389   2.427  0.3809  0.3137 -0.1748
 3399SOL    HW110775   0.586   2.367   2.379 -0.4172 -0.2236  1.3325
 3399SOL    HW210776   0.736   2.345   2.378 -0.5244 -1.0618 -0.2842
 3400SOL     OW10777   8.355   3.196   8.518 -0.0654 -0.3089  0.0086
 3400SOL    HW110778   8.264   3.190   8.548  0.2801 -1.1302  0.9511
 3400SOL    HW210779   8.352   3.258   8.444 -1.2040  0.5508  0.7326
 3401SOL     OW10780   4.931   2.322   1.510 -0.3626  0.6719  0.5463
 3401SOL    HW110781   5.003   2.384   1.499 -0.0365  0.6197  2.0494
 3401SOL    HW210782   4.948   2.252   1.447 -1.1777  2.4459 -1.7486
 3402SOL     OW10783   5.615   0.507   3.450  0.1168 -0.6072 -0.1743
 3402SOL    HW110784   5.683   0.553   3.499 -0.3501  0.0381 -0.1137
 3402SOL    HW210785   5.653   0.495   3.363 -0.0049  0.5160 -0.3982
 3403SOL     OW10786   0.905   5.063   8.964 -0.1170  0.1373  0.4668
 3403SOL    HW110787   0.889   5.041   9.056  0.0185  1.7416  0.8974
 3403SOL    HW210788   0.823   5.103   8.935  0.5698  1.6158  0.5274
 3404SOL     OW10789   0.523   6.226   2.729  0.1630 -0.1614  0.0706
 3404SOL    HW110790   0.473   6.242   2.809 -0.3123 -0.3425 -0.1869
 3404SOL    HW210791   0.462   6.243   2.658  0.2993 -0.9101 -0.2444
 3405SOL     OW10792   1.868   9.833   1.980  0.3667  0.2231 -0.2396
 3405SOL    HW110793   1.868   9.847   2.075  1.5641  0.6693 -0.2861
 3405SOL    HW210794   1.896   9.917   1.943  1.2680 -0.3466 -0.9053
 3406SOL     OW10795   9.525   0.023   4.932  0.3693 -0.6977  0.5692
 3406SOL    HW110796   9.535  -0.028   4.852  0.5537  0.5781 -0.2632
 3406SOL    HW210797   9.615   0.035   4.963  0.7039  1.6603 -0.9668
 3407SOL     OW10798   2.009   6.600   2.444  0.9492  0.0611 -0.0988
 3407SOL    HW110799   1.920   6.595   2.409  1.3711 -1.5580 -1.0677
 3407SOL    HW210800   1.998   6.593   2.539  0.0771 -0.7057 -0.2462
 3408SOL     OW10801   1.611   9.089   9.376 -0.5149 -0.8292 -0.7571
 3408SOL    HW110802   1.662   9.018   9.414 -1.2531 -0.1542  1.7121
 3408SOL    HW210803   1.638   9.093   9.284  1.9461 -2.1227 -0.1606
 3409SOL     OW10804   2.588   8.604   5.381 -0.0140 -0.2734  0.0980
 3409SOL    HW110805   2.550   8.595   5.468 -0.3101 -0.5021 -0.0539
 3409SOL    HW210806   2.678   8.573   5.391 -0.4594 -1.6640  0.0119
 3410SOL     OW10807   3.642   5.513   3.571 -0.2389 -0.0676 -0.4054
 3410SOL    HW110808   3.719   5.568   3.581 -0.0160 -0.6572  1.5673
 3410SOL    HW210809   3.671   5.441   3.515  0.1836  0.4998 -0.9241
 3411SOL     OW10810   9.229   5.391   6.161  0.0688  0.5180  0.2955
 3411SOL    HW110811   9.158   5.454   6.177  0.2544  0.7097  0.3835
 3411SOL    HW210812   9.193   5.307   6.186 -0.6376  0.3799 -1.0987
 3412SOL     OW10813   4.252   8.718   9.228 -0.1750 -0.4319  0.5273
 3412SOL    HW110814   4.248   8.710   9.323  4.4792  0.9956  1.0789
 3412SOL    HW210815   4.243   8.812   9.211  0.4302 -0.4987 -0.2398
 3413SOL     OW10816   2.190   3.173   3.941 -0.3382 -0.0144 -0.2758
 3413SOL    HW110817   2.181   3.261   3.906  0.8283 -0.2958 -1.4115
 3413SOL    HW210818   2.200   3.184   4.035  0.3753  1.1296 -0.4670
 3414SOL     OW10819   2.751   3.099   7.165  0.3934 -0.4207  0.0055
 3414SOL    HW110820   2.823   3.161   7.154 -1.7719  2.4996  0.8514
 3414SOL    HW210821   2.763   3.064   7.254  1.5329 -1.1338 -0.4092
 3415SOL     OW10822   1.462   6.142   9.380  0.0039  0.0599  0.0876
 3415SOL    HW110823   1.418   6.205   9.437  0.2589 -0.6223  1.0599
 3415SOL    HW210824   1.510   6.196   9.317 -0.4948  0.8210  0.3436
 3416SOL     OW10825   9.975   2.604   0.481  0.2680  0.0851  0.1960
 3416SOL    HW110826   9.886   2.638   0.490  0.3283  0.2688  0.1040
 3416SOL    HW210827  10.004   2.636   0.396  0.3375 -0.1718  0.1210
 3417SOL     OW10828   7.497   2.608   8.149  0.0003 -0.6126 -0.3155
 3417SOL    HW110829   7.448   2.606   8.067  0.1455  1.2106 -0.4924
 3417SOL    HW210830   7.574   2.662   8.129 -0.2807  0.3926  1.1700
 3418SOL     OW10831   8.678   5.036   1.314 -0.3900 -0.3115 -0.1385
 3418SOL    HW110832   8.638   5.121   1.330 -1.7189 -0.9551  0.0776
 3418SOL    HW210833   8.664   5.019   1.221 -1.2063 -0.8158  0.0674
 3419SOL     OW10834   4.706   6.436   4.710  0.0486  0.0632  0.4353
 3419SOL    HW110835   4.667   6.355   4.676 -1.0272 -0.4344  2.6324
 3419SOL    HW210836   4.800   6.425   4.696 -0.2068 -0.8516 -0.7224
 3420SOL     OW10837   3.233   6.002   9.221  0.2873 -0.1542 -0.7570
 3420SOL    HW110838   3.290   6.005   9.298  0.2491 -0.0447 -0.7316
 3420SOL    HW210839   3.199   5.913   9.219  0.4674 -0.2231 -0.7786
 3421SOL     OW10840   6.571   4.543   4.960 -0.1847 -0.5542 -0.5889
 3421SOL    HW110841   6.602   4.634   4.964 -0.8068 -0.3659  0.2288
 3421SOL    HW210842   6.645   4.492   4.994 -1.4721  0.1022  3.8653
 3422SOL     OW10843   4.412   0.255   2.403  0.2995  0.9327  0.4907
 3422SOL    HW110844   4.438   0.347   2.395 -0.1845  0.9718 -0.8987
 3422SOL    HW210845   4.442   0.214   2.322 -1.7980  0.4847 -0.1438
 3423SOL     OW10846   9.404   1.343   2.672 -0.0645 -0.7317  0.3969
 3423SOL    HW110847   9.484   1.311   2.630 -0.1101  0.8108 -0.9732
 3423SOL    HW210848   9.435   1.390   2.749  0.8804  3.0442 -1.9763
 3424SOL     OW10849   6.565   0.955   8.337 -0.2240 -0.8336 -0.1812
 3424SOL    HW110850   6.492   0.930   8.393 -0.4263 -0.1800 -0.1495
 3424SOL    HW210851   6.598   1.037   8.374  0.6207 -1.1929 -0.1091
 3425SOL     OW10852   4.490   4.806   0.324 -0.0114 -0.5868 -0.1543
 3425SOL    HW110853   4.412   4.834   0.371 -1.2162 -1.3698 -1.6046
 3425SOL    HW210854   4.559   4.864   0.356 -1.6576  1.6913 -0.5302
 3426SOL     OW10855   5.170   4.681   1.100  0.1567 -0.1925  0.3109
 3426SOL    HW110856   5.081   4.668   1.132  0.1374 -1.0045 -0.0400
 3426SOL    HW210857   5.225   4.673   1.178 -0.0535 -0.0186  0.4760
 3427SOL     OW10858   1.078   6.665   5.131  0.1525 -0.2721  0.3360
 3427SOL    HW110859   1.071   6.595   5.065 -1.9059 -0.2260  0.4222
 3427SOL    HW210860   1.110   6.740   5.083  0.0208 -0.6240 -0.3164
 3428SOL     OW10861   4.894   3.144   4.198 -0.4464 -0.1553 -0.5610
 3428SOL    HW110862   4.980   3.175   4.227 -1.1349  1.4404 -0.1291
 3428SOL    HW210863   4.850   3.117   4.278 -0.3699 -0.9493 -0.7808
 3429SOL     OW10864   2.751   9.282   1.572 -0.4623  0.1653 -0.0973
 3429SOL    HW110865   2.803   9.287   1.492  0.6908 -0.7736  0.5539
 3429SOL    HW210866   2.664   9.315   1.547  0.4297  1.7850 -1.2138
 3430SOL     OW10867   5.360   6.931   5.907 -0.2292 -0.0643 -0.5535
 3430SOL    HW110868   5.391   7.015   5.875  0.0753 -0.6022 -1.7206
 3430SOL    HW210869   5.412   6.914   5.986 -0.9166  1.2312  0.2131
 3431SOL     OW10870   5.132   3.758   9.752  0.0771  0.6168  0.1182
 3431SOL    HW110871   5.146   3.664   9.742 -3.3116  0.1697 -1.9832
 3431SOL    HW210872   5.198   3.799   9.696 -1.0008 -0.7844 -2.3317
 3432SOL     OW10873   5.218   1.157   1.523  0.3814  0.4472  0.0730
 3432SOL    HW110874   5.309   1.189   1.524  0.3827  0.4246  0.6076
 3432SOL    HW210875   5.171   1.217   1.581  0.5418 -0.9683  1.7490
 3433SOL     OW10876   7.352   8.396   4.802  0.2876  0.3731 -0.1867
 3433SOL    HW110877   7.285   8.461   4.784 -0.1056 -0.1463 -0.6328
 3433SOL    HW210878   7.321   8.317   4.759  1.2745  0.1735 -0.5583
 3434SOL     OW10879   7.173   9.613   6.338  0.4139 -0.3667  0.3556
 3434SOL    HW110880   7.258   9.654   6.324 -0.3603  1.4143  0.5167
 3434SOL    HW210881   7.193   9.528   6.377  2.1509 -0.6510 -1.0025
 3435SOL     OW10882   9.867   1.047   1.410  0.2583 -0.1131 -0.5101
 3435SOL    HW110883   9.957   1.016   1.421  0.7053  1.6384  1.5236
 3435SOL    HW210884   9.868   1.092   1.326  1.0467 -0.8093 -0.8970
 3436SOL     OW10885   5.158   2.591   3.382 -0.0165  0.1431 -0.0940
 3436SOL    HW110886   5.094   2.557   3.320 -0.6661 -0.3029  0.7991
 3436SOL    HW210887   5.152   2.686   3.372 -1.4295  0.1519  0.5343
 3437SOL     OW10888   0.814   1.922   3.928 -0.1350 -0.4762 -0.1077
 3437SOL    HW110889   0.803   1.971   4.009 -1.1799 -0.7536 -0.0665
 3437SOL    HW210890   0.765   1.840   3.942  0.1880 -0.7927 -0.7834
 3438SOL     OW10891   7.253   3.370   1.091  0.6093  0.4560 -0.6645
 3438SOL    HW110892   7.278   3.279   1.104  2.3762  0.6409 -2.3678
 3438SOL    HW210893   7.245   3.405   1.180  2.4397 -0.7034  0.0101
 3439SOL     OW10894   5.381   2.565   5.165  0.2952 -0.0446 -0.0176
 3439SOL    HW110895   5.460   2.521   5.198  0.9609  0.3698 -1.0154
 3439SOL    HW210896   5.399   2.658   5.175 -0.4982  0.0406  0.6994
 3440SOL     OW10897   2.311   3.996   8.550  0.3786  0.0158 -0.0111
 3440SOL    HW110898   2.355   4.046   8.482  1.0243  0.5140  0.7607
 3440SOL    HW210899   2.381   3.945   8.592  0.0163 -0.1578  0.3934
 3441SOL     OW10900   5.287   5.710   0.099  0.0730 -0.1684 -0.3126
 3441SOL    HW110901   5.370   5.733   0.140  0.3582  0.2458 -1.1021
 3441SOL    HW210902   5.229   5.785   0.118 -0.2462 -0.6222  0.5559
 3442SOL     OW10903   9.362   1.121   8.425  0.0214  0.2870  1.0059
 3442SOL    HW110904   9.457   1.133   8.415  0.0302 -0.6414 -0.3253
 3442SOL    HW210905   9.354   1.050   8.489  0.2611 -0.2336  0.4668
 3443SOL     OW10906   7.574   3.874   3.030 -0.1814  0.2597  0.4643
 3443SOL    HW110907   7.647   3.887   3.091 -1.0660 -0.5097  1.7423
 3443SOL    HW210908   7.530   3.794   3.061 -1.2931  0.4418 -0.5447
 3444SOL     OW10909   0.955   3.171   6.307 -0.4586  0.0453 -0.5193
 3444SOL    HW110910   1.005   3.223   6.244 -0.7134  2.6447  1.2404
 3444SOL    HW210911   0.866   3.206   6.301 -0.6877 -0.2999  0.6004
 3445SOL     OW10912   2.630   2.281   3.715  0.2712 -0.6732 -0.1161
 3445SOL    HW110913   2.700   2.303   3.654 -0.5533  1.0842 -0.4851
 3445SOL    HW210914   2.674   2.233   3.785  1.5789 -0.9090 -1.0603
 3446SOL     OW10915   0.274   7.641   6.209  0.2466  0.6051  0.0558
 3446SOL    HW110916   0.308   7.576   6.270  0.3481  1.2788  0.7326
 3446SOL    HW210917   0.181   7.620   6.200  0.1824  0.6473  0.6322
 3447SOL     OW10918   2.877   1.865   9.198 -0.3432 -0.1837 -0.0578
 3447SOL    HW110919   2.844   1.954   9.185 -1.7823 -0.8300 -1.0509
 3447SOL    HW210920   2.952   1.858   9.138  1.6188  1.2178  2.0494
 3448SOL     OW10921   3.597   7.933   4.703 -0.5610 -0.1820  0.2257
 3448SOL    HW110922   3.632   7.898   4.785  3.2859 -1.0972 -1.5677
 3448SOL    HW210923   3.552   7.859   4.662 -0.5154 -0.3635  0.5037
 3449SOL     OW10924   7.256   7.294   9.740  0.7040 -0.0980  0.1615
 3449SOL    HW110925   7.163   7.308   9.721  0.7280 -1.5867 -1.2292
 3449SOL    HW210926   7.269   7.200   9.727  2.7142  0.3006 -1.0985
 3450SOL     OW10927   6.545   2.370   5.978  0.1322  0.1667 -0.1587
 3450SOL    HW110928   6.528   2.453   6.023  0.1702 -0.6764  1.4991
 3450SOL    HW210929   6.630   2.342   6.011  0.2739 -0.3677 -0.9611
 3451SOL     OW10930   7.151   6.358   7.053  0.2056 -0.6731 -0.1181
 3451SOL    HW110931   7.172   6.376   7.144 -0.2928 -0.2998 -0.0673
 3451SOL    HW210932   7.112   6.271   7.053  2.7080 -1.8815 -0.3718
 3452SOL     OW10933   9.079   8.627   1.626 -0.1120 -0.4364  0.8970
 3452SOL    HW110934   9.144   8.673   1.573 -1.5893 -1.3967 -1.9298
 3452SOL    HW210935   9.102   8.534   1.616 -0.2901 -0.6464  2.2021
 3453SOL     OW10936   1.203   9.165   9.231 -0.4325 -0.1826 -0.2017
 3453SOL    HW110937   1.127   9.129   9.186  0.3689 -0.1057 -1.6553
 3453SOL    HW210938   1.250   9.214   9.164  1.9150 -1.8077  0.1578
 3454SOL     OW10939   8.848   6.737   9.553  0.2565  0.1132  0.6061
 3454SOL    HW110940   8.902   6.737   9.632 -0.6147  0.6142  1.2283
 3454SOL    HW210941   8.778   6.675   9.573  0.0866  0.1721  0.1918
 3455SOL     OW10942   8.518   2.722   1.890 -0.0138  0.3888 -0.0064
 3455SOL    HW110943   8.436   2.761   1.859 -0.1037 -0.8677 -1.4592
 3455SOL    HW210944   8.586   2.785   1.866 -0.2917  0.2606 -1.1739
 3456SOL     OW10945   0.785   7.504   1.275 -0.4015  0.1807 -0.1431
 3456SOL    HW110946   0.881   7.508   1.275 -0.4515  1.6080 -0.4489
 3456SOL    HW210947   0.761   7.518   1.183 -0.9365  1.1580  0.1363
 3457SOL     OW10948   4.026   1.384   5.616 -0.1329 -0.0346  0.0929
 3457SOL    HW110949   4.115   1.409   5.639  0.2614 -0.0816 -1.3358
 3457SOL    HW210950   3.972   1.426   5.683  0.7579  2.0182 -0.4156
 3458SOL     OW10951   2.816   0.979   6.015  0.3547  0.1275  0.7067
 3458SOL    HW110952   2.732   1.015   6.044  0.4417  1.2259 -0.3541
 3458SOL    HW210953   2.800   0.885   6.008 -0.7782  0.3195  0.5489
 3459SOL     OW10954   1.363   2.123   9.720 -0.7768  0.1056  0.0455
 3459SOL    HW110955   1.271   2.146   9.708 -1.3239 -1.5503  0.8376
 3459SOL    HW210956   1.369   2.096   9.811  0.0371 -1.7699 -0.5330
 3460SOL     OW10957   0.702   2.498   0.359  0.3174  0.2389  0.8784
 3460SOL    HW110958   0.612   2.485   0.390  0.6468 -0.6173  1.5313
 3460SOL    HW210959   0.706   2.451   0.276 -0.3421  1.8549 -0.1121
 3461SOL     OW10960   6.531   1.813   5.553  0.1820 -0.6540  0.4203
 3461SOL    HW110961   6.518   1.904   5.579 -0.6292 -0.2208 -1.3309
 3461SOL    HW210962   6.577   1.773   5.626 -1.5697  0.5464  2.2796
 3462SOL     OW10963   4.875   6.498   4.114  0.5063 -0.1136 -0.4184
 3462SOL    HW110964   4.808   6.471   4.051  0.2224  1.5385 -0.8792
 3462SOL    HW210965   4.827   6.552   4.178  1.3519  1.0597 -0.7327
 3463SOL     OW10966   7.401   7.725   5.082 -0.2692 -0.9545 -0.1585
 3463SOL    HW110967   7.385   7.811   5.120  1.4183 -1.5267  2.1242
 3463SOL    HW210968   7.451   7.742   5.002 -0.7123  0.1951 -0.2085
 3464SOL     OW10969   3.334   1.319   2.880  0.0223 -0.6774 -0.3212
 3464SOL    HW110970   3.247   1.336   2.844 -0.9407  0.2422  2.2439
 3464SOL    HW210971   3.324   1.237   2.929  0.2541  0.0596  0.9843
 3465SOL     OW10972   4.833   3.473   6.993 -0.2486 -0.1330  0.3283
 3465SOL    HW110973   4.874   3.444   6.912  0.9370  0.7399  0.5868
 3465SOL    HW210974   4.801   3.393   7.035  2.4097 -1.0482  0.7581
 3466SOL     OW10975   1.391   9.957   8.460  0.4391  0.3802 -0.0404
 3466SOL    HW110976   1.387   9.948   8.365 -1.1938 -1.6125  0.1465
 3466SOL    HW210977   1.432   9.876   8.490 -1.4577 -0.2404  1.0540
 3467SOL     OW10978   1.062   8.291   1.713 -0.4300  0.0101 -0.2212
 3467SOL    HW110979   1.100   8.363   1.764 -0.4216 -2.3118  3.4444
 3467SOL    HW210980   0.971   8.286   1.742 -0.1384 -2.0665  0.5357
 3468SOL     OW10981   9.451   6.791   4.565  0.1274 -0.8041  0.0944
 3468SOL    HW110982   9.431   6.829   4.479 -2.1092  0.6669  1.1698
 3468SOL    HW210983   9.506   6.856   4.608 -0.8251 -0.3513  0.6606
 3469SOL     OW10984   9.086   9.371   2.035 -0.3065  0.3568  0.7507
 3469SOL    HW110985   9.085   9.400   1.943  1.3500 -1.7047 -0.0037
 3469SOL    HW210986   8.994   9.356   2.057 -0.6774  0.1539 -0.8293
 3470SOL     OW10987   7.869   2.355   2.256  0.1840 -0.0050 -0.3835
 3470SOL    HW110988   7.911   2.432   2.218  1.3352 -0.8696 -0.9242
 3470SOL    HW210989   7.831   2.309   2.182 -1.1542  0.4100  0.0264
 3471SOL     OW10990   5.309   3.575   5.013 -0.4033 -0.0968 -0.8180
 3471SOL    HW110991   5.403   3.585   4.997 -0.2700 -1.2754 -0.8267
 3471SOL    HW210992   5.271   3.658   4.982  0.5243  0.0161 -1.7072
 3472SOL     OW10993   8.583   0.192   4.097 -0.1800 -0.1713  0.4410
 3472SOL    HW110994   8.607   0.131   4.166 -0.7815 -0.8249  0.0865
 3472SOL    HW210995   8.635   0.165   4.021  0.2747  0.3733  0.5471
 3473SOL     OW10996   4.234   2.879   0.145 -0.0060 -0.2138 -0.4212
 3473SOL    HW110997   4.261   2.880   0.237  0.0109  0.6825 -0.4287
 3473SOL    HW210998   4.139   2.880   0.149 -0.0044 -0.0657 -0.4132
 3474SOL     OW10999   0.382   5.931   3.449  0.5793  0.3050  0.0629
 3474SOL    HW111000   0.395   5.910   3.542 -0.7768  0.8474  0.4093
 3474SOL    HW211001   0.304   5.881   3.424  0.4721  0.7681 -0.5549
 3475SOL     OW11002   8.627   7.902   7.396 -0.3384 -0.2769  0.3768
 3475SOL    HW111003   8.650   7.826   7.449  0.2055 -2.2853 -2.5192
 3475SOL    HW211004   8.560   7.870   7.337 -0.0226  1.4673 -0.9923
 3476SOL     OW11005   0.163   0.033   3.583  0.2376 -0.3471  0.3238
 3476SOL    HW111006   0.165   0.024   3.678  1.2570  1.2089  0.5019
 3476SOL    HW211007   0.080  -0.006   3.556 -0.4758 -0.0261  1.9547
 3477SOL     OW11008   4.974   6.307   5.394 -0.0149  0.1883  1.1928
 3477SOL    HW111009   4.960   6.401   5.389 -1.0013  0.0205  0.5669
 3477SOL    HW211010   4.889   6.270   5.416 -0.1164 -0.6876 -0.4843
 3478SOL     OW11011   1.507   8.719   4.892 -0.1924 -0.0337 -0.1664
 3478SOL    HW111012   1.536   8.746   4.979  0.8800 -2.2041  0.1985
 3478SOL    HW211013   1.433   8.777   4.873  1.6768  2.8746  0.6571
 3479SOL     OW11014   2.186   4.381   2.765  0.8041  0.1522  0.6093
 3479SOL    HW111015   2.134   4.448   2.811 -2.3803 -1.7118  0.0358
 3479SOL    HW211016   2.220   4.425   2.688 -0.2294  1.4340  0.8511
 3480SOL     OW11017   4.071   2.979   4.653 -0.0856 -0.2381 -0.4196
 3480SOL    HW111018   4.043   2.962   4.743  1.8079 -1.2530  0.0393
 3480SOL    HW211019   4.096   3.072   4.653  0.7840 -0.4494  0.4000
 3481SOL     OW11020   1.368   5.271   1.274  0.2004  0.2694  0.1502
 3481SOL    HW111021   1.417   5.339   1.321 -1.6521  1.3602  0.6009
 3481SOL    HW211022   1.279   5.278   1.308 -0.5962 -0.7291 -1.6108
 3482SOL     OW11023   1.563   6.089   1.802 -0.0320  0.2057 -0.6053
 3482SOL    HW111024   1.578   6.171   1.848  1.9856 -1.5498  2.1356
 3482SOL    HW211025   1.626   6.091   1.729  3.4588 -0.6857  2.1168
 3483SOL     OW11026   9.506   5.838   4.325 -0.6272  0.0498  0.2236
 3483SOL    HW111027   9.483   5.784   4.250 -0.6590  2.4892 -1.6271
 3483SOL    HW211028   9.464   5.922   4.308 -1.4233  0.4621  3.4660
 3484SOL     OW11029   8.501   8.655   2.546 -0.7349 -0.0914 -0.0376
 3484SOL    HW111030   8.444   8.621   2.477  0.1302 -2.6456  0.3835
 3484SOL    HW211031   8.527   8.742   2.515 -0.9622 -0.8533 -2.5870
 3485SOL     OW11032   7.426   9.066   0.635 -0.4244 -0.5517 -0.3650
 3485SOL    HW111033   7.366   9.015   0.690 -0.8260 -0.4261 -0.6865
 3485SOL    HW211034   7.501   9.083   0.692 -1.3955  0.7251  0.6162
 3486SOL     OW11035   3.485   1.034   8.832 -0.6819  0.5144  0.3265
 3486SOL    HW111036   3.465   0.952   8.878  1.1611 -0.7395 -0.9796
 3486SOL    HW211037   3.399   1.074   8.816 -1.4697  0.4773  3.7460
 3487SOL     OW11038   1.567   8.965   7.297 -0.6008 -0.0770  0.0846
 3487SOL    HW111039   1.490   8.969   7.354 -0.4624 -0.4608  0.3020
 3487SOL    HW211040   1.575   8.872   7.274  0.3430 -0.1980  0.8329
 3488SOL     OW11041   0.432   4.111   9.486 -0.1338  0.5446  0.2625
 3488SOL    HW111042   0.376   4.036   9.505 -1.4533  0.6232 -2.6259
 3488SOL    HW211043   0.489   4.119   9.561 -0.8607 -2.5056  1.2762
 3489SOL     OW11044   9.198   4.066   2.075  0.0597  0.3345  0.5934
 3489SOL    HW111045   9.273   4.011   2.096 -1.2416 -1.6844  0.2481
 3489SOL    HW211046   9.235   4.153   2.058  2.1937 -0.4087  1.1809
 3490SOL     OW11047   1.600   9.514   0.049  0.1844  0.3404  0.1328
 3490SOL    HW111048   1.642   9.499  -0.036  0.4453  1.0311  0.1321
 3490SOL    HW211049   1.642   9.593   0.082  1.8467 -1.2133  2.0055
 3491SOL     OW11050   6.436   4.801   4.015 -0.5486  0.0489 -0.3361
 3491SOL    HW111051   6.425   4.706   4.011  1.0668 -0.1671 -0.2732
 3491SOL    HW211052   6.383   4.829   4.090  0.9143 -1.1523  1.2132
 3492SOL     OW11053   5.389   5.208   9.470  0.2752 -0.4317  0.1314
 3492SOL    HW111054   5.414   5.180   9.382  1.1891 -1.6208  0.7479
 3492SOL    HW211055   5.293   5.207   9.469  0.2676  0.0061 -0.9777
 3493SOL     OW11056   3.690   9.133   4.550 -0.3731  0.4219 -0.4266
 3493SOL    HW111057   3.623   9.066   4.565  0.8124 -0.7605 -0.2342
 3493SOL    HW211058   3.745   9.096   4.481 -1.5705  2.6576 -2.7617
 3494SOL     OW11059   5.125   1.309   1.986 -0.1366  0.3619 -0.0643
 3494SOL    HW111060   5.166   1.229   1.953  1.2359  1.4498 -1.1172
 3494SOL    HW211061   5.058   1.330   1.920 -1.6396 -0.7545  1.0389
 3495SOL     OW11062   5.783   5.765   7.288  0.0849 -0.0649  0.0985
 3495SOL    HW111063   5.836   5.697   7.248  0.4347  0.0429  0.3724
 3495SOL    HW211064   5.694   5.747   7.259  0.2723 -0.2364 -0.3816
 3496SOL     OW11065   4.081   6.916   4.081  0.6056 -0.3079  0.9820
 3496SOL    HW111066   4.163   6.965   4.082  1.1667 -1.1912  0.2843
 3496SOL    HW211067   4.058   6.912   3.988 -0.7561  0.7528  1.2420
 3497SOL     OW11068   1.630   3.579   2.264  0.2404 -0.1450  0.2850
 3497SOL    HW111069   1.716   3.568   2.224  0.2057 -0.6468  0.3479
 3497SOL    HW211070   1.584   3.497   2.246 -0.8841  0.7667 -1.3272
 3498SOL     OW11071   4.571   8.952   9.506  0.2492  0.7250  0.8051
 3498SOL    HW111072   4.642   8.966   9.444 -0.7467 -0.5392 -0.6917
 3498SOL    HW211073   4.603   8.881   9.563  0.1030 -0.0432 -0.0485
 3499SOL     OW11074   9.260   2.444   8.303  0.0051 -0.4128 -0.0843
 3499SOL    HW111075   9.223   2.489   8.379  0.9107 -0.2423  0.2693
 3499SOL    HW211076   9.184   2.421   8.249 -0.6538 -0.5924  0.9007
 3500SOL     OW11077   2.169   8.428   4.692  0.4109 -0.4036 -0.4641
 3500SOL    HW111078   2.234   8.357   4.691  0.3537 -0.6368 -4.4707
 3500SOL    HW211079   2.085   8.383   4.687  0.2671 -0.1005 -0.8532
 3501SOL     OW11080   5.132   4.973   7.842  0.1823  0.0646  0.2283
 3501SOL    HW111081   5.155   5.031   7.770  0.1997 -0.8907 -0.5685
 3501SOL    HW211082   5.215   4.955   7.886  0.7127 -1.7147 -1.3675
 3502SOL     OW11083   8.078   6.060   5.939 -0.0113 -0.2600  0.4783
 3502SOL    HW111084   8.097   6.042   5.847  1.2529 -0.3330  0.7334
 3502SOL    HW211085   7.982   6.054   5.945  0.0406 -3.7930 -0.1250
 3503SOL     OW11086   1.686   4.523   7.940 -0.0473 -0.2629  0.6240
 3503SOL    HW111087   1.778   4.495   7.931  0.0860 -0.0156  1.2361
 3503SOL    HW211088   1.651   4.466   8.008 -0.3835 -0.4268  0.3167
 3504SOL     OW11089   8.182   6.464   8.691  0.2457 -0.4949 -0.3008
 3504SOL    HW111090   8.191   6.474   8.786 -1.0040  0.0736 -0.2186
 3504SOL    HW211091   8.185   6.370   8.676  3.8250 -0.5583 -0.1212
 3505SOL     OW11092   1.351   8.291   8.176  0.1787  0.1036 -0.4768
 3505SOL    HW111093   1.349   8.368   8.234  1.2309 -0.6167  0.5700
 3505SOL    HW211094   1.274   8.241   8.201 -0.3965  0.7025 -1.0153
 3506SOL     OW11095   0.083   2.910   8.531 -0.3628  0.3331 -0.0048
 3506SOL    HW111096   0.052   2.991   8.490 -2.1279 -0.1669  0.2797
 3506SOL    HW211097   0.158   2.883   8.478 -0.7163  1.3223 -1.0412
 3507SOL     OW11098   3.318   4.699   9.955 -0.6215 -0.5299  0.4329
 3507SOL    HW111099   3.350   4.629   9.899 -0.6873 -0.4946  0.3511
 3507SOL    HW211100   3.222   4.691   9.951 -0.7099  0.7218 -1.0588
 3508SOL     OW11101   0.972   5.194   3.647 -0.0256 -0.4067 -0.0853
 3508SOL    HW111102   1.050   5.200   3.702  0.3467 -0.9768 -0.5485
 3508SOL    HW211103   1.003   5.211   3.559 -0.6591  0.7214 -0.1158
 3509SOL     OW11104   0.205   4.437   4.213  0.1226  0.3206  0.2224
 3509SOL    HW111105   0.251   4.431   4.129  0.2111  1.2546  0.1910
 3509SOL    HW211106   0.180   4.347   4.233  1.2375 -0.1012 -0.1694
 3510SOL     OW11107   2.036   2.948   7.606  0.0509  0.3802  0.0625
 3510SOL    HW111108   2.113   3.002   7.587 -0.2801  0.0147 -2.7677
 3510SOL    HW211109   2.066   2.858   7.596 -0.2421  0.1398  1.2071
 3511SOL     OW11110   9.340   6.357   2.973 -0.5343  0.3220 -0.2070
 3511SOL    HW111111   9.362   6.281   2.919 -0.7471  0.2466 -0.1862
 3511SOL    HW211112   9.325   6.428   2.910  2.0513  1.0002 -0.1735
 3512SOL     OW11113   0.759   3.802   4.303  0.0850  0.1577 -0.1509
 3512SOL    HW111114   0.698   3.876   4.306 -1.0313 -0.7218 -0.6476
 3512SOL    HW211115   0.713   3.735   4.252  1.5271 -0.4826 -0.6509
 3513SOL     OW11116   0.460   9.465   4.227  0.2406 -0.2977  0.4248
 3513SOL    HW111117   0.446   9.557   4.250  1.3809  0.3068 -1.1364
 3513SOL    HW211118   0.531   9.436   4.284  1.4409  0.4912 -0.6240
 3514SOL     OW11119   6.208   0.337   3.203 -0.1648  0.3754  0.2474
 3514SOL    HW111120   6.289   0.386   3.213  1.4669 -1.8334 -1.2246
 3514SOL    HW211121   6.170   0.335   3.291  2.6058 -0.4946  1.5140
 3515SOL     OW11122   4.340   7.632   0.767  0.4540 -0.2316 -0.1606
 3515SOL    HW111123   4.319   7.553   0.817  0.7795 -0.3839 -0.2632
 3515SOL    HW211124   4.297   7.620   0.682  0.4873 -0.2876 -0.1692
 3516SOL     OW11125   1.202   6.687   0.100 -0.1173  0.0114 -0.0464
 3516SOL    HW111126   1.291   6.652   0.108  0.1257  0.8705  1.2267
 3516SOL    HW211127   1.158   6.658   0.180 -1.0954 -0.6813 -0.8191
 3517SOL     OW11128   1.568   6.275   1.369  0.5620 -0.3373 -0.0264
 3517SOL    HW111129   1.656   6.244   1.392  0.8680 -0.4024 -1.2356
 3517SOL    HW211130   1.519   6.196   1.348  1.0341 -0.1314 -2.0630
 3518SOL     OW11131   4.227   2.862   5.932  0.4922  0.0067 -0.0375
 3518SOL    HW111132   4.236   2.815   5.850 -1.9152  1.1397 -1.0622
 3518SOL    HW211133   4.174   2.804   5.987  1.0000 -0.1963  0.2454
 3519SOL     OW11134   0.483   5.808   2.006 -0.1733  0.0648 -0.1722
 3519SOL    HW111135   0.404   5.756   1.992 -0.2248 -0.3039  1.3194
 3519SOL    HW211136   0.452   5.898   2.017 -0.3859 -0.0590  0.2642
 3520SOL     OW11137   3.251   2.623   9.220  0.4772 -0.4136  0.5228
 3520SOL    HW111138   3.230   2.554   9.158  1.6834 -1.3824  1.1300
 3520SOL    HW211139   3.173   2.677   9.224 -0.3758 -1.5399 -0.2468
 3521SOL     OW11140   7.683   8.295   5.839  0.2963  0.4633 -0.1465
 3521SOL    HW111141   7.727   8.321   5.920 -3.1110 -1.0339  2.4460
 3521SOL    HW211142   7.639   8.375   5.809 -0.8389  0.4197  1.2781
 3522SOL     OW11143   4.883   5.688   8.060 -0.5620  0.1671  0.2682
 3522SOL    HW111144   4.917   5.656   7.977 -1.6233  0.2182 -0.1936
 3522SOL    HW211145   4.860   5.609   8.109 -0.0475  0.1411  0.4762
 3523SOL     OW11146   6.009   2.219   2.338 -0.3366 -0.4138 -0.2133
 3523SOL    HW111147   6.044   2.305   2.313  0.4653 -0.6084  0.1796
 3523SOL    HW211148   5.959   2.236   2.418  1.0338 -0.5128  0.7063
 3524SOL     OW11149   6.989   8.194   9.080  0.4506 -0.4543  0.6714
 3524SOL    HW111150   7.026   8.273   9.039 -1.1926 -0.1593 -0.3383
 3524SOL    HW211151   6.964   8.138   9.006 -1.8847 -0.2508  1.2286
 3525SOL     OW11152   7.234   3.083   0.937 -0.1203 -0.3757  0.2710
 3525SOL    HW111153   7.301   3.112   0.998 -0.5244 -0.8585  0.9503
 3525SOL    HW211154   7.226   3.155   0.874  1.0527 -0.3306  0.1539
 3526SOL     OW11155   8.340   7.847   1.586 -0.0575 -0.1553 -0.3666
 3526SOL    HW111156   8.323   7.803   1.669 -1.5024  0.7304 -0.1609
 3526SOL    HW211157   8.312   7.783   1.520 -3.9668  0.9521 -0.0545
 3527SOL     OW11158   5.064   8.027   9.245 -0.3234  0.5373 -0.0068
 3527SOL    HW111159   4.988   7.986   9.205 -0.0184  2.8438 -3.2951
 3527SOL    HW211160   5.130   7.958   9.248 -2.1670 -1.3270  2.3425
 3528SOL     OW11161   6.077   6.689   2.408 -0.1019  0.3185  0.1048
 3528SOL    HW111162   6.025   6.707   2.486 -0.3437 -0.7315  0.1987
 3528SOL    HW211163   6.128   6.769   2.394  0.5731  0.2244  1.8098
 3529SOL     OW11164   2.512   0.876   7.666  0.3438 -0.4519  0.4166
 3529SOL    HW111165   2.597   0.894   7.706  0.9260  0.1136 -1.0053
 3529SOL    HW211166   2.528   0.800   7.609  0.1690  0.2896 -0.6502
 3530SOL     OW11167   3.393   0.597   1.239 -0.0978 -0.1641  0.2879
 3530SOL    HW111168   3.416   0.662   1.305  2.5749  0.2526 -0.9422
 3530SOL    HW211169   3.419   0.636   1.156 -2.2315 -1.1744 -0.9406
 3531SOL     OW11170   6.144   6.488   3.325  0.2341 -0.0695 -0.4030
 3531SOL    HW111171   6.107   6.471   3.412 -1.5392 -0.7605 -1.2518
 3531SOL    HW211172   6.068   6.504   3.269  1.4024  1.6836 -1.5768
 3532SOL     OW11173   7.554   3.220   5.808 -0.0430 -0.5579  0.8034
 3532SOL    HW111174   7.581   3.148   5.751  3.5667  1.3618 -0.2569
 3532SOL    HW211175   7.608   3.210   5.886 -0.9450 -0.0822  1.5016
 3533SOL     OW11176   5.633   6.960   1.590  0.2605  0.3017 -0.1123
 3533SOL    HW111177   5.593   6.898   1.651 -1.1287  0.2216 -1.0461
 3533SOL    HW211178   5.663   6.905   1.517 -0.7602  0.6645 -0.8340
 3534SOL     OW11179   6.473   4.821   2.128  0.2249  0.1011  0.4403
 3534SOL    HW111180   6.451   4.888   2.193 -2.9362  0.2029 -0.5817
 3534SOL    HW211181   6.424   4.846   2.050  2.9247 -0.7123 -1.6773
 3535SOL     OW11182   3.166   7.144   4.939  0.5488  0.0064 -0.1679
 3535SOL    HW111183   3.176   7.060   4.894  1.1144 -0.8044  1.4152
 3535SOL    HW211184   3.208   7.207   4.881 -0.5924 -0.6484 -1.7736
 3536SOL     OW11185   7.596   7.975   2.615 -0.4003  0.6236 -0.0809
 3536SOL    HW111186   7.691   7.967   2.609 -0.5687 -1.4343 -0.9341
 3536SOL    HW211187   7.576   7.958   2.707 -0.0681 -1.4199 -0.3363
 3537SOL     OW11188   8.394   5.897   0.770 -0.0426  0.1441 -0.0272
 3537SOL    HW111189   8.393   5.804   0.748 -0.4842  0.1203  0.0892
 3537SOL    HW211190   8.460   5.935   0.712  1.5735 -0.5658  1.2640
 3538SOL     OW11191   0.237   4.137   0.976 -0.2127 -0.2793 -0.1165
 3538SOL    HW111192   0.168   4.071   0.965 -0.7470  0.6416 -3.1853
 3538SOL    HW211193   0.217   4.177   1.061 -1.4575 -2.2152  0.5988
 3539SOL     OW11194   3.046   2.834   5.379 -0.0464  0.1501  0.2052
 3539SOL    HW111195   3.059   2.916   5.426 -1.5789  1.1387 -0.9844
 3539SOL    HW211196   3.069   2.854   5.289  0.5628 -1.0325  0.0780
 3540SOL     OW11197   1.810   9.041   5.478  0.2186 -0.3131  0.4042
 3540SOL    HW111198   1.864   9.041   5.557 -0.0567 -0.5354  0.5922
 3540SOL    HW211199   1.829   9.125   5.436 -1.7367  1.0740  2.1278
 3541SOL     OW11200   7.421   6.009   4.549  0.6470  0.1268 -0.0650
 3541SOL    HW111201   7.332   5.978   4.569  0.2627 -0.0830 -1.9728
 3541SOL    HW211202   7.427   6.093   4.594 -1.2422  1.0727 -1.4638
 3542SOL     OW11203   4.359   2.546   8.086  0.0760  0.3608  0.6038
 3542SOL    HW111204   4.360   2.519   8.178 -0.1157 -0.0927  0.4786
 3542SOL    HW211205   4.380   2.466   8.037  1.6736  0.9227  0.3128
 3543SOL     OW11206   8.110   2.716   1.891  0.0318 -0.8463 -0.2174
 3543SOL    HW111207   8.151   2.660   1.957 -0.7525 -2.4475 -1.0468
 3543SOL    HW211208   8.032   2.750   1.934  1.3155  0.9611  0.8324
 3544SOL     OW11209   7.366   5.996   7.380 -0.2357 -0.1536 -0.0013
 3544SOL    HW111210   7.381   5.925   7.443  3.6365 -0.1603 -0.6830
 3544SOL    HW211211   7.368   6.075   7.433  0.5021 -0.3058  0.2133
 3545SOL     OW11212   4.095   8.337   2.111  0.2130  0.3719  0.5697
 3545SOL    HW111213   4.068   8.428   2.122  1.5272  0.8359  0.0917
 3545SOL    HW211214   4.113   8.328   2.017 -4.1701 -1.6361 -0.3388
 3546SOL     OW11215   8.349   9.009   7.379 -0.1043 -0.1348 -0.3109
 3546SOL    HW111216   8.395   9.036   7.299  0.5954  1.4533  0.5774
 3546SOL    HW211217   8.273   8.960   7.348 -0.2903  1.1239 -1.9976
 3547SOL     OW11218   4.386   0.178   9.173  0.5873  0.2681  0.3490
 3547SOL    HW111219   4.349   0.231   9.243  1.8498  1.2996  0.2719
 3547SOL    HW211220   4.312   0.127   9.139  0.1241 -1.0354  3.0708
 3548SOL     OW11221   1.009   9.093   5.818  0.2324 -0.5683 -0.5186
 3548SOL    HW111222   1.001   9.057   5.907  0.5220  1.0150  0.1752
 3548SOL    HW211223   1.020   9.016   5.763 -0.7770 -1.6525  0.7106
 3549SOL     OW11224   1.864   8.826   3.389 -0.5655  0.1844  0.4329
 3549SOL    HW111225   1.770   8.812   3.374 -0.1186 -1.1673 -1.3064
 3549SOL    HW211226   1.902   8.835   3.302  1.1471 -0.7990  1.0342
 3550SOL     OW11227   0.588   5.681   9.881 -0.5811  0.5729 -0.1666
 3550SOL    HW111228   0.569   5.639   9.798 -0.7105  0.9983 -0.3579
 3550SOL    HW211229   0.652   5.749   9.860 -0.2172  0.3325  0.1705
 3551SOL     OW11230   1.511   1.865   5.089 -0.3130  0.1250  0.0814
 3551SOL    HW111231   1.575   1.871   5.160 -1.8975  1.7701  1.4945
 3551SOL    HW211232   1.549   1.803   5.027  2.0129  0.0500  1.4579
 3552SOL     OW11233   8.447   7.201   4.048  0.0892  0.0567  0.0259
 3552SOL    HW111234   8.384   7.242   4.106  0.6058 -0.0904  0.6984
 3552SOL    HW211235   8.523   7.183   4.103 -0.2859 -2.2467 -0.0831
 3553SOL     OW11236   2.933   1.236   9.862  1.1922 -0.3518 -0.5926
 3553SOL    HW111237   2.971   1.168   9.919  1.1545 -1.1489 -1.4947
 3553SOL    HW211238   3.009   1.273   9.817  1.1583 -0.1335 -0.4721
 3554SOL     OW11239   3.811   7.349   8.086  0.0948 -0.0310 -0.0564
 3554SOL    HW111240   3.720   7.377   8.092  0.0820 -0.0909  0.0348
 3554SOL    HW211241   3.844   7.356   8.175 -0.3013 -1.6312  0.2522
 3555SOL     OW11242   0.150   5.110   0.075  0.6893 -0.2541  0.1316
 3555SOL    HW111243   0.227   5.085   0.023  1.7775 -0.0336  1.5663
 3555SOL    HW211244   0.076   5.101   0.015  1.7159 -1.4051 -1.0139
 3556SOL     OW11245   4.851   0.184   3.434  0.3217  0.3124  0.0160
 3556SOL    HW111246   4.872   0.273   3.462  2.2583  0.1216 -0.6687
 3556SOL    HW211247   4.793   0.196   3.359  0.4769  0.9905 -0.0048
 3557SOL     OW11248   5.950   8.484   2.446 -0.8770 -0.0016 -0.1466
 3557SOL    HW111249   6.012   8.423   2.405 -0.4962  1.6052 -2.1227
 3557SOL    HW211250   5.865   8.458   2.410 -0.6992  0.6499 -1.0827
 3558SOL     OW11251   9.464   9.364   3.236  0.4594 -0.3514  0.5789
 3558SOL    HW111252   9.395   9.318   3.285 -0.2479  1.4102  1.2973
 3558SOL    HW211253   9.423   9.446   3.208  1.1296 -0.8699 -2.2199
 3559SOL     OW11254   8.825   8.336   3.635  0.0064  0.1895  0.2403
 3559SOL    HW111255   8.805   8.423   3.670  1.4592  1.8354 -2.5733
 3559SOL    HW211256   8.749   8.313   3.582  0.0498  0.2730  0.1401
 3560SOL     OW11257   7.870   2.931   2.393 -0.1417  0.6568 -0.5212
 3560SOL    HW111258   7.917   2.949   2.311 -0.4732 -0.3405 -0.9490
 3560SOL    HW211259   7.873   2.836   2.402  0.5732  0.8063  1.0540
 3561SOL     OW11260   9.021   7.780   6.002  0.1584  0.0073 -0.2057
 3561SOL    HW111261   9.114   7.805   6.000 -0.1030  1.6767  2.6825
 3561SOL    HW211262   8.975   7.861   6.022 -1.6497 -1.2369  0.9983
 3562SOL     OW11263   4.424   2.225   7.004  0.1534 -0.5767 -0.2714
 3562SOL    HW111264   4.411   2.154   7.067  1.5491 -0.4365  0.1918
 3562SOL    HW211265   4.335   2.247   6.974 -0.4081 -1.5520  0.6302
 3563SOL     OW11266   5.515   2.670   3.288 -0.4509 -0.0265 -0.3984
 3563SOL    HW111267   5.435   2.625   3.314 -0.2891 -0.3665 -0.4857
 3563SOL    HW211268   5.492   2.763   3.291 -0.7366 -0.1052 -0.0546
 3564SOL     OW11269   7.017   5.372   1.800 -0.1240 -0.0760 -0.6041
 3564SOL    HW111270   6.951   5.316   1.760  0.9908  0.0032 -2.7424
 3564SOL    HW211271   7.097   5.319   1.800  0.2458  0.4700  0.1453
 3565SOL     OW11272   5.645   1.627   7.383  0.0204  0.5511  0.4850
 3565SOL    HW111273   5.598   1.681   7.320  0.7259  1.3394  0.6191
 3565SOL    HW211274   5.589   1.627   7.461 -1.4710 -1.4521 -0.4849
 3566SOL     OW11275   2.025   5.284   8.984  0.0716  0.6122 -0.2009
 3566SOL    HW111276   1.944   5.334   8.980 -0.0467  0.4372  0.0077
 3566SOL    HW211277   2.030   5.252   9.074  0.7072  1.1807 -0.0238
 3567SOL     OW11278   9.442   8.517   4.649  0.3967 -0.5124 -0.1553
 3567SOL    HW111279   9.392   8.561   4.580  0.3902  0.7134  0.6070
 3567SOL    HW211280   9.519   8.571   4.662  1.7961 -2.1861 -1.0440
 3568SOL     OW11281   2.850   5.861   3.794  0.4026 -0.2265  0.1149
 3568SOL    HW111282   2.804   5.876   3.876  1.7933 -0.5832  1.0053
 3568SOL    HW211283   2.921   5.801   3.817  2.6290  1.9166 -0.6889
 3569SOL     OW11284   1.813   8.219   2.350  0.2038 -0.1005  0.2743
 3569SOL    HW111285   1.846   8.133   2.377  1.0887  0.3741  0.7218
 3569SOL    HW211286   1.828   8.276   2.425 -0.9488  0.3227  0.2117
 3570SOL     OW11287   6.707   5.796   1.714  0.1651 -0.4555  0.2387
 3570SOL    HW111288   6.631   5.833   1.759 -0.3237 -0.6625 -0.3919
 3570SOL    HW211289   6.714   5.706   1.748 -0.0981 -0.5552  0.0359
 3571SOL     OW11290   9.537   7.099   7.189  0.7701  0.4340 -0.0701
 3571SOL    HW111291   9.584   7.100   7.105  0.4146  0.7693 -0.2686
 3571SOL    HW211292   9.579   7.030   7.239  0.3429 -0.4373 -0.8875
 3572SOL     OW11293   4.818   8.804   8.407  0.8622 -0.0294  0.2909
 3572SOL    HW111294   4.839   8.795   8.314  1.3065 -0.9409  0.4682
 3572SOL    HW211295   4.903   8.817   8.449  1.0099 -2.2988  0.8517
 3573SOL     OW11296   6.874   8.590   5.451 -0.6940  0.0884  0.3325
 3573SOL    HW111297   6.861   8.607   5.358 -1.0523 -1.0060  0.1712
 3573SOL    HW211298   6.952   8.535   5.455 -0.5869  0.2666  0.6887
 3574SOL     OW11299   0.273   2.403   8.336  0.1604  0.4840  0.3291
 3574SOL    HW111300   0.216   2.473   8.304  0.0416  0.5747  0.7367
 3574SOL    HW211301   0.233   2.375   8.419 -0.2767 -0.6331 -0.2233
 3575SOL     OW11302   6.729   3.845   8.957  0.0744 -0.2449  0.1317
 3575SOL    HW111303   6.818   3.853   8.924 -0.4171  2.1868 -0.7635
 3575SOL    HW211304   6.678   3.908   8.907 -2.2753 -1.8315  0.3349
 3576SOL     OW11305   1.052   8.823   9.052 -0.3976  0.3136 -0.2375
 3576SOL    HW111306   1.071   8.819   8.959  2.1514 -0.5806  0.2317
 3576SOL    HW211307   1.021   8.735   9.075  3.3536 -1.0542  0.4265
 3577SOL     OW11308   7.437   0.694   9.642 -0.1213 -0.1122  0.0360
 3577SOL    HW111309   7.499   0.721   9.710 -0.7108  2.4698 -0.3326
 3577SOL    HW211310   7.435   0.768   9.581 -2.4573 -0.7388 -0.7499
 3578SOL     OW11311   1.851   3.582   7.121  0.4440 -0.4348 -0.6510
 3578SOL    HW111312   1.917   3.580   7.052  0.2333 -0.4138 -0.8531
 3578SOL    HW211313   1.798   3.660   7.102  0.2209 -0.5774 -0.6190
 3579SOL     OW11314   1.761   2.590   8.279  0.1507 -0.2750  0.1220
 3579SOL    HW111315   1.693   2.524   8.268  0.9639 -1.0099 -0.6149
 3579SOL    HW211316   1.740   2.657   8.213 -0.3256 -0.0857  0.4604
 3580SOL     OW11317   7.494   8.704   6.555 -0.5805 -0.0806 -0.3522
 3580SOL    HW111318   7.448   8.636   6.506  0.4973 -0.6437 -0.6251
 3580SOL    HW211319   7.492   8.674   6.646 -2.2790  0.7914 -0.0663
 3581SOL     OW11320   8.553   6.717   5.691  0.0341 -0.2340 -0.1332
 3581SOL    HW111321   8.582   6.707   5.600 -0.3474 -1.3394 -0.1393
 3581SOL    HW211322   8.491   6.646   5.705 -0.7974  0.6144  0.6535
 3582SOL     OW11323   9.590   2.043   8.800 -0.0800 -0.4043 -0.8025
 3582SOL    HW111324   9.630   1.991   8.731  0.8653 -0.7721 -0.0058
 3582SOL    HW211325   9.515   1.991   8.830  0.2774 -0.8558 -0.6795
 3583SOL     OW11326   3.995   5.861   4.950 -0.0884  0.0973 -0.1801
 3583SOL    HW111327   3.939   5.851   5.027 -0.2102 -1.0984 -0.4010
 3583SOL    HW211328   3.934   5.881   4.878 -0.2193 -0.9208 -0.3659
 3584SOL     OW11329   0.502   7.169   3.950 -0.2435 -0.2923  0.0026
 3584SOL    HW111330   0.548   7.240   3.905 -1.1334  0.5086  0.3194
 3584SOL    HW211331   0.530   7.090   3.905 -0.3707  0.3910 -1.3531
 3585SOL     OW11332   9.251   1.689   2.518  0.2830 -0.2682  0.4339
 3585SOL    HW111333   9.213   1.651   2.597  0.8142  0.1244  0.8898
 3585SOL    HW211334   9.237   1.623   2.450  0.2000 -0.7922  0.9542
 3586SOL     OW11335   0.073   8.690   4.433  0.3308  0.0768 -0.2005
 3586SOL    HW111336   0.037   8.613   4.389  0.6119  0.9837 -2.1365
 3586SOL    HW211337   0.002   8.722   4.488 -1.0808  0.4824 -2.1519
 3587SOL     OW11338   6.568   3.115   6.330 -0.1464  0.2163 -0.4587
 3587SOL    HW111339   6.614   3.196   6.352  1.0299 -0.4793 -0.2169
 3587SOL    HW211340   6.522   3.091   6.410 -0.0578  0.3727 -0.3591
 3588SOL     OW11341   4.493   5.836   0.998 -0.3076  0.1802  0.0716
 3588SOL    HW111342   4.530   5.903   0.941 -1.5697  0.7809 -0.0596
 3588SOL    HW211343   4.510   5.754   0.952  0.2378  0.4972 -0.3058
 3589SOL     OW11344   5.515   1.087   5.862 -0.4798 -0.0177 -0.1489
 3589SOL    HW111345   5.486   0.996   5.852 -2.2119  0.6922 -2.2349
 3589SOL    HW211346   5.488   1.130   5.781  0.5153  2.3259  0.6817
 3590SOL     OW11347   3.693   9.483   6.463  0.1660  0.1543 -0.1754
 3590SOL    HW111348   3.729   9.418   6.524 -1.1572 -1.9464 -1.5112
 3590SOL    HW211349   3.619   9.521   6.511  0.7242  0.4443  0.4795
 3591SOL     OW11350   9.726   5.755   8.938 -0.3281 -0.5401 -0.5104
 3591SOL    HW111351   9.677   5.675   8.921  0.1302 -0.6108 -1.5800
 3591SOL    HW211352   9.685   5.792   9.017 -1.9154 -0.7359 -1.1996
 3592SOL     OW11353   5.309   7.002   0.383  0.7152 -0.0354  0.5454
 3592SOL    HW111354   5.288   6.916   0.348 -1.6729  0.5510  0.3999
 3592SOL    HW211355   5.352   7.047   0.310  0.3528 -0.5087  0.0242
 3593SOL     OW11356   0.781   6.467   0.493  0.1273 -0.2749  0.1158
 3593SOL    HW111357   0.842   6.438   0.425  1.4242  0.2598  1.0081
 3593SOL    HW211358   0.695   6.444   0.460  0.8114 -1.0023 -1.2180
 3594SOL     OW11359   9.288   3.788   0.697 -0.1841 -0.7865 -0.0915
 3594SOL    HW111360   9.225   3.826   0.637 -0.8057 -0.9650  0.4404
 3594SOL    HW211361   9.370   3.785   0.647 -0.7000 -0.9868 -0.9476
 3595SOL     OW11362   4.559   6.546   7.344  0.1283 -0.2788 -0.0582
 3595SOL    HW111363   4.616   6.510   7.413  1.0803  0.9640 -0.1653
 3595SOL    HW211364   4.595   6.510   7.263  0.4366  0.0777 -0.0822
 3596SOL     OW11365   3.761   6.171   6.326 -0.3538 -0.0005 -0.6585
 3596SOL    HW111366   3.793   6.093   6.371 -1.6281 -0.0797  0.1854
 3596SOL    HW211367   3.813   6.176   6.246  1.6095 -0.1594  0.5588
 3597SOL     OW11368   0.478   3.662   0.500  0.4864  0.7714 -0.2091
 3597SOL    HW111369   0.394   3.709   0.504  0.6666  1.2132 -1.1825
 3597SOL    HW211370   0.511   3.681   0.412  1.2094 -0.0960 -0.1323
 3598SOL     OW11371   4.800   7.973   8.011  0.8872  0.4402  0.0202
 3598SOL    HW111372   4.811   8.067   8.026  4.3190  0.4301 -1.4435
 3598SOL    HW211373   4.854   7.931   8.078  0.0095 -0.4706  0.1781
 3599SOL     OW11374   7.866   5.930   2.346 -0.0134 -0.2550  0.2240
 3599SOL    HW111375   7.921   5.992   2.298 -0.0089  0.6840  1.3847
 3599SOL    HW211376   7.908   5.923   2.432  0.6898 -2.8489 -0.2427
 3600SOL     OW11377   0.038   1.740   9.768  0.3903 -0.5936 -0.1361
 3600SOL    HW111378   0.018   1.747   9.675  2.0621 -1.1322 -0.5699
 3600SOL    HW211379   0.023   1.828   9.803  1.6368  0.1408 -1.3438
 3601SOL     OW11380   8.665   7.725   7.681 -0.3416  0.1333 -0.5285
 3601SOL    HW111381   8.702   7.687   7.760 -0.5815  3.0329  1.1062
 3601SOL    HW211382   8.571   7.733   7.700 -0.6881 -0.6676 -1.8005
 3602SOL     OW11383   3.204   1.806   1.327 -0.5762 -0.2706 -0.2786
 3602SOL    HW111384   3.293   1.839   1.317  0.5112 -2.9359 -0.1735
 3602SOL    HW211385   3.166   1.859   1.397  1.6323 -0.3974  1.0948
 3603SOL     OW11386   2.248   8.092   2.860  0.3268 -0.6777  0.0098
 3603SOL    HW111387   2.258   8.143   2.780  0.6128 -0.2104  0.3342
 3603SOL    HW211388   2.324   8.117   2.914  0.2720 -1.1708  0.3225
 3604SOL     OW11389   6.389   4.469   6.845 -0.2256  0.0362  0.5951
 3604SOL    HW111390   6.484   4.458   6.842 -0.1424  0.4895  1.2358
 3604SOL    HW211391   6.371   4.543   6.788  0.1751  1.9665  2.8468
 3605SOL     OW11392   5.684   5.490   5.037 -0.2374 -0.3807  0.4733
 3605SOL    HW111393   5.736   5.486   4.957 -1.8523  1.7796 -0.7665
 3605SOL    HW211394   5.611   5.430   5.022  0.5796 -1.6233  1.2651
 3606SOL     OW11395   8.252   0.145   1.556  0.8137 -0.1679 -0.0408
 3606SOL    HW111396   8.320   0.209   1.533 -0.4240  1.4894  0.7364
 3606SOL    HW211397   8.226   0.108   1.472  2.3362 -0.5133 -0.4015
 3607SOL     OW11398   1.069   4.562   7.098  0.3277 -0.3686 -0.3929
 3607SOL    HW111399   1.164   4.564   7.108  0.3088  0.9346 -0.2669
 3607SOL    HW211400   1.053   4.492   7.035  1.5294  0.6856 -1.9413
 3608SOL     OW11401   7.183   0.891   0.460 -0.1868  0.0664 -0.1259
 3608SOL    HW111402   7.108   0.839   0.429 -1.6332  1.5904  0.6718
 3608SOL    HW211403   7.182   0.879   0.555  0.5526  0.1713 -0.1031
 3609SOL     OW11404   2.916   8.457   7.712  0.1291  0.6955  0.0694
 3609SOL    HW111405   2.885   8.453   7.802 -0.8267  3.6702 -0.0061
 3609SOL    HW211406   3.011   8.458   7.719  0.0752  0.3345  0.9848
 3610SOL     OW11407   4.954   1.205   8.232  0.0151 -0.0748  0.3934
 3610SOL    HW111408   4.861   1.227   8.231 -0.3591 -1.4960  1.0759
 3610SOL    HW211409   4.958   1.120   8.277  1.6436 -0.0238  0.4015
 3611SOL     OW11410   1.677   9.287   4.251 -0.3483  0.3399  0.2585
 3611SOL    HW111411   1.661   9.235   4.172  1.9252 -1.3424  0.7733
 3611SOL    HW211412   1.666   9.224   4.323 -1.6738  1.6632  1.2568
 3612SOL     OW11413   3.094   5.320   9.413  0.1988 -0.3508 -0.4368
 3612SOL    HW111414   3.128   5.357   9.332  2.1448 -0.9000  0.0945
 3612SOL    HW211415   3.104   5.390   9.477  1.0299 -0.7560 -0.1158
 3613SOL     OW11416   4.609   1.857   1.174  0.3406  0.2201 -0.6451
 3613SOL    HW111417   4.589   1.909   1.096 -0.3165  1.0078  0.0323
 3613SOL    HW211418   4.704   1.866   1.185  0.8292 -1.7029 -2.5934
 3614SOL     OW11419   2.665   1.510   5.650 -1.0346  0.1357 -0.3338
 3614SOL    HW111420   2.588   1.567   5.651 -1.0156  0.1937  1.9910
 3614SOL    HW211421   2.726   1.549   5.712  0.2792 -0.7464 -1.0142
 3615SOL     OW11422   5.149   9.761   1.739  0.4154  0.6209 -0.0269
 3615SOL    HW111423   5.205   9.692   1.703  0.4444  1.8564 -2.5643
 3615SOL    HW211424   5.199   9.798   1.811  1.1475 -0.8192  0.2412
 3616SOL     OW11425   2.421   6.484   3.792  0.3392  0.6723  0.2944
 3616SOL    HW111426   2.388   6.395   3.778 -0.2109  1.1087 -1.4532
 3616SOL    HW211427   2.348   6.540   3.767  0.7968  1.6354  1.0667
 3617SOL     OW11428   6.794   9.595   6.954 -0.0111 -0.2995  0.1734
 3617SOL    HW111429   6.865   9.624   6.896 -1.2469  0.7195 -0.9126
 3617SOL    HW211430   6.838   9.546   7.023  1.5774 -1.4571 -1.5310
 3618SOL     OW11431   0.170   5.587   5.121  0.3985 -0.4374  0.0362
 3618SOL    HW111432   0.218   5.610   5.041 -0.5576 -1.8805 -0.9922
 3618SOL    HW211433   0.103   5.654   5.129  2.2647  1.3806  1.2723
 3619SOL     OW11434   0.136   7.319   5.305  0.4311 -0.6734 -0.0581
 3619SOL    HW111435   0.109   7.344   5.217 -0.6618  0.2895  0.5372
 3619SOL    HW211436   0.066   7.263   5.337  0.0656  0.2221  0.7555
 3620SOL     OW11437   3.238   5.294   2.197 -0.0714 -0.1069 -0.1447
 3620SOL    HW111438   3.178   5.361   2.165 -0.2257  0.1492  0.6483
 3620SOL    HW211439   3.250   5.316   2.290 -0.0470 -1.1163  0.0990
 3621SOL     OW11440   5.522   4.828   0.948 -0.0744 -0.2326  0.1520
 3621SOL    HW111441   5.441   4.778   0.938  0.0918 -0.4561 -0.0755
 3621SOL    HW211442   5.502   4.913   0.909  0.1914 -0.7021 -1.0524
 3622SOL     OW11443   0.668   9.427   0.640  0.5203  1.0094  0.3340
 3622SOL    HW111444   0.721   9.448   0.716  0.5934  0.4782  0.4313
 3622SOL    HW211445   0.648   9.334   0.649  1.2447  0.7310 -0.7393
 3623SOL     OW11446   7.202   8.262   9.230  0.5992 -0.1543 -0.4150
 3623SOL    HW111447   7.207   8.358   9.231  2.0401 -0.2164  0.4598
 3623SOL    HW211448   7.129   8.243   9.171 -0.3917  1.5053  0.2107
 3624SOL     OW11449   7.694   9.641   7.758  0.4407 -0.1508  0.1090
 3624SOL    HW111450   7.763   9.707   7.757 -1.4730  2.0087  1.0930
 3624SOL    HW211451   7.669   9.629   7.666 -0.9085  2.5344  0.0376
 3625SOL     OW11452   0.789   7.499   0.987 -0.0818 -0.0521  0.2665
 3625SOL    HW111453   0.783   7.469   0.897 -0.5181  1.3127 -0.1805
 3625SOL    HW211454   0.772   7.593   0.983 -2.2157 -0.2677  1.9915
 3626SOL     OW11455   8.839   4.407   6.943  0.3054  0.0465  0.1402
 3626SOL    HW111456   8.899   4.453   7.002  0.6551 -1.5320  1.0709
 3626SOL    HW211457   8.767   4.379   6.999  0.5202 -1.2581 -0.1961
 3627SOL     OW11458   2.672   3.258   5.001 -0.7802 -0.4614  0.7831
 3627SOL    HW111459   2.718   3.238   5.083  0.0774  1.3450  0.8006
 3627SOL    HW211460   2.596   3.310   5.027 -0.6635 -0.1252  0.4726
 3628SOL     OW11461   4.046   7.573   7.347 -0.3500  0.4745  0.0088
 3628SOL    HW111462   4.047   7.490   7.395 -2.8015  0.5416  0.2739
 3628SOL    HW211463   4.102   7.631   7.399 -1.9325  0.1856  2.1591
 3629SOL     OW11464   4.834   6.232   7.680 -0.5748  0.0878  0.2282
 3629SOL    HW111465   4.882   6.266   7.756  0.4253  0.7111 -0.6596
 3629SOL    HW211466   4.810   6.143   7.706  0.7150 -0.1055  0.8681
 3630SOL     OW11467   9.060   1.764   7.734  0.0813  0.2165 -0.1675
 3630SOL    HW111468   8.973   1.734   7.762 -0.5642  0.8812 -1.4074
 3630SOL    HW211469   9.083   1.706   7.662  0.1690  0.7560 -0.5784
 3631SOL     OW11470   0.502   8.443   5.824  0.5431  0.1935 -0.0706
 3631SOL    HW111471   0.462   8.453   5.737  3.8947  0.9202 -1.6839
 3631SOL    HW211472   0.428   8.444   5.884 -2.0334 -1.2515 -2.9264
 3632SOL     OW11473   3.099   7.619   6.215 -0.3047  0.1625 -0.6423
 3632SOL    HW111474   3.082   7.590   6.305  1.5686 -2.2072 -0.9556
 3632SOL    HW211475   3.022   7.671   6.192 -1.3208 -0.0187  1.9514
 3633SOL     OW11476   6.576   3.935   6.679  0.1355  0.0978  0.0331
 3633SOL    HW111477   6.498   3.905   6.631 -1.5143  0.7890  2.1360
 3633SOL    HW211478   6.615   3.856   6.714  1.6412 -0.4834 -2.6619
 3634SOL     OW11479   8.658   7.178   0.557  0.2536  0.0028 -0.1388
 3634SOL    HW111480   8.736   7.232   0.562 -0.3911  0.9588 -0.1836
 3634SOL    HW211481   8.618   7.200   0.473 -0.0113 -0.5396 -0.1600
 3635SOL     OW11482   5.050   9.375   6.399  0.0552  0.0535  0.5406
 3635SOL    HW111483   5.117   9.389   6.332 -0.0687  1.2450  0.6523
 3635SOL    HW211484   5.087   9.410   6.479 -0.8360  1.0975  0.5253
 3636SOL     OW11485   7.107   1.593   4.768  0.2361  0.1981  0.1422
 3636SOL    HW111486   7.027   1.643   4.749  0.6625  1.1553  0.7613
 3636SOL    HW211487   7.098   1.569   4.861  1.2522  1.4900  0.6113
 3637SOL     OW11488   6.180   5.261   8.921 -0.5397 -0.2799 -0.4193
 3637SOL    HW111489   6.126   5.241   8.845  1.4378 -0.1799 -1.9281
 3637SOL    HW211490   6.195   5.176   8.963 -1.6284 -0.3365 -0.1157
 3638SOL     OW11491   6.322   3.003   7.830 -0.7404 -0.1642  0.5377
 3638SOL    HW111492   6.309   2.981   7.738 -0.2958 -0.3581  0.5159
 3638SOL    HW211493   6.328   3.098   7.832  1.3150 -0.2408  0.0624
 3639SOL     OW11494   5.867   2.035   2.163 -1.1975 -0.0989  0.3883
 3639SOL    HW111495   5.853   2.066   2.073  3.0623  0.6177 -0.2784
 3639SOL    HW211496   5.892   2.114   2.211  2.4240 -1.1723  0.5598
 3640SOL     OW11497   5.266   6.213   3.456 -0.2079  0.7762 -0.8647
 3640SOL    HW111498   5.197   6.149   3.444  0.4125 -0.3707  1.1571
 3640SOL    HW211499   5.284   6.212   3.550  1.4683  2.1920 -1.1045
 3641SOL     OW11500   3.539   9.258   4.114 -0.2917  0.4818  0.7187
 3641SOL    HW111501   3.616   9.268   4.059  1.2593  0.6436  2.7999
 3641SOL    HW211502   3.482   9.199   4.065  0.9100  0.7685 -1.1046
 3642SOL     OW11503   3.774   8.715   4.099  0.1330 -0.0247 -0.2927
 3642SOL    HW111504   3.762   8.680   4.187  1.4987 -0.4132 -0.2318
 3642SOL    HW211505   3.726   8.655   4.042 -0.6504  0.1563  0.1638
 3643SOL     OW11506   2.481   3.687   8.690  0.0341 -0.4783 -0.0120
 3643SOL    HW111507   2.447   3.703   8.778  2.2529 -0.0261  0.8207
 3643SOL    HW211508   2.408   3.646   8.644 -1.5133  0.1565  1.7246
 3644SOL     OW11509   4.630   3.898   5.823 -1.0525  0.8959  0.0380
 3644SOL    HW111510   4.651   3.965   5.888 -3.6828  2.1898 -0.3193
 3644SOL    HW211511   4.689   3.916   5.750 -1.1266  2.2783  0.2977
 3645SOL     OW11512   4.323   2.509   0.254  0.2664 -0.1228  0.6150
 3645SOL    HW111513   4.335   2.595   0.294  0.6622  0.0605  0.1068
 3645SOL    HW211514   4.391   2.503   0.188 -0.3844 -0.4185 -0.0450
 3646SOL     OW11515   3.156   3.974   1.591  0.1142  0.7967  0.3932
 3646SOL    HW111516   3.145   3.882   1.613 -0.8502  0.4832 -1.2111
 3646SOL    HW211517   3.208   4.011   1.663 -1.5584 -0.4283  2.3378
 3647SOL     OW11518   6.729   8.029   5.727  0.5421 -0.0264  0.5569
 3647SOL    HW111519   6.807   7.975   5.739  0.1448 -0.5918  0.6518
 3647SOL    HW211520   6.747   8.109   5.777  0.9664 -0.2497  0.7670
 3648SOL     OW11521   0.882   9.803   0.736  0.1787  0.1862  0.8435
 3648SOL    HW111522   0.882   9.782   0.642  0.6870  2.8714  0.1457
 3648SOL    HW211523   0.792   9.829   0.755 -0.2214 -1.5082  1.4642
 3649SOL     OW11524   9.765   2.441   6.745 -0.2949  0.0458  0.1050
 3649SOL    HW111525   9.797   2.524   6.778 -0.7774 -0.3359  1.5748
 3649SOL    HW211526   9.843   2.385   6.741 -0.0664  0.3936 -0.3678
 3650SOL     OW11527   9.568   4.678   5.613 -0.2432  0.0958  0.3841
 3650SOL    HW111528   9.556   4.585   5.630 -0.7705 -0.1754 -1.2940
 3650SOL    HW211529   9.631   4.707   5.680 -0.9572 -1.1755  1.6625
 3651SOL     OW11530   0.223   2.481   0.631  0.6107  0.2783 -0.0701
 3651SOL    HW111531   0.291   2.486   0.564  0.7179  1.3052  0.0847
 3651SOL    HW211532   0.146   2.519   0.590  0.0498 -1.0761 -0.3160
 3652SOL     OW11533   2.008   1.790   1.493  0.6574  0.4799 -0.4201
 3652SOL    HW111534   2.010   1.784   1.397  0.8218  1.9905 -0.5432
 3652SOL    HW211535   2.064   1.865   1.512 -1.7326  2.0898  0.6685
 3653SOL     OW11536   8.341   7.235   5.595  0.4658  0.3267 -0.2920
 3653SOL    HW111537   8.327   7.327   5.570  2.0494  0.7286  0.1720
 3653SOL    HW211538   8.391   7.240   5.676  0.0882 -0.9686  0.0330
 3654SOL     OW11539   8.020   0.438   7.640 -0.1694  0.4910  0.1229
 3654SOL    HW111540   8.098   0.490   7.624  0.7541 -0.5259  1.1158
 3654SOL    HW211541   8.014   0.431   7.735 -1.9975  1.2900  0.1128
 3655SOL     OW11542   5.256   5.753   5.033 -0.0582 -0.4611  0.2971
 3655SOL    HW111543   5.235   5.739   5.126 -0.0633 -0.9725  0.2174
 3655SOL    HW211544   5.316   5.828   5.034 -2.3105  1.4427  0.4897
 3656SOL     OW11545   1.313   5.576   0.805 -0.0828  0.1464 -0.0119
 3656SOL    HW111546   1.271   5.520   0.740 -1.9601  1.6474 -0.1990
 3656SOL    HW211547   1.242   5.633   0.835  1.1564  0.6751  2.0560
 3657SOL     OW11548   2.243   4.946   1.173 -0.3922 -0.0140  0.1246
 3657SOL    HW111549   2.236   4.915   1.083  0.2827 -0.4625  0.2235
 3657SOL    HW211550   2.326   4.912   1.204  0.5510  2.1439  0.1404
 3658SOL     OW11551   5.684   1.424   9.627  0.5605  0.2673  0.0856
 3658SOL    HW111552   5.735   1.368   9.568  3.0185  1.8942  0.5088
 3658SOL    HW211553   5.689   1.511   9.588 -2.4070  0.4632 -0.0792
 3659SOL     OW11554   0.091   3.874   1.164  0.5325 -0.4738  0.2243
 3659SOL    HW111555   0.165   3.815   1.180  1.3262  0.7457  1.2355
 3659SOL    HW211556   0.096   3.939   1.234 -0.7070  0.4244 -0.4678
 3660SOL     OW11557   8.869   7.211   9.015  0.8851 -0.0705  0.1773
 3660SOL    HW111558   8.891   7.296   8.976  0.4684 -0.1588 -0.2657
 3660SOL    HW211559   8.897   7.147   8.950 -2.0328 -0.1448 -1.1709
 3661SOL     OW11560   8.248   8.956   6.131 -0.0860  0.0484  0.2784
 3661SOL    HW111561   8.188   9.008   6.185 -0.5981  0.4130 -0.6337
 3661SOL    HW211562   8.334   8.995   6.148 -0.7048  2.6818 -2.0279
 3662SOL     OW11563   6.545   0.746   7.658  0.2901  0.6119 -0.3886
 3662SOL    HW111564   6.568   0.689   7.732 -0.6178 -0.1727 -0.6960
 3662SOL    HW211565   6.563   0.834   7.690  0.6537  0.2327  0.4918
 3663SOL     OW11566   7.603   2.031   6.404  0.2225  0.4909  0.1158
 3663SOL    HW111567   7.548   2.056   6.329  1.7413 -0.2662 -1.3012
 3663SOL    HW211568   7.687   2.074   6.387  0.8451 -0.3658  0.9667
 3664SOL     OW11569   5.193   0.456   8.019 -0.5700 -0.2264  1.0224
 3664SOL    HW111570   5.128   0.519   8.051 -0.6702 -0.5987  1.5827
 3664SOL    HW211571   5.150   0.371   8.030 -0.9318 -0.3337 -0.9003
 3665SOL     OW11572   6.737   1.775   6.046  0.0842  0.1198  0.6761
 3665SOL    HW111573   6.689   1.774   6.129  0.3584 -1.2839  0.8527
 3665SOL    HW211574   6.819   1.729   6.066  0.1001 -0.3409 -0.3910
 3666SOL     OW11575   6.357   9.542   7.799  0.0780 -0.9896 -0.5544
 3666SOL    HW111576   6.266   9.521   7.778 -0.1871 -1.4646  1.0056
 3666SOL    HW211577   6.377   9.617   7.742 -0.8859 -1.6155 -1.7734
 3667SOL     OW11578   9.478   6.223   4.402  0.7075  0.4359 -0.3924
 3667SOL    HW111579   9.456   6.222   4.495  0.8122  0.3396 -0.3679
 3667SOL    HW211580   9.574   6.219   4.400  0.9891  3.9751 -0.4092
 3668SOL     OW11581   2.109   7.635   1.332  0.4406 -0.2998  0.3756
 3668SOL    HW111582   2.043   7.607   1.268  0.3791  0.0908  0.2686
 3668SOL    HW211583   2.074   7.716   1.369  1.4166  0.5777 -0.5483
 3669SOL     OW11584   2.834   4.518   5.010 -0.2397  0.3439 -0.0759
 3669SOL    HW111585   2.885   4.529   4.929  0.2710  0.7398  0.2908
 3669SOL    HW211586   2.830   4.606   5.048 -1.4501  0.3757 -0.2386
 3670SOL     OW11587   6.786   9.034   3.201  0.0438 -0.1323  0.1712
 3670SOL    HW111588   6.839   8.956   3.221 -0.6123 -0.4585  0.6665
 3670SOL    HW211589   6.850   9.105   3.196  0.5761 -0.5812  0.3775
 3671SOL     OW11590   6.069   5.900   5.732  0.0965 -0.1517  0.3549
 3671SOL    HW111591   5.993   5.846   5.753 -0.4723 -0.5106 -2.2697
 3671SOL    HW211592   6.034   5.971   5.678  1.2991  1.1051  1.1582
 3672SOL     OW11593   7.616   6.146   6.634 -0.1655  0.1210 -0.1052
 3672SOL    HW111594   7.544   6.207   6.616 -1.0219 -1.0004 -0.6074
 3672SOL    HW211595   7.587   6.096   6.710 -0.4576 -1.1193 -1.0018
 3673SOL     OW11596   0.157   4.637   9.036 -0.4056  0.0136  0.8253
 3673SOL    HW111597   0.188   4.700   9.100 -1.1249 -1.0610  2.2856
 3673SOL    HW211598   0.147   4.555   9.085  0.2523 -1.1931 -0.9441
 3674SOL     OW11599   8.249   1.090   7.486  0.5447  0.2348 -0.0412
 3674SOL    HW111600   8.264   1.025   7.417 -0.1635  1.1533 -1.1105
 3674SOL    HW211601   8.262   1.043   7.568  1.4619 -0.8851 -0.8028
 3675SOL     OW11602   0.799   1.349   0.633  0.2095  0.1802 -0.0126
 3675SOL    HW111603   0.718   1.347   0.582  1.6040  2.8039 -2.6200
 3675SOL    HW211604   0.782   1.412   0.703 -0.2490  0.0087  0.0403
 3676SOL     OW11605   1.998   1.035   2.817 -0.3857 -0.0382 -0.5561
 3676SOL    HW111606   1.959   1.013   2.901  1.3531  0.6732  0.5107
 3676SOL    HW211607   1.928   1.079   2.768 -0.9299  1.2874  1.2901
 3677SOL     OW11608   3.976   4.665   2.973  0.2983 -0.6080  0.9221
 3677SOL    HW111609   4.065   4.699   2.962  0.3611 -0.6032  1.4344
 3677SOL    HW211610   3.952   4.688   3.062  0.8919 -3.1285  1.8353
 3678SOL     OW11611   4.444   8.521   1.170 -0.7425  0.2737  0.0916
 3678SOL    HW111612   4.442   8.572   1.251  0.0102  0.8811 -0.2588
 3678SOL    HW211613   4.477   8.435   1.196  0.2058  0.6986  0.3172
 3679SOL     OW11614   1.696   0.712   0.579  0.1400 -0.1059 -0.2359
 3679SOL    HW111615   1.662   0.794   0.544  0.8621 -1.6642 -5.3901
 3679SOL    HW211616   1.791   0.724   0.579  0.1883 -0.1696  1.5815
 3680SOL     OW11617   2.460   4.061   3.330 -0.5624  0.1619 -0.4304
 3680SOL    HW111618   2.412   3.979   3.341  0.5171 -0.6335 -1.4392
 3680SOL    HW211619   2.469   4.070   3.235  0.1456  0.9665 -0.2921
 3681SOL     OW11620   5.246   9.489   2.741 -0.5400 -0.0155  0.2820
 3681SOL    HW111621   5.176   9.553   2.724 -1.7978 -1.7118 -1.3203
 3681SOL    HW211622   5.298   9.491   2.661  0.0684 -0.2039  0.6758
 3682SOL     OW11623   9.713   0.931   9.917  0.5418 -0.3495 -0.6037
 3682SOL    HW111624   9.746   1.013   9.882  0.4452 -0.1274 -0.1704
 3682SOL    HW211625   9.753   0.864   9.861 -0.8227  0.0629 -2.1659
 3683SOL     OW11626   3.356   8.172   0.979 -0.0046  0.8039 -0.4841
 3683SOL    HW111627   3.272   8.164   1.023 -0.0758  1.3726 -0.5060
 3683SOL    HW211628   3.377   8.083   0.950 -0.9323  0.7855 -1.1073
 3684SOL     OW11629   0.440   3.894   6.041  0.2646  0.5099 -0.4260
 3684SOL    HW111630   0.363   3.920   6.090  0.9753  1.4941  0.2061
 3684SOL    HW211631   0.425   3.928   5.953 -1.1728 -1.5660 -1.0455
 3685SOL     OW11632   3.491   6.681   3.113 -0.4390  0.4145 -0.3507
 3685SOL    HW111633   3.418   6.716   3.062 -0.7119 -0.5074 -0.6219
 3685SOL    HW211634   3.552   6.754   3.121 -1.3177  1.1650 -0.2468
 3686SOL     OW11635   6.349   1.279   6.407 -0.0305 -0.2149  0.4706
 3686SOL    HW111636   6.263   1.308   6.377 -0.0785 -0.8745 -0.0498
 3686SOL    HW211637   6.409   1.345   6.373 -0.3308  0.2935  0.9050
 3687SOL     OW11638   8.898   8.558   5.117 -0.0914  0.9142  0.3113
 3687SOL    HW111639   8.910   8.541   5.024  1.0402  1.1884  0.3884
 3687SOL    HW211640   8.932   8.647   5.130  1.3416  0.2845  1.2372
 3688SOL     OW11641   0.718   9.890   2.059 -0.0138  0.5378  0.1860
 3688SOL    HW111642   0.632   9.916   2.092 -0.6090  0.5669 -1.3024
 3688SOL    HW211643   0.742   9.960   1.999  0.4984 -0.0588 -0.3182
 3689SOL     OW11644   1.121   8.355   7.237  0.6002 -0.2079  0.0654
 3689SOL    HW111645   1.158   8.427   7.288 -1.5765  0.2390  1.1673
 3689SOL    HW211646   1.063   8.310   7.299  1.0687 -2.2541 -0.9084
 3690SOL     OW11647   8.510   1.040   0.284 -0.4950  0.0806 -0.3485
 3690SOL    HW111648   8.444   0.977   0.313 -0.0609 -0.4175 -0.4382
 3690SOL    HW211649   8.578   0.987   0.243  0.5179  0.4720  0.7459
 3691SOL     OW11650   1.087  10.004   3.319 -0.0955  0.1694  0.3315
 3691SOL    HW111651   1.001   9.986   3.356 -0.1110 -1.2411 -0.3392
 3691SOL    HW211652   1.101   9.935   3.254  1.2148  0.8238 -0.1299
 3692SOL     OW11653   4.642   3.565   7.163  0.2501 -0.2473  0.5062
 3692SOL    HW111654   4.588   3.640   7.138 -0.8727 -1.1854  0.0426
 3692SOL    HW211655   4.717   3.568   7.104 -0.6956 -0.5189 -0.7337
 3693SOL     OW11656   6.489   3.167   9.426 -0.3817 -0.1655 -0.3392
 3693SOL    HW111657   6.540   3.224   9.369  0.2501 -1.6058 -1.2934
 3693SOL    HW211658   6.535   3.169   9.510  1.0005 -1.0023 -1.0224
 3694SOL     OW11659   0.992   0.601   7.091 -0.0905 -0.4354 -0.3081
 3694SOL    HW111660   0.900   0.609   7.115 -1.1069  2.6448 -4.1099
 3694SOL    HW211661   0.994   0.530   7.026 -0.3782  0.9356 -1.9058
 3695SOL     OW11662   6.224   5.920   5.355 -0.4405  0.1197 -0.1797
 3695SOL    HW111663   6.278   5.938   5.432 -1.7787  0.2990  0.7396
 3695SOL    HW211664   6.199   6.006   5.323 -0.6530  0.0260 -0.2668
 3696SOL     OW11665   0.284   3.850   8.783  0.1492 -0.1725 -0.1378
 3696SOL    HW111666   0.347   3.888   8.722  1.6462 -0.8980  0.8977
 3696SOL    HW211667   0.295   3.756   8.775  1.0369 -0.2871  1.8558
 3697SOL     OW11668   1.794   3.957   5.829 -0.2487  0.6262 -0.5470
 3697SOL    HW111669   1.704   3.942   5.802  0.4933 -3.6677 -1.3802
 3697SOL    HW211670   1.804   3.905   5.909  1.7364 -0.0385 -1.1644
 3698SOL     OW11671   3.783   2.252   6.756  0.0953  0.1734 -0.2052
 3698SOL    HW111672   3.862   2.305   6.744  0.4317 -0.1565  0.5328
 3698SOL    HW211673   3.712   2.307   6.722  0.6352  0.4825 -0.8379
 3699SOL     OW11674   0.810   0.886   3.629  0.8160 -0.0579 -0.3577
 3699SOL    HW111675   0.785   0.894   3.537  1.1545  0.5892 -0.3963
 3699SOL    HW211676   0.764   0.957   3.673 -0.0316 -0.8813  0.1304
 3700SOL     OW11677   0.357   7.158   5.342  0.1437  0.3895 -0.1357
 3700SOL    HW111678   0.317   7.245   5.333 -1.4163 -0.3267 -0.5360
 3700SOL    HW211679   0.289   7.098   5.312  0.0946 -1.1768  2.7777
 3701SOL     OW11680   4.106   0.468   2.333 -0.9092  0.1799 -0.0955
 3701SOL    HW111681   4.092   0.558   2.363 -1.0034 -0.0772  0.6460
 3701SOL    HW211682   4.184   0.473   2.277 -2.1521  1.1015 -1.8477
 3702SOL     OW11683   5.477   9.440   2.556 -0.6903  0.0453  0.4831
 3702SOL    HW111684   5.526   9.515   2.589  0.8259 -0.1058 -1.2625
 3702SOL    HW211685   5.488   9.373   2.623 -0.6532  0.8292  1.2862
 3703SOL     OW11686   7.083   5.318   2.115  0.3113 -0.5976 -0.1013
 3703SOL    HW111687   7.117   5.401   2.080 -0.3841 -0.6497 -0.9256
 3703SOL    HW211688   7.147   5.252   2.086  0.4353 -0.4566 -0.1498
 3704SOL     OW11689   0.827   6.803   8.032 -0.0946  0.2207  0.0032
 3704SOL    HW111690   0.781   6.778   8.111  0.7437  2.1627  1.1941
 3704SOL    HW211691   0.842   6.721   7.985 -1.3373 -0.8752  1.4451
 3705SOL     OW11692   3.494   2.146   1.005  0.4421 -0.2175  0.1354
 3705SOL    HW111693   3.444   2.065   1.009 -1.4406  0.7458 -1.8177
 3705SOL    HW211694   3.477   2.188   1.089  1.0293 -1.5625  0.9622
 3706SOL     OW11695   7.249   4.118   7.026 -0.3749 -0.4075  0.0782
 3706SOL    HW111696   7.288   4.205   7.031 -0.9880 -0.1119 -0.2147
 3706SOL    HW211697   7.315   4.064   6.982 -0.2340  0.0519 -0.2723
 3707SOL     OW11698   1.246   7.169   5.435 -0.0574  0.4496 -0.1020
 3707SOL    HW111699   1.191   7.107   5.386  2.3295 -0.8051 -1.4212
 3707SOL    HW211700   1.205   7.176   5.520 -2.8561  0.5043 -1.3511
 3708SOL     OW11701   4.451   9.526   8.180 -0.0565  0.0727 -0.3175
 3708SOL    HW111702   4.529   9.555   8.228  0.5114 -3.2281  1.0354
 3708SOL    HW211703   4.480   9.449   8.132 -2.4532 -1.3073  0.2626
 3709SOL     OW11704   0.652   1.077   5.564  0.0847  0.6965 -0.6132
 3709SOL    HW111705   0.716   1.119   5.622  1.1041 -0.4276 -0.8824
 3709SOL    HW211706   0.702   1.012   5.516 -1.4999 -1.1058  0.0570
 3710SOL     OW11707   6.985   7.075   2.864  0.2191  0.7617  0.4663
 3710SOL    HW111708   7.000   6.986   2.832 -1.5101  0.3593  0.7086
 3710SOL    HW211709   7.020   7.131   2.794  1.2602 -0.0797  0.2762
 3711SOL     OW11710   6.318   6.321   2.806  0.2599 -0.1765 -0.1044
 3711SOL    HW111711   6.278   6.295   2.889  1.2642 -0.5240  0.2868
 3711SOL    HW211712   6.378   6.250   2.785 -0.9643 -0.7495 -1.8453
 3712SOL     OW11713   1.351   1.684   1.169 -0.1090 -0.4586  0.0013
 3712SOL    HW111714   1.376   1.670   1.260  0.4877  0.9679  0.0908
 3712SOL    HW211715   1.406   1.624   1.119  1.0632  0.2197  0.4495
 3713SOL     OW11716   3.937   9.403   6.066  0.4805 -0.6078 -0.0331
 3713SOL    HW111717   3.955   9.313   6.091 -2.1380 -0.9659  0.8119
 3713SOL    HW211718   4.007   9.454   6.109  0.9598 -2.0478  0.9650
 3714SOL     OW11719   3.760   6.085   9.593 -0.2512 -0.2728 -0.1662
 3714SOL    HW111720   3.738   6.174   9.620 -0.5453 -0.1970 -0.6357
 3714SOL    HW211721   3.801   6.096   9.507  0.6372 -0.5066  0.2107
 3715SOL     OW11722   2.173   0.274   6.962 -0.1949 -0.1964 -0.2148
 3715SOL    HW111723   2.234   0.216   7.006  0.2931 -0.5461 -1.3090
 3715SOL    HW211724   2.216   0.359   6.961  0.4280 -0.5101 -1.2477
 3716SOL     OW11725   5.590   8.692   6.968  0.5072 -0.2824 -0.0828
 3716SOL    HW111726   5.495   8.707   6.976  0.5696  0.2194 -0.2640
 3716SOL    HW211727   5.626   8.779   6.951  1.0995 -0.3217  0.8970
 3717SOL     OW11728   1.408   4.886   0.141  0.3406  0.2449 -0.0090
 3717SOL    HW111729   1.470   4.813   0.133 -0.1407 -0.0324 -1.5179
 3717SOL    HW211730   1.411   4.909   0.233  2.4745  0.0531  0.0241
 3718SOL     OW11731   2.795   5.878   5.285 -0.4793 -0.1343  0.3671
 3718SOL    HW111732   2.887   5.902   5.283 -0.2321 -1.1059 -0.0968
 3718SOL    HW211733   2.794   5.783   5.298 -1.4505  0.0946  2.5286
 3719SOL     OW11734   9.679   2.117   3.248  0.4725  0.0048 -0.4210
 3719SOL    HW111735   9.607   2.101   3.187 -0.3872 -2.3683  1.0845
 3719SOL    HW211736   9.745   2.053   3.224  0.9833  0.4189 -0.1309
 3720SOL     OW11737   2.926   8.452   1.859  0.3790  0.5099  0.0010
 3720SOL    HW111738   2.899   8.447   1.951  0.4122 -1.5757 -0.0556
 3720SOL    HW211739   2.999   8.392   1.852  1.2616  1.6605 -1.1402
 3721SOL     OW11740   7.861   3.065   8.657  0.4170  0.1980 -0.5092
 3721SOL    HW111741   7.918   2.989   8.654 -0.0108 -0.1062 -2.4476
 3721SOL    HW211742   7.811   3.054   8.739  2.2757 -0.1136  0.6329
 3722SOL     OW11743   7.658   9.092   8.110 -0.7288  0.0912 -0.6197
 3722SOL    HW111744   7.699   9.121   8.191  0.8577 -0.0344 -1.3397
 3722SOL    HW211745   7.564   9.094   8.128 -0.4608  1.2787  0.7999
 3723SOL     OW11746   8.644   6.253   1.683 -0.0447  0.6249  0.1509
 3723SOL    HW111747   8.703   6.183   1.711 -0.6204  0.5452  1.2224
 3723SOL    HW211748   8.698   6.332   1.683  0.4572  0.2970 -0.4840
 3724SOL     OW11749   3.073   9.815   7.760 -0.4316  0.2152 -0.0834
 3724SOL    HW111750   3.021   9.849   7.687  1.4485  1.4929 -0.9211
 3724SOL    HW211751   3.164   9.835   7.735  0.4974 -2.1131  1.1914
 3725SOL     OW11752   5.946   4.917   2.715 -0.0415 -0.2397  0.6829
 3725SOL    HW111753   5.940   4.900   2.809  1.7037  0.2593  0.9148
 3725SOL    HW211754   5.954   5.012   2.709  0.1441 -0.2941  0.0424
 3726SOL     OW11755   9.841   8.678   2.378 -0.2078  1.0483  0.4135
 3726SOL    HW111756   9.779   8.666   2.306  0.0362 -0.0318  0.3668
 3726SOL    HW211757   9.810   8.618   2.446  0.3000  1.1118  0.7043
 3727SOL     OW11758   2.189   5.143   6.955  0.2444  0.1693 -0.5352
 3727SOL    HW111759   2.114   5.139   7.015 -0.7702 -2.1156 -1.8214
 3727SOL    HW211760   2.255   5.088   6.996 -0.6329 -1.8020 -1.6665
 3728SOL     OW11761   3.476   6.277   9.909  0.5599 -0.3767  0.0306
 3728SOL    HW111762   3.417   6.257   9.981  0.3675  0.2372  0.0444
 3728SOL    HW211763   3.522   6.194   9.892  3.0559  0.1980  3.0695
 3729SOL     OW11764   3.959   1.971   1.073 -0.0270 -0.4870 -0.5651
 3729SOL    HW111765   3.991   1.972   0.983  0.0980 -1.1985 -0.5317
 3729SOL    HW211766   3.916   2.056   1.084 -1.4544 -1.0143 -1.7954
 3730SOL     OW11767   6.557   9.249   7.072  0.5717  0.7444 -0.0420
 3730SOL    HW111768   6.473   9.271   7.031  1.3209  0.1608 -2.0396
 3730SOL    HW211769   6.599   9.334   7.087  0.7666  0.9872 -1.7004
 3731SOL     OW11770   5.773   8.553   7.962 -0.4988  0.0688 -0.6648
 3731SOL    HW111771   5.810   8.515   7.882  1.0791  0.3454 -0.1105
 3731SOL    HW211772   5.845   8.603   8.000 -1.3319  0.2568  0.7361
 3732SOL     OW11773   8.410   0.689   9.335  0.0363  0.6817  0.2936
 3732SOL    HW111774   8.498   0.655   9.346 -0.0332  0.4166  0.0621
 3732SOL    HW211775   8.402   0.704   9.240 -0.7771 -1.0008  0.0709
 3733SOL     OW11776   8.753   7.827   5.702  0.5822 -0.3023  0.1103
 3733SOL    HW111777   8.764   7.804   5.610 -2.4843  0.6885 -0.6206
 3733SOL    HW211778   8.723   7.746   5.744 -2.0635  0.1753 -0.7079
 3734SOL     OW11779   2.165   2.763   0.814  0.1335 -0.1141 -0.0706
 3734SOL    HW111780   2.109   2.704   0.864  0.7729 -0.2572  0.4833
 3734SOL    HW211781   2.115   2.781   0.734 -1.1109  0.5166  0.8237
 3735SOL     OW11782   0.312   8.966   9.709 -0.1265  0.0158  0.3934
 3735SOL    HW111783   0.340   8.893   9.654 -1.0219 -0.4732  0.5671
 3735SOL    HW211784   0.236   9.003   9.663  0.0757  0.5824  0.5113
 3736SOL     OW11785   6.435   3.443   6.074  0.0068  0.1296  0.1693
 3736SOL    HW111786   6.349   3.480   6.053  0.8486  2.5392  0.6595
 3736SOL    HW211787   6.493   3.475   6.005  0.8097 -0.2283  0.6573
 3737SOL     OW11788   7.293   0.871   5.982  0.1947 -0.1822 -0.0536
 3737SOL    HW111789   7.207   0.907   5.964  0.1070 -0.3070  0.1154
 3737SOL    HW211790   7.314   0.903   6.070  0.9299  1.0255 -0.6360
 3738SOL     OW11791   1.855   9.315   9.876  0.4016 -0.1300  0.4308
 3738SOL    HW111792   1.764   9.297   9.853  1.0737 -0.9724 -1.8182
 3738SOL    HW211793   1.870   9.403   9.841  1.5252 -1.5456 -3.0572
 3739SOL     OW11794   1.500   6.700   5.743 -0.6051 -0.2087 -0.1691
 3739SOL    HW111795   1.435   6.635   5.718 -0.7816  0.3431 -1.2158
 3739SOL    HW211796   1.584   6.662   5.717 -0.6952 -0.1035 -0.6346
 3740SOL     OW11797   6.946   6.905   6.625  0.6985  0.0141  0.3664
 3740SOL    HW111798   6.977   6.856   6.550  0.6208  0.3130  0.1367
 3740SOL    HW211799   6.879   6.963   6.590  0.9900  0.4880  0.5774
 3741SOL     OW11800   7.341   5.921   2.012 -0.1839 -0.2719 -0.2890
 3741SOL    HW111801   7.278   5.851   1.998 -1.4587  0.5923  0.9456
 3741SOL    HW211802   7.288   5.998   2.031  1.2299  0.6365  0.1048
 3742SOL     OW11803   0.481   9.376   3.309 -0.6445 -0.4410 -0.2334
 3742SOL    HW111804   0.514   9.408   3.393  0.3562 -0.7276 -0.5034
 3742SOL    HW211805   0.435   9.451   3.271  0.6853  0.3430 -0.3544
 3743SOL     OW11806   6.827   3.132   9.876 -0.2099 -0.1396 -0.5437
 3743SOL    HW111807   6.823   3.061   9.812  1.0542 -1.7989  1.1141
 3743SOL    HW211808   6.757   3.112   9.938  1.4712 -1.2265  1.1065
 3744SOL     OW11809   3.832   9.916   0.801  0.5394  1.1151 -0.7068
 3744SOL    HW111810   3.912   9.869   0.825 -0.9715 -0.9765  0.5770
 3744SOL    HW211811   3.828   9.989   0.863  0.0891 -0.3800  1.1150
 3745SOL     OW11812   5.077   6.497   7.328  0.4189  0.2880 -0.1649
 3745SOL    HW111813   5.042   6.563   7.268  0.5893  0.5493  0.0245
 3745SOL    HW211814   5.006   6.480   7.390  0.8805  1.3823  0.6901
 3746SOL     OW11815   1.915   7.411   6.857 -0.1695  0.6370 -0.0061
 3746SOL    HW111816   1.920   7.447   6.945 -3.3174 -0.9266  0.9393
 3746SOL    HW211817   1.971   7.333   6.859 -1.0809 -0.0230  1.0246
 3747SOL     OW11818   2.583   8.587   7.295 -0.7640  0.5931  0.3152
 3747SOL    HW111819   2.542   8.672   7.279  2.1766  1.6865 -2.8226
 3747SOL    HW211820   2.599   8.585   7.389 -1.7768  3.0929  0.6223
 3748SOL     OW11821   9.354   0.691   6.467  0.0029  0.0201 -0.1394
 3748SOL    HW111822   9.266   0.656   6.476  0.4026 -1.1805 -0.7194
 3748SOL    HW211823   9.399   0.664   6.547 -0.2601  0.9938  0.3496
 3749SOL     OW11824   3.347   7.073   6.078 -0.2704  0.1067  0.6343
 3749SOL    HW111825   3.335   7.000   6.140 -0.0532 -1.1649 -0.7686
 3749SOL    HW211826   3.306   7.148   6.122  0.1511 -0.6705  2.4428
 3750SOL     OW11827   7.068   6.714   5.667 -0.3937 -0.1046 -0.0804
 3750SOL    HW111828   7.048   6.634   5.715 -0.4267 -0.0809 -0.0543
 3750SOL    HW211829   7.053   6.784   5.731  1.1835 -0.1588  0.3991
 3751SOL     OW11830   2.322   5.014   7.397 -0.4323 -0.4477  0.2321
 3751SOL    HW111831   2.232   5.014   7.429 -0.5224 -1.7632  0.0168
 3751SOL    HW211832   2.353   4.924   7.410  1.1818  0.1993  1.1967
 3752SOL     OW11833   5.078   0.401   9.920  0.0745  0.6913  1.1438
 3752SOL    HW111834   5.162   0.372   9.956  0.8226  2.0808  0.5711
 3752SOL    HW211835   5.099   0.431   9.832 -1.1603  0.4154  0.7366
 3753SOL     OW11836   4.329   6.226   7.625 -0.2115 -0.0502 -0.3576
 3753SOL    HW111837   4.283   6.169   7.562  1.1787  0.6074 -2.0309
 3753SOL    HW211838   4.293   6.313   7.609  0.0752  0.1052 -0.1528
 3754SOL     OW11839   3.939   6.439   2.655 -0.3002  0.5338 -0.1296
 3754SOL    HW111840   4.022   6.391   2.655 -0.4148  0.3201 -1.2310
 3754SOL    HW211841   3.949   6.505   2.587 -0.8097  0.9108  0.1551
 3755SOL     OW11842   4.855   2.028   2.352 -0.1178 -0.3495 -0.2187
 3755SOL    HW111843   4.796   2.021   2.277  1.0549 -2.0831 -1.0394
 3755SOL    HW211844   4.940   1.999   2.319  0.5257 -0.8000  1.6924
 3756SOL     OW11845   9.880   6.252   3.114  0.2815 -0.0437 -0.2329
 3756SOL    HW111846   9.792   6.234   3.080 -0.1750  0.9085  0.3847
 3756SOL    HW211847   9.865   6.283   3.204  1.4518 -2.2802  0.7892
 3757SOL     OW11848   7.583   0.158   9.220  0.0698  0.1876  0.1519
 3757SOL    HW111849   7.501   0.121   9.188  0.7693 -0.9767 -0.3855
 3757SOL    HW211850   7.611   0.217   9.149 -1.4636  2.5378  1.3636
 3758SOL     OW11851   0.772   0.652   6.290 -0.5639 -0.5405  0.0930
 3758SOL    HW111852   0.733   0.625   6.207 -0.8940 -2.8865  0.9400
 3758SOL    HW211853   0.817   0.734   6.270 -1.7628 -0.3345 -2.0593
 3759SOL     OW11854   7.356   7.092   0.652 -0.0479 -0.0656 -0.0461
 3759SOL    HW111855   7.396   7.157   0.709 -1.4705  0.3693  0.4994
 3759SOL    HW211856   7.342   7.137   0.569 -1.8759  0.6912  0.6055
 3760SOL     OW11857  -0.021   6.412   4.087 -0.0103  0.0386  0.6136
 3760SOL    HW111858  -0.011   6.356   4.010  0.1995 -1.6129  1.7792
 3760SOL    HW211859   0.068   6.431   4.114  0.0021 -1.6002  1.9226
 3761SOL     OW11860   5.400   1.529   5.455 -0.1103 -0.0847  0.2947
 3761SOL    HW111861   5.309   1.547   5.432 -1.4866 -2.9779  2.6857
 3761SOL    HW211862   5.419   1.445   5.413  1.2508  0.1679  0.3655
 3762SOL     OW11863   8.754   7.426   2.089 -0.3763  0.0035  0.4321
 3762SOL    HW111864   8.719   7.465   2.009  1.6407  3.0313  0.8558
 3762SOL    HW211865   8.679   7.423   2.148 -0.9895  1.9678 -0.1667
 3763SOL     OW11866   4.916   0.589   8.617 -0.1110  0.6876 -0.3105
 3763SOL    HW111867   4.886   0.643   8.690  0.5070  2.1209 -1.0891
 3763SOL    HW211868   4.897   0.499   8.645 -3.6465  1.3503 -0.1154
 3764SOL     OW11869   7.828   9.154   6.504 -1.0878  0.2538  0.3082
 3764SOL    HW111870   7.886   9.135   6.578 -0.1513 -2.2258 -0.9232
 3764SOL    HW211871   7.851   9.088   6.438 -2.0728  2.1377 -2.1053
 3765SOL     OW11872   6.032   3.480   5.632  0.1446  0.1023 -0.5324
 3765SOL    HW111873   6.019   3.386   5.628 -0.1865  0.2018 -3.0703
 3765SOL    HW211874   5.944   3.517   5.623  0.3896  0.6690 -0.6655
 3766SOL     OW11875   3.334   2.037   9.297  0.1232  0.1463 -0.3851
 3766SOL    HW111876   3.400   2.017   9.231 -1.2425 -1.8601 -1.2490
 3766SOL    HW211877   3.252   2.003   9.261 -0.9759  0.4209  1.6636
 3767SOL     OW11878   3.471   4.769   3.069 -0.1297  0.6097  0.1759
 3767SOL    HW111879   3.412   4.842   3.050  0.6815  1.8007  2.0373
 3767SOL    HW211880   3.500   4.783   3.159  1.3451 -1.1111  0.0326
 3768SOL     OW11881   6.252   3.799   6.275 -0.2028 -0.1221 -0.6989
 3768SOL    HW111882   6.169   3.792   6.228  0.5861 -0.5914 -2.1114
 3768SOL    HW211883   6.305   3.858   6.221  0.1345  0.7882  0.5863
 3769SOL     OW11884   7.611   1.505   2.592  0.1786  0.6151  0.4934
 3769SOL    HW111885   7.520   1.532   2.584  0.6519  2.1884  0.1667
 3769SOL    HW211886   7.640   1.541   2.675  0.5338  0.1736  0.5679
 3770SOL     OW11887   3.327   4.097   1.785 -0.0648  0.1267 -0.2659
 3770SOL    HW111888   3.255   4.117   1.845  0.6676  2.2433  0.0006
 3770SOL    HW211889   3.393   4.055   1.839 -0.3834 -0.2242 -0.1438
 3771SOL     OW11890   1.280   1.358   9.816  0.0975 -0.4223 -0.0780
 3771SOL    HW111891   1.264   1.303   9.893 -1.3139 -2.1322 -1.4970
 3771SOL    HW211892   1.207   1.420   9.816 -0.1945 -0.7633 -0.3146
 3772SOL     OW11893   4.910   2.665   7.557  0.1977  0.6958 -0.0689
 3772SOL    HW111894   4.939   2.608   7.628  0.4022  0.8928  0.0073
 3772SOL    HW211895   4.817   2.643   7.545  0.7419 -1.0617 -1.3932
 3773SOL     OW11896   5.408   1.120   8.122 -0.1932 -0.1542 -0.3935
 3773SOL    HW111897   5.441   1.076   8.201  0.5861 -0.1148 -0.6908
 3773SOL    HW211898   5.412   1.053   8.054 -1.2433 -0.3066 -0.3295
 3774SOL     OW11899   4.028   3.778   3.545  0.4321 -0.1525  0.7070
 3774SOL    HW111900   3.997   3.806   3.632  0.8424  0.5919  0.6246
 3774SOL    HW211901   3.960   3.719   3.513  0.1166 -0.1793  1.4006
 3775SOL     OW11902   3.387   5.306   7.347  0.8906  0.1663 -0.3254
 3775SOL    HW111903   3.361   5.292   7.256 -1.4082  0.7001  0.1845
 3775SOL    HW211904   3.378   5.220   7.388  2.6312 -0.2361 -0.7183
 3776SOL     OW11905   3.687   2.778   1.589  0.1519  0.0403 -0.5126
 3776SOL    HW111906   3.774   2.787   1.628  0.6049  0.2744 -1.5379
 3776SOL    HW211907   3.690   2.694   1.543 -0.1697  0.0430 -0.5405
 3777SOL     OW11908   0.176   7.583   4.744 -0.1519 -0.5053  0.5877
 3777SOL    HW111909   0.244   7.602   4.679 -0.9188 -0.4073 -0.2213
 3777SOL    HW211910   0.211   7.616   4.826  0.4427  0.2939  0.0395
 3778SOL     OW11911   2.401   0.354   7.273  0.0072  0.2169  0.6966
 3778SOL    HW111912   2.480   0.324   7.228 -0.0700 -0.5925  1.0865
 3778SOL    HW211913   2.330   0.302   7.236 -0.3796  1.0573  0.2348
 3779SOL     OW11914   1.759   9.566   9.778  0.3096  0.3747  0.4509
 3779SOL    HW111915   1.741   9.655   9.810  1.3144  0.5392  0.5950
 3779SOL    HW211916   1.783   9.579   9.686  0.2862  0.2381  0.4254
 3780SOL     OW11917   9.626   9.341   9.064  0.3109 -0.2013 -0.5592
 3780SOL    HW111918   9.687   9.297   9.123 -0.2756 -2.1316 -1.3111
 3780SOL    HW211919   9.608   9.425   9.106  1.7984 -0.4911  0.7463
 3781SOL     OW11920   6.930   1.210   2.983 -0.3066  0.0573  0.5675
 3781SOL    HW111921   6.991   1.164   3.041  0.3421  0.3653  0.1327
 3781SOL    HW211922   6.856   1.233   3.040  1.5878  3.0256  2.1272
 3782SOL     OW11923   5.708   9.730   2.868  0.1214 -0.5497  0.7164
 3782SOL    HW111924   5.679   9.757   2.955  1.8506 -2.9977  2.1608
 3782SOL    HW211925   5.803   9.737   2.871  0.2087 -0.4962 -1.0870
 3783SOL     OW11926   4.839   0.345   2.101 -0.2348  0.1538 -0.6188
 3783SOL    HW111927   4.902   0.273   2.101  1.1040  1.2630 -0.1770
 3783SOL    HW211928   4.794   0.338   2.185  2.4064  1.8283  1.0977
 3784SOL     OW11929   6.508   2.322   8.862  0.2301  0.3390 -0.1707
 3784SOL    HW111930   6.470   2.409   8.872 -0.8096 -0.1894  0.6601
 3784SOL    HW211931   6.469   2.287   8.782  1.7895  1.1723 -1.3582
 3785SOL     OW11932   1.485   1.400   8.049  0.1167  0.4863  0.5580
 3785SOL    HW111933   1.463   1.491   8.067  0.7645  0.6283  0.6601
 3785SOL    HW211934   1.578   1.393   8.071  0.4054  0.1373 -0.6821
 3786SOL     OW11935   9.085   8.572   8.532 -0.3828  0.4461  0.0405
 3786SOL    HW111936   9.044   8.491   8.562 -1.5076  0.7062 -0.7280
 3786SOL    HW211937   9.055   8.582   8.442  1.8790  0.3577 -0.7820
 3787SOL     OW11938   3.515   4.326   8.531 -0.0586  0.1825 -0.2328
 3787SOL    HW111939   3.432   4.282   8.549  0.6596 -1.6346 -1.1617
 3787SOL    HW211940   3.532   4.308   8.438  0.6138  1.8822 -0.4752
 3788SOL     OW11941   2.045   5.548   2.684  0.0271  0.2664  0.1213
 3788SOL    HW111942   2.063   5.507   2.599  0.7679  0.5420  0.1341
 3788SOL    HW211943   2.076   5.638   2.674  1.5552 -0.1115  1.1485
 3789SOL     OW11944   1.204   7.804   2.429  0.0277  0.1847  0.0431
 3789SOL    HW111945   1.194   7.807   2.334  4.0518 -0.6330 -0.5837
 3789SOL    HW211946   1.153   7.727   2.456 -0.9440  0.2543 -1.4501
 3790SOL     OW11947   6.089   9.390   6.240 -0.3301  0.7030 -0.3813
 3790SOL    HW111948   6.145   9.454   6.284  0.6476 -0.9612  0.8884
 3790SOL    HW211949   6.041   9.346   6.311 -1.1477  0.1630 -1.2374
 3791SOL     OW11950   5.233   2.592   3.788 -0.6552  0.3600  0.2832
 3791SOL    HW111951   5.176   2.529   3.745  0.8651 -1.1221  0.3493
 3791SOL    HW211952   5.300   2.539   3.830 -0.2068  1.9588  1.6704
 3792SOL     OW11953   9.953   4.636   8.452 -0.2631 -1.0167  0.1726
 3792SOL    HW111954  10.045   4.661   8.461 -0.4326  0.5262 -1.8268
 3792SOL    HW211955   9.943   4.562   8.512  2.3345 -1.3927  0.2622
 3793SOL     OW11956   4.735  -0.012   5.104  0.2604  0.8510  0.2647
 3793SOL    HW111957   4.776  -0.005   5.018 -0.6441 -1.3732 -0.4273
 3793SOL    HW211958   4.660   0.047   5.101 -0.5669 -0.1926 -1.0401
 3794SOL     OW11959   3.634   8.229   5.848  0.3721  0.4182 -0.1477
 3794SOL    HW111960   3.547   8.199   5.875  1.0383  0.0094  1.7459
 3794SOL    HW211961   3.628   8.241   5.754 -2.1564  1.8303  0.1322
 3795SOL     OW11962   2.166   3.142   7.217  0.1906 -0.4167 -0.0805
 3795SOL    HW111963   2.097   3.103   7.269 -0.5610  0.1500 -0.6240
 3795SOL    HW211964   2.176   3.230   7.253 -0.2345 -0.0729 -0.7829
 3796SOL     OW11965   2.995   3.283   8.261  0.2182  0.4097  0.2488
 3796SOL    HW111966   2.935   3.318   8.195  0.4112 -1.1276 -0.7867
 3796SOL    HW211967   3.071   3.341   8.257  0.0107  0.6419 -0.5127
 3797SOL     OW11968   3.374   3.338   2.715  0.1632  0.2804  0.1629
 3797SOL    HW111969   3.362   3.422   2.672 -0.0725  0.1932  0.0577
 3797SOL    HW211970   3.463   3.342   2.751  0.2346  0.4865 -0.0354
 3798SOL     OW11971   7.333   3.476   4.195 -0.4654  0.2194 -0.4847
 3798SOL    HW111972   7.394   3.475   4.268 -0.5096  2.0147 -0.3764
 3798SOL    HW211973   7.261   3.419   4.223  0.6440 -1.0682 -0.1805
 3799SOL     OW11974   4.453   6.390   6.522  1.0850 -0.0258  0.0806
 3799SOL    HW111975   4.475   6.297   6.516 -1.8882 -0.8986  0.8066
 3799SOL    HW211976   4.429   6.404   6.613  1.6831  1.5339  0.0358
 3800SOL     OW11977   0.156   2.723   5.704  0.3627 -0.4058 -0.1894
 3800SOL    HW111978   0.240   2.677   5.702  0.9786  0.7033 -0.7104
 3800SOL    HW211979   0.099   2.670   5.648  1.5646  0.3515 -2.2506
 3801SOL     OW11980   9.263   2.655   4.501  0.8386 -0.1523 -0.3076
 3801SOL    HW111981   9.329   2.648   4.433  0.3612 -0.8734 -0.7102
 3801SOL    HW211982   9.258   2.748   4.520  2.9045 -0.1812  0.6698
 3802SOL     OW11983   2.882   5.036   0.607  0.3432 -0.4267 -0.3569
 3802SOL    HW111984   2.805   5.020   0.663  0.4544  1.0479  0.2669
 3802SOL    HW211985   2.956   5.006   0.659  0.2780 -0.8382 -0.5038
 3803SOL     OW11986   8.289   9.585   7.521 -0.3349  0.1805 -0.1439
 3803SOL    HW111987   8.270   9.550   7.608  0.9334 -0.1476  0.0097
 3803SOL    HW211988   8.371   9.633   7.532 -0.5653  0.7889 -0.9957
 3804SOL     OW11989   2.686   3.097   4.351  0.0900  0.5244  0.0283
 3804SOL    HW111990   2.766   3.046   4.338  0.9295  1.3272  1.6593
 3804SOL    HW211991   2.627   3.037   4.397  0.9220  0.8120  1.5684
 3805SOL     OW11992   0.921   1.278   4.824 -0.3730 -0.2231 -0.3862
 3805SOL    HW111993   0.899   1.193   4.862  3.0501 -1.4389 -0.7670
 3805SOL    HW211994   0.859   1.339   4.864 -0.6393 -2.3241  2.7517
 3806SOL     OW11995   8.972   0.457   5.996  0.3566  0.3497 -0.5095
 3806SOL    HW111996   8.960   0.365   6.019  1.5016  0.1799 -0.5386
 3806SOL    HW211997   9.061   0.477   6.022 -0.0113  1.5825 -0.1120
 3807SOL     OW11998   5.567   5.946   4.143 -0.1671  0.2695 -0.8784
 3807SOL    HW111999   5.475   5.971   4.131 -0.3804  0.6486  1.1374
 3807SOL    HW212000   5.570   5.906   4.230  1.7452  1.1216 -0.5021
 3808SOL     OW12001   9.543   0.554   2.947 -0.0286 -0.1124  0.1365
 3808SOL    HW112002   9.517   0.502   3.023 -2.9194 -0.9940 -1.3213
 3808SOL    HW212003   9.495   0.637   2.958  1.4616  0.7487  0.4429
 3809SOL     OW12004   2.364   7.471   1.430  0.4243 -0.0597  0.0356
 3809SOL    HW112005   2.428   7.514   1.373  0.4150  1.7337  1.2587
 3809SOL    HW212006   2.279   7.495   1.393  0.3436 -2.9820 -1.9712
 3810SOL     OW12007   3.738   6.527   8.267  0.2341 -0.1898  0.0209
 3810SOL    HW112008   3.822   6.562   8.295  0.0503  0.2200  0.0583
 3810SOL    HW212009   3.761   6.454   8.209  0.6125 -0.2115  0.1963
 3811SOL     OW12010   4.030   2.440   6.738 -0.3532 -0.0700  0.2146
 3811SOL    HW112011   4.091   2.478   6.675 -1.1031 -1.1364 -1.2310
 3811SOL    HW212012   4.070   2.454   6.823  1.5494 -0.1054 -0.6352
 3812SOL     OW12013   4.117   0.590   8.665  0.1666 -0.0014  0.3681
 3812SOL    HW112014   4.212   0.598   8.674  0.1192 -0.5505  1.5146
 3812SOL    HW212015   4.081   0.648   8.732 -0.3253  0.5684 -0.3742
 3813SOL     OW12016   9.419   5.051   6.133  0.0486 -1.0178  0.2346
 3813SOL    HW112017   9.485   5.098   6.183  0.0321 -1.2076  0.4394
 3813SOL    HW212018   9.337   5.068   6.179 -0.1957 -0.0729 -0.5118
 3814SOL     OW12019   1.619   2.986   4.300 -0.1603 -0.5311  0.4751
 3814SOL    HW112020   1.644   3.074   4.326  0.3376 -0.9067  1.3420
 3814SOL    HW212021   1.574   2.950   4.377  0.1082 -1.1979  0.3366
 3815SOL     OW12022   3.972   0.620   9.177  0.4747 -0.4185  0.2912
 3815SOL    HW112023   3.927   0.547   9.136 -0.1430 -0.0407  0.2809
 3815SOL    HW212024   4.048   0.637   9.121  0.2182 -0.5830 -0.1095
 3816SOL     OW12025   9.942   6.551   2.761  0.9653 -0.2660  0.1928
 3816SOL    HW112026   9.953   6.583   2.672  0.5369 -0.0461  0.2168
 3816SOL    HW212027   9.853   6.577   2.785  1.7995  1.6755  1.4910
 3817SOL     OW12028   9.965   3.288   8.156 -0.4935  0.4384 -0.4845
 3817SOL    HW112029   9.954   3.271   8.062 -0.2566  0.8239 -0.5844
 3817SOL    HW212030   9.916   3.217   8.199 -0.7346  0.3493 -0.8991
 3818SOL     OW12031   7.687   5.504   3.650 -0.3359  0.2888 -0.5332
 3818SOL    HW112032   7.606   5.453   3.651  0.5142 -1.0986 -0.3331
 3818SOL    HW212033   7.757   5.440   3.667  0.6917  1.6784  0.8092
 3819SOL     OW12034   3.764   9.061   5.729  0.3105 -0.8699  0.0233
 3819SOL    HW112035   3.748   8.986   5.786  0.8937  0.4853  2.1079
 3819SOL    HW212036   3.842   9.038   5.679  1.1046 -1.2843  1.3922
 3820SOL     OW12037   3.467   9.246   0.294  0.1811  0.6793 -0.2061
 3820SOL    HW112038   3.514   9.258   0.376  0.2373 -0.1878 -0.0949
 3820SOL    HW212039   3.388   9.197   0.318 -0.0046  0.7713 -0.6109
 3821SOL     OW12040   8.466   4.004   3.309 -0.6731  0.3241  0.0216
 3821SOL    HW112041   8.493   3.961   3.391  1.4488 -1.3416 -1.4358
 3821SOL    HW212042   8.389   3.955   3.281  0.5082 -1.2676 -0.5649
 3822SOL     OW12043   9.646   1.844   3.105  0.3609  0.6251  0.2651
 3822SOL    HW112044   9.739   1.863   3.115  0.0317  1.7837  1.5246
 3822SOL    HW212045   9.610   1.923   3.065 -0.3600  0.9735  1.5448
 3823SOL     OW12046   3.219   7.621   4.916 -0.3231 -0.1528 -0.5082
 3823SOL    HW112047   3.239   7.544   4.863 -0.9743 -0.5897 -0.1343
 3823SOL    HW212048   3.300   7.641   4.962  0.1473  0.0101 -1.3739
 3824SOL     OW12049   0.107   8.562   6.429 -0.1808  0.1435 -0.1209
 3824SOL    HW112050   0.153   8.479   6.414  0.3802  0.5230 -0.5492
 3824SOL    HW212051   0.161   8.627   6.385 -0.1796  0.8610  0.9323
 3825SOL     OW12052   1.348   2.012   2.024  0.0318 -0.1598 -0.0274
 3825SOL    HW112053   1.366   2.098   1.986  0.8848 -0.8531 -1.2932
 3825SOL    HW212054   1.271   1.980   1.976  0.4114 -0.5572 -0.3867
 3826SOL     OW12055   9.354   8.079   9.606 -0.6496  0.4883 -0.3377
 3826SOL    HW112056   9.335   8.170   9.626 -0.5527  0.6486 -0.9441
 3826SOL    HW212057   9.268   8.038   9.598 -0.6879  0.1896  1.3611
 3827SOL     OW12058   1.659   6.808   3.379 -0.3174  0.0460 -0.0267
 3827SOL    HW112059   1.667   6.835   3.471  1.0026 -0.6234  0.0886
 3827SOL    HW212060   1.749   6.808   3.346 -0.8024  0.5275 -1.4099
 3828SOL     OW12061   9.746   0.920   4.630  0.0937 -0.5506  0.0290
 3828SOL    HW112062   9.782   0.950   4.547  0.8477  0.5061  0.7119
 3828SOL    HW212063   9.822   0.906   4.686 -0.4343 -0.5982  0.7525
 3829SOL     OW12064   3.072   6.864   2.343  0.1268 -0.2060  0.7798
 3829SOL    HW112065   3.045   6.908   2.424  2.1731  1.0544  0.8520
 3829SOL    HW212066   3.160   6.897   2.326 -0.1158 -0.6807 -1.8066
 3830SOL     OW12067   6.506   8.112   2.839  0.4604  0.0761  0.3617
 3830SOL    HW112068   6.485   8.019   2.833  1.2280 -0.0414 -0.8081
 3830SOL    HW212069   6.434   8.150   2.890 -0.9121 -0.8119 -0.8539
 3831SOL     OW12070   2.620   7.312   6.620  0.0371  0.5765  0.2558
 3831SOL    HW112071   2.678   7.360   6.678 -0.8486  0.4787  1.2624
 3831SOL    HW212072   2.534   7.351   6.635 -0.8024 -1.5510  1.4280
 3832SOL     OW12073   2.675   6.493   5.288  0.2666  0.4050 -0.5740
 3832SOL    HW112074   2.589   6.517   5.322 -0.2439 -2.6276  0.6764
 3832SOL    HW212075   2.663   6.485   5.193 -0.3159  1.7497 -0.6241
 3833SOL     OW12076   9.140   7.426   6.396 -0.1896 -0.0186 -0.0509
 3833SOL    HW112077   9.077   7.355   6.408 -0.5278  0.4133  0.8000
 3833SOL    HW212078   9.196   7.422   6.474  1.5015 -1.0413 -1.2622
 3834SOL     OW12079   3.233   2.428   6.890  0.1576  0.0424 -0.2221
 3834SOL    HW112080   3.232   2.397   6.800  1.1732 -0.2592 -0.1478
 3834SOL    HW212081   3.147   2.468   6.903 -0.7662 -1.7168 -0.6640
 3835SOL     OW12082   8.554   5.640   5.945 -0.0436 -0.0197 -0.1033
 3835SOL    HW112083   8.464   5.673   5.941 -0.3312 -0.8060 -0.3446
 3835SOL    HW212084   8.570   5.623   6.038 -1.0400 -2.2229 -0.2818
 3836SOL     OW12085   1.848   6.028   2.696 -0.1089  0.4829  0.1666
 3836SOL    HW112086   1.834   6.100   2.634  0.5488  1.3062  0.9607
 3836SOL    HW212087   1.760   6.005   2.726 -0.3447  0.7845 -0.2863
 3837SOL     OW12088   1.407   4.768   6.130 -0.6670 -0.5150  0.4680
 3837SOL    HW112089   1.340   4.727   6.186 -0.4904 -0.0275  1.0409
 3837SOL    HW212090   1.490   4.751   6.175 -0.3374 -1.5003 -0.4656
 3838SOL     OW12091   0.053   4.825   8.824 -0.0152  0.1674 -0.1329
 3838SOL    HW112092   0.080   4.782   8.906  0.1365  0.3592 -0.0830
 3838SOL    HW212093   0.118   4.894   8.811 -1.2197  1.5150  0.7059
 3839SOL     OW12094   7.517   3.981   7.293  0.2664  0.0999 -0.7167
 3839SOL    HW112095   7.438   4.035   7.297 -0.3461 -0.5596 -2.7054
 3839SOL    HW212096   7.485   3.891   7.293  1.0534 -0.1909 -0.9884
 3840SOL     OW12097   6.595   6.842   6.787 -0.1205 -0.1521  0.2450
 3840SOL    HW112098   6.560   6.822   6.700 -0.5880  1.1057  0.1270
 3840SOL    HW212099   6.594   6.937   6.793 -1.0399 -0.2235  2.0114
 3841SOL     OW12100   3.355   5.553   5.194  0.0581  0.7618 -0.3374
 3841SOL    HW112101   3.305   5.472   5.200 -0.8071  1.1887 -1.4228
 3841SOL    HW212102   3.446   5.525   5.188 -0.0439 -0.0439  1.2244
 3842SOL     OW12103   4.286   3.674   8.680  0.5894  0.0812  0.1813
 3842SOL    HW112104   4.225   3.737   8.642  0.0164 -0.5350  0.0589
 3842SOL    HW212105   4.270   3.593   8.632 -0.3241 -0.7937  1.8741
 3843SOL     OW12106   7.318   2.788   1.405  0.7060  0.3544  0.1701
 3843SOL    HW112107   7.260   2.823   1.473  0.2914  2.0393 -1.0060
 3843SOL    HW212108   7.388   2.746   1.454 -0.5551 -0.1667  1.6343
 3844SOL     OW12109   7.531   6.023   7.646 -0.3729  0.3077  0.1431
 3844SOL    HW112110   7.539   6.056   7.735  1.4307 -0.3457  0.2611
 3844SOL    HW212111   7.533   6.101   7.591  0.5678  0.6087  0.5857
 3845SOL     OW12112   6.889   3.830   6.429 -0.1106 -0.5832  0.5361
 3845SOL    HW112113   6.931   3.746   6.449 -0.4869 -0.9575 -0.2216
 3845SOL    HW212114   6.801   3.807   6.400 -0.7220  0.1748  1.7228
 3846SOL     OW12115   8.091   7.499   3.786  0.6930 -0.0307  0.2908
 3846SOL    HW112116   8.096   7.491   3.691 -1.3857  1.1748  0.0191
 3846SOL    HW212117   8.162   7.558   3.809  1.0054 -0.0619 -0.5580
 3847SOL     OW12118   0.906   3.767   6.591  0.1605  0.5831  0.7350
 3847SOL    HW112119   0.886   3.676   6.566  2.2556  0.3481 -0.3449
 3847SOL    HW212120   0.952   3.759   6.675 -1.8665  0.9084  1.9346
 3848SOL     OW12121   7.874   4.346   5.390  0.3228  0.5168  0.0581
 3848SOL    HW112122   7.919   4.375   5.469  0.0147  0.2291  0.3385
 3848SOL    HW212123   7.800   4.294   5.421  0.5521 -0.1147 -0.4307
 3849SOL     OW12124   9.203   5.761   9.908  0.0314 -0.3887 -0.1980
 3849SOL    HW112125   9.200   5.852   9.878  1.6002  0.6228  2.3898
 3849SOL    HW212126   9.292   5.751   9.942 -0.5806 -2.4422  0.9029
 3850SOL     OW12127   7.451   9.774   4.630 -0.1612 -0.5015  0.7453
 3850SOL    HW112128   7.489   9.847   4.679 -0.5350 -0.2651  0.6857
 3850SOL    HW212129   7.404   9.723   4.696 -1.7933  0.5451  0.4498
 3851SOL     OW12130   0.110   0.912   1.460 -0.2831 -0.5082 -0.3719
 3851SOL    HW112131   0.198   0.905   1.498 -0.1880  0.7986 -0.3163
 3851SOL    HW212132   0.099   0.830   1.412  1.5727 -0.0682 -1.6552
 3852SOL     OW12133   7.378   4.394   7.668  0.4929 -0.0137 -0.7502
 3852SOL    HW112134   7.302   4.445   7.642  0.2668  0.5124  0.8546
 3852SOL    HW212135   7.341   4.310   7.697  0.4622  0.4412  0.5453
 3853SOL     OW12136   1.251   5.977   3.801  0.4973  0.3731  0.1114
 3853SOL    HW112137   1.160   5.969   3.829  0.1685 -1.4354 -1.2559
 3853SOL    HW212138   1.275   6.067   3.823 -1.8278  1.1135 -0.0845
 3854SOL     OW12139   0.273   4.217   3.738  0.4184 -0.4562  0.7391
 3854SOL    HW112140   0.229   4.300   3.719  1.2403  0.3763  2.3029
 3854SOL    HW212141   0.303   4.186   3.652  0.2188  0.9249  0.1400
 3855SOL     OW12142   1.277   5.398   8.288  0.2669  0.2556 -0.0735
 3855SOL    HW112143   1.200   5.366   8.335  0.3390  0.4079  0.1538
 3855SOL    HW212144   1.264   5.492   8.282  0.0571  0.1874 -0.7384
 3856SOL     OW12145   7.951   5.163   7.309 -0.4545  0.3931 -0.6298
 3856SOL    HW112146   7.879   5.121   7.356 -0.7518  0.2318 -1.2151
 3856SOL    HW212147   8.022   5.099   7.312 -0.7412  0.0426 -1.0862
 3857SOL     OW12148   2.815   1.611   7.507  0.6228  0.3015  0.4971
 3857SOL    HW112149   2.745   1.557   7.470  1.6516 -0.1426 -0.8744
 3857SOL    HW212150   2.773   1.696   7.523 -0.0379  0.3318 -1.1553
 3858SOL     OW12151   5.382   2.945   4.689 -0.7852  0.2074 -0.3835
 3858SOL    HW112152   5.470   2.983   4.689 -0.3810 -0.6870 -1.3728
 3858SOL    HW212153   5.369   2.916   4.599 -1.3718 -1.3087  0.1726
 3859SOL     OW12154   2.746   6.351   2.035  0.2525  0.0630  0.2006
 3859SOL    HW112155   2.802   6.423   2.006 -1.1781  0.6001 -1.3666
 3859SOL    HW212156   2.656   6.385   2.027 -0.4083 -1.4869  0.6026
 3860SOL     OW12157   5.125   3.826   5.303 -0.5537  0.0654  0.2055
 3860SOL    HW112158   5.048   3.768   5.300 -1.1496  0.8716 -1.2769
 3860SOL    HW212159   5.141   3.849   5.212  0.8382  0.7353  0.5933
 3861SOL     OW12160   7.517   6.946   4.229 -0.7101  0.7002  0.3791
 3861SOL    HW112161   7.467   7.011   4.279 -2.1362 -0.7788  0.9732
 3861SOL    HW212162   7.451   6.886   4.195  0.5125 -0.0684 -0.7226
 3862SOL     OW12163   0.374   9.756   4.354 -0.2970  0.0794  0.1547
 3862SOL    HW112164   0.378   9.851   4.362 -1.6622  0.2034 -0.3446
 3862SOL    HW212165   0.415   9.737   4.270  0.9345  0.1106  0.7282
 3863SOL     OW12166   1.111   9.484   9.308 -0.1190  0.2086  0.0821
 3863SOL    HW112167   1.153   9.494   9.394  0.1527 -0.0426 -0.0175
 3863SOL    HW212168   1.108   9.390   9.294 -0.6688  0.2266  0.0580
 3864SOL     OW12169   6.641   0.196   3.542 -0.0018  0.2112  0.5862
 3864SOL    HW112170   6.702   0.194   3.468 -0.1540 -0.1851  0.4717
 3864SOL    HW212171   6.608   0.286   3.543 -0.4535  0.0599 -0.2016
 3865SOL     OW12172   6.490   5.136   4.942 -0.4436  0.3766 -0.4271
 3865SOL    HW112173   6.459   5.137   5.033 -0.8950  2.2553 -0.5737
 3865SOL    HW212174   6.412   5.153   4.890 -0.0158  0.2302 -1.1277
 3866SOL     OW12175   9.273   4.286   3.381  0.1195 -0.6832 -0.3371
 3866SOL    HW112176   9.320   4.322   3.457 -0.8808 -0.3678  0.1541
 3866SOL    HW212177   9.201   4.237   3.420  0.3869 -1.6693 -1.0631
 3867SOL     OW12178   2.881   3.363   9.697  0.1975  0.0519  0.0229
 3867SOL    HW112179   2.968   3.387   9.729 -0.3318 -0.1151  1.7465
 3867SOL    HW212180   2.822   3.391   9.768 -0.8069 -2.8839  0.4737
 3868SOL     OW12181   1.045   2.498   4.227 -0.1082  0.4663 -0.2790
 3868SOL    HW112182   1.049   2.442   4.149  0.8912 -0.7005  0.5654
 3868SOL    HW212183   0.995   2.575   4.199 -0.4593 -0.2857 -1.8327
 3869SOL     OW12184   8.042   3.364   3.501  0.6397 -0.3135  0.0828
 3869SOL    HW112185   8.013   3.404   3.584  0.1061 -0.3405 -0.0834
 3869SOL    HW212186   8.137   3.356   3.510  0.7368  0.7794  0.2169
 3870SOL     OW12187   1.574   4.946   5.635  0.2148 -0.2625  0.0489
 3870SOL    HW112188   1.560   4.904   5.720  0.1472 -1.8112 -0.6989
 3870SOL    HW212189   1.664   4.978   5.639  0.0122  0.2524  0.9176
 3871SOL     OW12190   6.732   1.100   9.239  0.4820 -0.0665 -0.3671
 3871SOL    HW112191   6.826   1.086   9.230  0.5361 -0.8927  1.1031
 3871SOL    HW212192   6.709   1.058   9.322 -1.2647 -0.2925 -0.9077
 3872SOL     OW12193   3.494   9.284   1.825 -0.2523  0.2445  0.1474
 3872SOL    HW112194   3.453   9.220   1.883  0.3119  0.0854  0.3782
 3872SOL    HW212195   3.465   9.258   1.738 -0.2314 -0.1744  0.2597
 3873SOL     OW12196   5.085   4.363   3.561 -0.0520 -0.4033  0.1633
 3873SOL    HW112197   5.146   4.353   3.634  0.5057  0.3106 -0.1812
 3873SOL    HW212198   5.126   4.316   3.488 -0.2235 -0.4580  0.1007
 3874SOL     OW12199   7.002   7.293   3.694  0.1901 -0.3720  0.2722
 3874SOL    HW112200   7.042   7.292   3.781 -0.8206 -1.3231  0.7481
 3874SOL    HW212201   6.966   7.382   3.685  1.8930  0.3436  0.0310
 3875SOL     OW12202   7.343   1.129   2.489 -0.0111 -0.3088 -1.0674
 3875SOL    HW112203   7.397   1.078   2.429 -0.8266 -1.4431 -0.8531
 3875SOL    HW212204   7.270   1.072   2.511  0.4232 -0.0933  1.2769
 3876SOL     OW12205   9.383   7.427   1.090  0.1681  0.3767  0.9097
 3876SOL    HW112206   9.314   7.494   1.091 -1.1526 -0.9225  2.7652
 3876SOL    HW212207   9.360   7.371   1.016  0.4302  1.0961  0.2669
 3877SOL     OW12208   7.094   3.057   1.342  0.3278 -0.4345 -0.1553
 3877SOL    HW112209   7.045   3.110   1.280  0.5317  0.7718  0.6609
 3877SOL    HW212210   7.041   2.978   1.355  0.5641 -1.0096 -2.2622
 3878SOL     OW12211   2.478   9.590   2.188  0.5838  0.3667  0.3036
 3878SOL    HW112212   2.487   9.577   2.283  1.5787  0.5872  0.2433
 3878SOL    HW212213   2.488   9.684   2.175 -1.9598  0.6919  0.2158
 3879SOL     OW12214   8.271   5.408   6.053  0.0145 -0.7400 -0.1661
 3879SOL    HW112215   8.191   5.357   6.064 -1.5189  1.3916 -0.8203
 3879SOL    HW212216   8.324   5.356   5.993 -0.9469 -2.1057  0.1174
 3880SOL     OW12217   5.172   6.077   6.924 -0.1413 -0.1786 -0.5253
 3880SOL    HW112218   5.195   6.001   6.869  0.4589 -0.3473 -0.0495
 3880SOL    HW212219   5.123   6.039   6.997 -1.0608  0.0630 -0.9988
 3881SOL     OW12220   1.474   8.393   5.723 -0.0555 -0.5385  0.2348
 3881SOL    HW112221   1.385   8.369   5.699 -0.1388 -0.7937  0.7772
 3881SOL    HW212222   1.473   8.488   5.731  0.6085 -0.0988 -3.3151
 3882SOL     OW12223   6.921   2.334   3.893  0.4842 -0.6397 -0.4704
 3882SOL    HW112224   6.901   2.273   3.963  0.7794 -1.5870 -1.1933
 3882SOL    HW212225   6.856   2.404   3.902  0.2211 -0.9942  0.4362
 3883SOL     OW12226   5.287   5.331   4.433  0.0771 -0.0531  0.2135
 3883SOL    HW112227   5.209   5.277   4.447 -0.4813  0.4781 -0.7062
 3883SOL    HW212228   5.353   5.269   4.400 -0.1795 -0.3826  0.3096
 3884SOL     OW12229   3.979   8.305   7.375  0.5052  0.4247  0.1993
 3884SOL    HW112230   3.938   8.360   7.308 -0.2063  0.7129  0.8652
 3884SOL    HW212231   3.912   8.294   7.442  0.1007 -2.3904 -0.5190
 3885SOL     OW12232   9.339   8.505   2.542 -0.1111  0.0822  0.8466
 3885SOL    HW112233   9.276   8.533   2.476  0.0451  0.5886  0.9088
 3885SOL    HW212234   9.351   8.582   2.598 -1.6078 -0.8635  2.5624
 3886SOL     OW12235   9.520   7.146   4.581 -0.4359  0.0989 -0.0256
 3886SOL    HW112236   9.481   7.233   4.591 -0.7041 -0.0014 -0.1900
 3886SOL    HW212237   9.457   7.097   4.528 -0.9234 -0.6156  1.1760
 3887SOL     OW12238   2.408   3.624   6.974  0.0989 -0.2633 -0.0554
 3887SOL    HW112239   2.440   3.543   6.935 -0.3096 -0.1823 -0.5897
 3887SOL    HW212240   2.384   3.601   7.063 -2.3796 -1.3700 -0.9164
 3888SOL     OW12241   8.449   0.889   6.171  0.3445 -0.1256 -0.1404
 3888SOL    HW112242   8.489   0.811   6.208  0.3920 -0.0581 -0.0473
 3888SOL    HW212243   8.439   0.870   6.078 -0.2813 -0.5120 -0.0002
 3889SOL     OW12244   1.986   5.924   4.695 -0.2941  0.5421 -0.0179
 3889SOL    HW112245   2.043   5.937   4.772 -0.3062 -2.1185  0.5556
 3889SOL    HW212246   1.898   5.918   4.732 -0.2195 -1.5646 -0.0362
 3890SOL     OW12247   1.232   4.741   5.472 -0.0217  0.6563 -0.2221
 3890SOL    HW112248   1.255   4.820   5.520  1.0287 -0.7417  1.7409
 3890SOL    HW212249   1.293   4.740   5.398  1.4105  0.6627  0.9096
 3891SOL     OW12250   2.252   4.537   7.656  0.2921  0.4130  0.1468
 3891SOL    HW112251   2.333   4.491   7.678 -0.1366 -0.8988 -0.8626
 3891SOL    HW212252   2.184   4.471   7.662  0.0693 -0.1831 -4.5984
 3892SOL     OW12253   7.946   2.276   1.254  0.5045  0.1930  0.7711
 3892SOL    HW112254   7.858   2.263   1.289  0.5026  1.2634  1.1997
 3892SOL    HW212255   7.934   2.278   1.159  0.5266 -2.8736  0.6194
 3893SOL     OW12256   2.340   1.830   4.817 -0.1756  0.5023 -0.0785
 3893SOL    HW112257   2.348   1.852   4.909  1.2776 -0.0567 -0.0511
 3893SOL    HW212258   2.418   1.868   4.776 -1.2054  1.4566 -1.2406
 3894SOL     OW12259   9.796   8.285   1.933 -0.1598 -0.0842  0.4015
 3894SOL    HW112260   9.732   8.216   1.919  0.6568 -0.5735 -1.2037
 3894SOL    HW212261   9.864   8.245   1.988  0.3386 -0.5957 -0.5703
 3895SOL     OW12262   1.047   4.657   3.580 -0.1242 -0.2185 -0.4385
 3895SOL    HW112263   1.032   4.701   3.664  2.6277 -1.5363  0.8796
 3895SOL    HW212264   1.112   4.711   3.536 -0.0837 -0.5839 -0.8277
 3896SOL     OW12265   3.129   4.907   9.213 -0.1042  0.3720  0.0468
 3896SOL    HW112266   3.061   4.886   9.277 -0.0192 -0.5927 -0.1624
 3896SOL    HW212267   3.183   4.972   9.257  0.5373 -0.9778  1.3691
 3897SOL     OW12268   5.292   3.877   1.676 -0.5506  0.0042 -0.1540
 3897SOL    HW112269   5.237   3.932   1.621  0.9038 -1.1214 -2.9064
 3897SOL    HW212270   5.230   3.829   1.732 -2.1197  0.8964 -1.0749
 3898SOL     OW12271   8.270   1.809   9.022 -0.4543  0.0969  0.2770
 3898SOL    HW112272   8.316   1.853   8.951 -0.1538 -0.7900 -0.0869
 3898SOL    HW212273   8.241   1.880   9.079  1.6801  0.6672  0.7288
 3899SOL     OW12274   7.224   7.803   4.172  0.1424 -0.4786  0.1040
 3899SOL    HW112275   7.218   7.839   4.083 -3.5030 -1.4537 -0.1970
 3899SOL    HW212276   7.192   7.714   4.164  1.8029 -1.3374  2.1331
 3900SOL     OW12277   9.024   2.231   6.569 -0.1493 -0.4700  0.8128
 3900SOL    HW112278   9.112   2.224   6.606  0.1016 -1.7119  0.0603
 3900SOL    HW212279   9.034   2.200   6.478 -1.1973  0.2106  0.4510
 3901SOL     OW12280   1.953   0.297   2.292 -0.2928 -0.3868 -0.3700
 3901SOL    HW112281   1.915   0.379   2.321  1.1345  0.2638 -0.2345
 3901SOL    HW212282   1.974   0.250   2.372  0.5195 -0.0868 -0.3961
 3902SOL     OW12283   5.427   9.411   2.052  0.0895 -0.3131 -0.3128
 3902SOL    HW112284   5.426   9.316   2.043 -0.1563 -0.5385  1.6478
 3902SOL    HW212285   5.335   9.435   2.065  0.0722  0.2842 -1.4256
 3903SOL     OW12286   3.179   6.749   4.936 -0.0645  0.2543 -0.4684
 3903SOL    HW112287   3.091   6.735   4.971  0.1520 -1.8857 -0.6984
 3903SOL    HW212288   3.164   6.785   4.849 -0.6872  0.6892 -0.1919
 3904SOL     OW12289   9.003   3.822   0.643  0.4698  0.8203 -0.0584
 3904SOL    HW112290   8.995   3.905   0.595  0.3227 -0.0574 -1.6139
 3904SOL    HW212291   8.948   3.833   0.720 -0.4254  1.7805 -0.8070
 3905SOL     OW12292   7.146   1.371   7.221  0.2403  0.2424  0.1896
 3905SOL    HW112293   7.106   1.456   7.239  0.8715  0.3134  1.4150
 3905SOL    HW212294   7.154   1.368   7.126 -0.5526  1.1963  0.0716
 3906SOL     OW12295   6.348   1.884   2.580  0.5138  0.2917 -0.1829
 3906SOL    HW112296   6.277   1.920   2.634  0.4061  0.6911 -0.5886
 3906SOL    HW212297   6.327   1.791   2.572  0.5599  0.2131  0.5106
 3907SOL     OW12298   6.264   9.754   1.107 -0.0690  0.5857 -0.1265
 3907SOL    HW112299   6.337   9.804   1.143 -1.3372  1.7513  0.9262
 3907SOL    HW212300   6.196   9.819   1.091 -0.9276 -0.4880 -0.9623
 3908SOL     OW12301   6.927   2.595   9.408  0.1098  0.9196 -0.5478
 3908SOL    HW112302   6.952   2.679   9.370 -0.8495  1.4003 -0.1590
 3908SOL    HW212303   6.917   2.614   9.502  0.4482  0.2347 -0.3694
 3909SOL     OW12304   2.148   2.911   2.482  0.2763 -0.0897  0.3172
 3909SOL    HW112305   2.119   3.000   2.461 -2.3361 -0.7269  0.9012
 3909SOL    HW212306   2.195   2.882   2.403 -0.2691  1.2394 -0.5292
 3910SOL     OW12307   6.647   8.377   1.267 -0.2304  0.2300  0.9515
 3910SOL    HW112308   6.625   8.304   1.324 -0.5801 -0.0594  0.4570
 3910SOL    HW212309   6.593   8.363   1.189  1.2981 -0.2125 -0.0841
 3911SOL     OW12310   3.237   8.620   0.220 -0.0432  0.1323 -0.1612
 3911SOL    HW112311   3.159   8.624   0.165  1.2300  2.8824 -2.0162
 3911SOL    HW212312   3.212   8.668   0.299 -0.6121 -0.1308 -0.1754
 3912SOL     OW12313   3.891   6.778   7.005  0.2096  0.6095 -0.7223
 3912SOL    HW112314   3.934   6.759   7.089  0.9568 -0.1812 -1.2664
 3912SOL    HW212315   3.853   6.866   7.017  0.2020  0.4632  0.4730
 3913SOL     OW12316   2.288   1.143   7.078  0.1332  0.4590  0.2661
 3913SOL    HW112317   2.341   1.133   6.999 -0.6784 -3.0116  0.0215
 3913SOL    HW212318   2.340   1.201   7.135  2.2758  0.3724 -1.4847
 3914SOL     OW12319   5.705   2.809   1.347 -0.2591  0.1556  0.1293
 3914SOL    HW112320   5.619   2.848   1.365 -0.1922  0.3919 -0.0633
 3914SOL    HW212321   5.725   2.835   1.257  0.1974  0.4347  0.3120
 3915SOL     OW12322   5.279   6.716   6.148 -0.2018 -0.2037 -0.3437
 3915SOL    HW112323   5.263   6.672   6.231  0.2793  1.3472  0.6082
 3915SOL    HW212324   5.205   6.690   6.093 -2.7772  1.8796  1.8813
 3916SOL     OW12325   8.240   4.637   3.327 -0.2735  0.0880 -0.2675
 3916SOL    HW112326   8.170   4.690   3.364 -0.5265  0.7301 -1.5789
 3916SOL    HW212327   8.194   4.569   3.276  0.0571 -0.3772  0.0493
 3917SOL     OW12328   7.082   1.401   9.759  0.1282  0.0740 -0.1985
 3917SOL    HW112329   7.085   1.308   9.736 -1.3061  0.1202 -0.6490
 3917SOL    HW212330   7.057   1.402   9.851 -1.4803  0.0147 -0.6042
 3918SOL     OW12331   0.808   3.025   3.251 -0.6174 -0.5727 -0.0084
 3918SOL    HW112332   0.778   2.984   3.332  0.3603  0.7537  1.0797
 3918SOL    HW212333   0.879   3.083   3.279  0.2794 -0.6703 -1.9333
 3919SOL     OW12334   3.301   8.825   6.817  0.0643  0.1097 -0.1101
 3919SOL    HW112335   3.263   8.767   6.752  0.7225 -1.2699  0.6773
 3919SOL    HW212336   3.392   8.837   6.788 -0.3389  1.6852 -0.8559
 3920SOL     OW12337   7.256   9.488   3.948  0.1392  0.3769  0.1277
 3920SOL    HW112338   7.233   9.572   3.909 -0.3376  0.0501 -0.3037
 3920SOL    HW212339   7.239   9.499   4.042 -2.4907 -0.0598 -0.2269
 3921SOL     OW12340   6.144   3.289   7.349  0.6350 -0.0390  0.1559
 3921SOL    HW112341   6.191   3.344   7.287 -1.8926  1.0693 -0.9398
 3921SOL    HW212342   6.112   3.216   7.296  1.6667 -1.1617  1.0287
 3922SOL     OW12343   1.411   0.497   7.788 -0.7316 -0.4650 -0.2617
 3922SOL    HW112344   1.359   0.426   7.750 -0.9415 -1.2127  1.3441
 3922SOL    HW212345   1.347   0.553   7.832 -0.4953  0.3674 -0.9622
 3923SOL     OW12346   2.547   1.703   1.651  0.5723  0.4689 -0.1417
 3923SOL    HW112347   2.598   1.721   1.730  1.8661  0.6640 -0.9975
 3923SOL    HW212348   2.594   1.633   1.606 -1.4813 -1.3929  0.4286
 3924SOL     OW12349   5.251   1.535   7.226 -0.2985  0.2083 -0.0824
 3924SOL    HW112350   5.269   1.555   7.134  1.0442  1.4154  0.4072
 3924SOL    HW212351   5.297   1.453   7.242 -1.1024 -0.3714 -0.6378
 3925SOL     OW12352   9.422   5.167   9.038 -0.8206 -0.9016  0.4492
 3925SOL    HW112353   9.411   5.260   9.060  0.0829 -0.7559  0.3401
 3925SOL    HW212354   9.374   5.155   8.956  2.9579  0.6659 -2.2753
 3926SOL     OW12355   5.871   7.018   1.369  0.0813 -0.1258  0.4055
 3926SOL    HW112356   5.860   6.929   1.335 -0.3733  0.9913 -2.6631
 3926SOL    HW212357   5.782   7.045   1.394  0.3143 -0.6937  1.9958
 3927SOL     OW12358   4.322   7.766   3.845 -0.1976 -0.6367  0.0719
 3927SOL    HW112359   4.238   7.805   3.821 -0.1520 -0.9554 -0.6369
 3927SOL    HW212360   4.300   7.685   3.891 -0.2851 -0.0686  1.0564
 3928SOL     OW12361   4.089   4.279   1.049  0.2027 -0.5563  0.3035
 3928SOL    HW112362   4.130   4.196   1.076  0.0132 -0.6556  0.2867
 3928SOL    HW212363   4.008   4.252   1.006  0.1977 -0.3664  0.1957
 3929SOL     OW12364   7.263   1.819   5.965  0.5791 -0.1638 -0.4617
 3929SOL    HW112365   7.168   1.832   5.965  0.3292 -1.7471 -0.0853
 3929SOL    HW212366   7.276   1.739   5.914  1.6613 -0.2693 -0.0531
 3930SOL     OW12367   7.139   4.680   8.355 -0.0837 -0.0934 -0.2534
 3930SOL    HW112368   7.160   4.723   8.272  0.7409 -1.0425 -0.5493
 3930SOL    HW212369   7.189   4.599   8.354  0.8725  0.4001  1.6776
 3931SOL     OW12370   0.210   5.038   8.954  0.2456  0.2752 -0.3767
 3931SOL    HW112371   0.281   5.060   8.894 -0.3973  0.0407 -1.2416
 3931SOL    HW212372   0.174   5.122   8.981  1.8614  0.4845  1.3642
 3932SOL     OW12373   6.510   9.192   5.014  0.8127 -0.3364  0.4060
 3932SOL    HW112374   6.598   9.159   5.029  0.4528 -1.0836  0.9338
 3932SOL    HW212375   6.522   9.284   4.988  1.6214  0.1878  2.4774
 3933SOL     OW12376   3.339   3.528   5.033  0.0404  0.2069 -0.8709
 3933SOL    HW112377   3.323   3.542   4.940 -0.7325 -4.7525 -1.7344
 3933SOL    HW212378   3.433   3.511   5.039  0.0445  0.2536 -0.7945
 3934SOL     OW12379   0.492   4.567   3.729  0.4366 -0.0127 -0.2338
 3934SOL    HW112380   0.556   4.635   3.747  0.2221  0.1205  0.0320
 3934SOL    HW212381   0.473   4.527   3.814 -0.5234  0.5763 -0.1453
 3935SOL     OW12382   0.368   5.414   2.174  0.1416  0.5162 -0.4342
 3935SOL    HW112383   0.439   5.350   2.171 -1.2458 -1.0714 -0.7812
 3935SOL    HW212384   0.375   5.461   2.091 -2.2082 -3.1534 -3.0401
 3936SOL     OW12385   2.001   1.998   0.638 -0.1247 -0.4692  0.2053
 3936SOL    HW112386   1.954   1.925   0.597 -1.0705  0.3601 -0.2279
 3936SOL    HW212387   2.091   1.990   0.605 -0.0047 -1.8717  0.7703
 3937SOL     OW12388   7.246   2.209   4.739  0.1574 -0.2681  0.2155
 3937SOL    HW112389   7.190   2.237   4.812  0.3652 -0.0218  0.2829
 3937SOL    HW212390   7.335   2.216   4.773  0.3263  0.9780 -0.4327
 3938SOL     OW12391   8.820   0.193   1.804 -0.3176  0.6498  0.1715
 3938SOL    HW112392   8.903   0.195   1.852  0.5054  0.8212 -1.2077
 3938SOL    HW212393   8.753   0.190   1.873  0.8159  0.5324  1.3163
 3939SOL     OW12394   5.918   4.924   7.100  0.2515  0.5745  0.1915
 3939SOL    HW112395   5.988   4.877   7.145  0.7333  1.7811  0.7427
 3939SOL    HW212396   5.959   4.957   7.020  0.2537  1.0725  0.3948
 3940SOL     OW12397   7.799   8.078   9.141 -0.0023 -0.3227  0.2850
 3940SOL    HW112398   7.710   8.056   9.169  0.3402 -0.7060  1.1162
 3940SOL    HW212399   7.848   7.997   9.150  0.6862  0.1435  0.9281
 3941SOL     OW12400   4.111   4.607   8.188  0.1484  0.1887  0.1198
 3941SOL    HW112401   4.093   4.600   8.094 -0.9425 -0.6639  0.3674
 3941SOL    HW212402   4.072   4.528   8.226 -1.5218  1.6368  1.5817
 3942SOL     OW12403   6.290   7.264   7.565  0.0031  0.0701 -0.1187
 3942SOL    HW112404   6.382   7.269   7.592 -0.0009  0.3635 -0.1573
 3942SOL    HW212405   6.269   7.170   7.568  0.1676  0.0481  0.3487
 3943SOL     OW12406   9.603   1.131   2.986  0.8220 -0.8793  0.3092
 3943SOL    HW112407   9.639   1.103   2.902  0.2459 -1.0560  0.1098
 3943SOL    HW212408   9.657   1.205   3.012 -1.0610  1.5493 -1.9676
 3944SOL     OW12409   0.948   0.379   0.448 -0.5155 -0.5482  0.3873
 3944SOL    HW112410   0.871   0.418   0.489 -0.9766  0.7152 -1.5451
 3944SOL    HW212411   0.918   0.352   0.361  1.5026  1.3113 -0.9924
 3945SOL     OW12412   5.811   1.802   7.032 -0.5151 -0.2968  0.5894
 3945SOL    HW112413   5.776   1.715   7.016 -0.6053  0.1871 -2.2632
 3945SOL    HW212414   5.906   1.793   7.022 -0.6845  0.3299 -2.3930
 3946SOL     OW12415   2.283   4.888   3.304  0.4541  0.1059  0.1469
 3946SOL    HW112416   2.366   4.840   3.302 -0.4326 -1.4925 -1.4434
 3946SOL    HW212417   2.297   4.957   3.368  2.1369 -1.7308  1.9259
 3947SOL     OW12418   4.846   1.118   1.937  0.1642  0.0738 -0.3596
 3947SOL    HW112419   4.814   1.046   1.882  0.5737  0.1723 -0.7374
 3947SOL    HW212420   4.776   1.183   1.934 -0.2110 -0.3126 -0.0078
 3948SOL     OW12421   8.304   7.331   7.034 -0.1815  0.0964 -0.4060
 3948SOL    HW112422   8.310   7.309   7.127 -1.5211 -1.9602 -0.7489
 3948SOL    HW212423   8.319   7.249   6.989 -2.4769  0.4122 -1.8952
 3949SOL     OW12424   3.169   6.459   6.770 -0.0518 -0.4492 -0.1145
 3949SOL    HW112425   3.249   6.441   6.820 -0.8735 -0.6891  1.1518
 3949SOL    HW212426   3.153   6.378   6.722 -0.0541 -0.7483  0.3809
 3950SOL     OW12427   4.101   0.119   2.034 -0.2080  0.5236 -0.1058
 3950SOL    HW112428   4.097   0.185   2.104 -1.1073  0.7380 -0.3484
 3950SOL    HW212429   4.193   0.094   2.031  0.1106  1.5959  0.1569
 3951SOL     OW12430   7.009   8.204   8.633 -0.2432 -0.1353  0.1556
 3951SOL    HW112431   6.982   8.153   8.557 -0.7250 -0.2117  0.3762
 3951SOL    HW212432   7.016   8.293   8.601 -1.1996 -0.0345  0.1851
 3952SOL     OW12433   0.424   4.387   8.887  0.1986 -0.5535 -0.4631
 3952SOL    HW112434   0.372   4.455   8.843 -0.1814 -2.3828 -3.0733
 3952SOL    HW212435   0.430   4.316   8.823  1.7175 -2.4660  1.6354
 3953SOL     OW12436   8.352   7.620   0.369 -0.1046 -0.1005  0.0467
 3953SOL    HW112437   8.437   7.587   0.397 -0.5611 -1.0575  0.3747
 3953SOL    HW212438   8.370   7.706   0.333  0.7597  0.5520  1.8804
 3954SOL     OW12439   2.228   9.179   5.809 -0.5996 -0.3560 -0.1605
 3954SOL    HW112440   2.197   9.107   5.755 -0.7860 -0.3235 -0.0963
 3954SOL    HW212441   2.320   9.190   5.784 -0.9693  0.3688 -1.2493
 3955SOL     OW12442   8.784   0.022   7.245  0.0883  0.3890  0.2299
 3955SOL    HW112443   8.843  -0.036   7.196 -0.3029  0.9612 -0.9672
 3955SOL    HW212444   8.810   0.110   7.219  0.5669  0.7714  1.9010
 3956SOL     OW12445   1.861   4.724   3.231 -0.0785 -0.3853  0.1963
 3956SOL    HW112446   1.900   4.646   3.192 -0.0509 -0.7186  0.8704
 3956SOL    HW212447   1.913   4.797   3.197 -1.3746 -0.4390 -2.0772
 3957SOL     OW12448   6.011   2.674   7.189  0.7495 -0.5175  0.4765
 3957SOL    HW112449   5.923   2.688   7.155  0.4586  2.2157  1.9806
 3957SOL    HW212450   6.068   2.725   7.131  0.8014  0.6701  1.5169
 3958SOL     OW12451   1.024   8.041   0.860  0.0171  0.0711 -0.3918
 3958SOL    HW112452   1.111   8.016   0.890  0.3066  1.5282  0.0737
 3958SOL    HW212453   0.964   7.992   0.915  0.5576  0.1560  0.2832
 3959SOL     OW12454   3.705   2.504   5.723  0.1410 -0.4442  0.1727
 3959SOL    HW112455   3.670   2.594   5.718  0.7374 -0.1665  0.8370
 3959SOL    HW212456   3.800   2.515   5.729  0.1253 -1.0052  2.3194
 3960SOL     OW12457   0.522   2.837   2.999 -0.0766  0.0476  0.0072
 3960SOL    HW112458   0.506   2.914   2.943  1.6104  0.3102 -0.1792
 3960SOL    HW212459   0.596   2.793   2.957  0.2921 -0.5415  1.2401
 3961SOL     OW12460   9.450   3.677   7.853 -0.1165  0.4589  0.4352
 3961SOL    HW112461   9.386   3.638   7.913 -0.5134 -0.4229 -0.5345
 3961SOL    HW212462   9.433   3.635   7.769 -1.1472  3.3460 -0.9387
 3962SOL     OW12463   1.713   2.278   5.837 -0.1877 -0.4092 -0.0658
 3962SOL    HW112464   1.670   2.339   5.777 -2.6423 -0.4858  1.4655
 3962SOL    HW212465   1.730   2.330   5.916  0.3791 -0.9913  0.2025
 3963SOL     OW12466   1.750   2.629   7.667  0.5672 -0.2427 -0.8380
 3963SOL    HW112467   1.788   2.686   7.734  1.3800 -2.2909  0.5839
 3963SOL    HW212468   1.816   2.560   7.655 -0.5103 -1.0835 -2.1725
 3964SOL     OW12469   3.948   4.885   6.354 -0.2214  0.0343  0.1614
 3964SOL    HW112470   3.902   4.962   6.387 -1.2606 -0.3623 -0.3273
 3964SOL    HW212471   3.880   4.819   6.344  0.4277 -0.5099 -0.7658
 3965SOL     OW12472   6.063   2.142   6.123  0.0569  0.1175  0.0984
 3965SOL    HW112473   6.138   2.154   6.181 -1.0218  1.3038  1.3162
 3965SOL    HW212474   6.066   2.050   6.099  2.0669  0.2088 -0.1446
 3966SOL     OW12475   9.283   1.801   6.390  0.2121 -0.1400 -0.3713
 3966SOL    HW112476   9.210   1.794   6.328  0.3958 -0.2643 -0.5722
 3966SOL    HW212477   9.345   1.733   6.363 -0.3832 -1.2119  0.8762
 3967SOL     OW12478   4.985   7.279   9.704  0.2917 -0.0181  0.3457
 3967SOL    HW112479   4.953   7.352   9.758 -0.0172 -0.7711  1.2178
 3967SOL    HW212480   4.907   7.247   9.659  0.4125  0.1387  0.0243
 3968SOL     OW12481   8.928   8.045   4.019  0.0035  0.4308 -0.2293
 3968SOL    HW112482   8.907   8.011   3.932 -0.8556 -4.4345  1.5460
 3968SOL    HW212483   8.853   8.019   4.073  0.7904  2.6753  2.1582
 3969SOL     OW12484   7.838   1.349   8.883  0.0281  0.0317  0.5398
 3969SOL    HW112485   7.902   1.303   8.828 -0.0998 -0.8059  1.0791
 3969SOL    HW212486   7.809   1.422   8.829 -0.3973 -1.0038 -0.6900
 3970SOL     OW12487   3.978   2.534   0.135 -0.1123  0.0554 -0.2701
 3970SOL    HW112488   4.023   2.555   0.053 -1.2307  1.4437 -0.5699
 3970SOL    HW212489   4.007   2.445   0.156 -0.5743 -0.7686 -2.7271
 3971SOL     OW12490   9.537   6.974   1.555 -0.3927  0.6679 -0.2515
 3971SOL    HW112491   9.619   6.930   1.578  0.3478  1.8548 -0.5620
 3971SOL    HW212492   9.560   7.066   1.548 -2.2737  1.4289  2.1989
 3972SOL     OW12493   5.913   4.290   0.545  0.4269 -0.2509  0.0489
 3972SOL    HW112494   5.897   4.222   0.479  0.8113 -1.0295  0.7307
 3972SOL    HW212495   5.955   4.361   0.497 -1.9921  0.4763 -1.1438
 3973SOL     OW12496   3.100   6.562   9.368  0.5809  0.3705  0.1334
 3973SOL    HW112497   3.168   6.527   9.310 -0.7042 -3.9256  0.9068
 3973SOL    HW212498   3.133   6.547   9.456 -2.1272 -4.3549  0.6467
 3974SOL     OW12499   5.165   4.289   6.792  0.3826 -0.2063  0.2344
 3974SOL    HW112500   5.119   4.206   6.799  1.8220 -0.9022  2.3087
 3974SOL    HW212501   5.253   4.272   6.826  0.6790  2.1901  0.9063
 3975SOL     OW12502   2.482   6.834   4.984  0.3134 -0.2415 -0.3620
 3975SOL    HW112503   2.550   6.866   4.924 -0.5443 -0.5783 -1.5457
 3975SOL    HW212504   2.442   6.914   5.019  3.1925  0.0859  2.7054
 3976SOL     OW12505   3.587   2.065   8.951 -0.1349  0.5570 -0.0743
 3976SOL    HW112506   3.511   2.023   8.991 -1.1834  1.4123 -1.0692
 3976SOL    HW212507   3.557   2.091   8.864 -0.0148  4.3510  0.8105
 3977SOL     OW12508   1.679   8.993   4.725 -0.5012 -0.6094  0.1605
 3977SOL    HW112509   1.765   8.980   4.763 -0.3326 -0.4163 -0.1490
 3977SOL    HW212510   1.619   8.991   4.799 -0.2248 -0.6770  0.3835
 3978SOL     OW12511   3.563   7.421   4.600 -0.1512  0.3813 -0.1771
 3978SOL    HW112512   3.645   7.438   4.646 -0.2961 -1.1351  0.7294
 3978SOL    HW212513   3.573   7.332   4.566 -1.6605 -0.0720  0.5020
 3979SOL     OW12514   4.944   6.125   2.176  0.4702 -0.5666  0.2009
 3979SOL    HW112515   4.944   6.030   2.190 -1.1158 -0.4010  1.5622
 3979SOL    HW212516   5.007   6.159   2.239  1.2067 -0.6999 -0.4392
 3980SOL     OW12517   9.658   8.086   2.353  0.2243  0.1278  0.3125
 3980SOL    HW112518   9.685   8.159   2.297 -1.3384  1.0297  0.6610
 3980SOL    HW212519   9.709   8.012   2.323  0.8122  1.0416 -1.0228
 3981SOL     OW12520   9.192   8.339   6.331  0.3922 -0.2589  1.2339
 3981SOL    HW112521   9.121   8.389   6.291  1.4251 -0.1161 -0.5248
 3981SOL    HW212522   9.155   8.253   6.347  0.2157 -0.7084 -1.1768
 3982SOL     OW12523   7.670   6.751   5.275  0.3143  0.6328  0.6483
 3982SOL    HW112524   7.701   6.836   5.308  2.7732  0.1381 -0.1694
 3982SOL    HW212525   7.705   6.747   5.186 -0.8918 -0.7117  0.2110
 3983SOL     OW12526   9.254   7.622   7.840  0.3130 -0.7068 -0.0612
 3983SOL    HW112527   9.336   7.654   7.802 -0.0957  0.1030 -0.2735
 3983SOL    HW212528   9.276   7.535   7.875  1.8622  0.4063  1.9661
 3984SOL     OW12529   2.122   0.775   1.488 -0.4174  0.4736  0.1903
 3984SOL    HW112530   2.105   0.805   1.578  1.3212  1.2884  0.2766
 3984SOL    HW212531   2.069   0.696   1.480 -0.6411  0.3949  1.9267
 3985SOL     OW12532   4.787   7.922   0.738 -0.0212  0.1673 -0.1135
 3985SOL    HW112533   4.721   7.966   0.685 -0.7533 -2.0896 -1.1476
 3985SOL    HW212534   4.743   7.905   0.822 -0.8427 -1.4417 -0.8410
 3986SOL     OW12535   9.236   2.661   6.323  0.0901  0.0010  0.3953
 3986SOL    HW112536   9.184   2.711   6.261 -0.9030 -0.2593  0.9929
 3986SOL    HW212537   9.203   2.571   6.316  1.8836 -0.6260 -0.7040
 3987SOL     OW12538   6.984   4.903   1.159 -0.0524  0.4897 -0.0773
 3987SOL    HW112539   6.949   4.837   1.219  1.1182 -0.0838  0.0095
 3987SOL    HW212540   6.990   4.983   1.211 -0.8352  0.4943  0.0160
 3988SOL     OW12541   3.636   6.326   5.201 -0.3448 -0.2537 -0.1213
 3988SOL    HW112542   3.570   6.372   5.150 -0.1383 -0.7435 -0.8392
 3988SOL    HW212543   3.710   6.387   5.206 -1.6817  1.3053  2.7451
 3989SOL     OW12544   3.693   5.336   7.613 -0.1416  0.5705  0.2248
 3989SOL    HW112545   3.733   5.256   7.578 -1.3810  0.3002 -0.6389
 3989SOL    HW212546   3.683   5.392   7.536 -0.5743  0.9861  0.5854
 3990SOL     OW12547   1.630   2.049   2.392 -0.4949 -0.2509  0.3376
 3990SOL    HW112548   1.551   1.996   2.380  0.5876 -1.5452 -1.5718
 3990SOL    HW212549   1.667   2.056   2.304  0.7503  1.5931  0.9590
 3991SOL     OW12550   5.511   9.328   9.507 -0.5163  0.2685  0.9237
 3991SOL    HW112551   5.444   9.395   9.495 -0.5392  0.0248 -0.5763
 3991SOL    HW212552   5.579   9.351   9.444  0.8682  0.5363  2.4418
 3992SOL     OW12553   1.031   8.337   3.257  0.5670 -0.1675 -0.1988
 3992SOL    HW112554   1.030   8.432   3.244 -0.1119 -0.4421 -2.6261
 3992SOL    HW212555   0.956   8.320   3.314 -0.5974  0.5879 -1.4612
 3993SOL     OW12556   5.812   8.181   9.163  0.0737 -0.4049  0.2033
 3993SOL    HW112557   5.883   8.173   9.099 -0.3494 -0.3605 -0.2800
 3993SOL    HW212558   5.850   8.148   9.244  0.3491 -1.2964 -0.2729
 3994SOL     OW12559   3.376   5.529   2.966  0.1563  0.8164  0.2894
 3994SOL    HW112560   3.405   5.464   3.031 -1.7580 -0.2891  0.0905
 3994SOL    HW212561   3.402   5.491   2.882 -0.1679  0.7321  0.2268
 3995SOL     OW12562   0.056   9.848   7.090  0.2614  0.0568  0.4715
 3995SOL    HW112563   0.038   9.822   7.000 -0.5644  1.3546  0.2364
 3995SOL    HW212564   0.017   9.778   7.143 -0.5683  0.0293 -0.1558
 3996SOL     OW12565   0.445   5.165   0.713 -0.1764 -0.2365  0.5546
 3996SOL    HW112566   0.524   5.112   0.704 -0.2262 -0.7509  2.5569
 3996SOL    HW212567   0.373   5.104   0.698 -0.2055 -0.4323  1.4030
 3997SOL     OW12568   2.000   1.250   4.429 -0.0819  0.1408  0.0223
 3997SOL    HW112569   1.984   1.226   4.521  1.5945 -0.5677  0.1749
 3997SOL    HW212570   1.920   1.227   4.383  0.3216 -3.0577  0.6863
 3998SOL     OW12571   3.804   7.324   7.284 -0.1167  0.0396  0.2801
 3998SOL    HW112572   3.807   7.372   7.202  0.2637 -1.8012 -0.8545
 3998SOL    HW212573   3.818   7.390   7.352 -0.4729  1.6071 -1.1164
 3999SOL     OW12574   4.452   4.219   7.481 -0.4561  0.0938 -0.3195
 3999SOL    HW112575   4.547   4.232   7.471 -0.0463 -0.7304  1.8579
 3999SOL    HW212576   4.413   4.297   7.443  1.1913  1.2299  0.1898
 4000SOL     OW12577   2.712   0.403   6.055  0.2780 -0.4805 -0.1863
 4000SOL    HW112578   2.794   0.355   6.069 -1.2868 -2.8706  1.3267
 4000SOL    HW212579   2.681   0.373   5.970 -0.7766 -2.4114  0.8238
 4001SOL     OW12580   2.271   3.401   6.418 -0.0373 -0.1328  0.0532
 4001SOL    HW112581   2.319   3.368   6.342 -0.8405 -0.7491 -0.1927
 4001SOL    HW212582   2.186   3.426   6.383 -0.1441  0.2935  0.6185
 4002SOL     OW12583   4.771   2.329   4.157  0.1793  0.2420 -0.1434
 4002SOL    HW112584   4.851   2.351   4.110  0.4554 -0.7285 -0.1337
 4002SOL    HW212585   4.768   2.234   4.158  0.0101  0.2363  1.5136
 4003SOL     OW12586   7.247   6.406   6.231  0.1450 -0.5674  0.0488
 4003SOL    HW112587   7.317   6.348   6.200 -0.2570 -1.6895  1.1684
 4003SOL    HW212588   7.167   6.353   6.224 -0.2964 -0.0025  0.6614
 4004SOL     OW12589   3.626   7.475   9.940  0.0263 -0.4885 -0.3515
 4004SOL    HW112590   3.544   7.429   9.961 -0.6051 -0.2819 -2.2269
 4004SOL    HW212591   3.615   7.504   9.850  1.2850  1.4843  0.0658
 4005SOL     OW12592   1.297   2.103   1.133  0.2947  0.0145  0.3463
 4005SOL    HW112593   1.270   2.125   1.223 -0.0046  0.7424  0.0822
 4005SOL    HW212594   1.221   2.124   1.079  0.5121 -0.3216 -0.0937
 4006SOL     OW12595   0.367   0.597   6.875  0.1218  0.2462 -0.1050
 4006SOL    HW112596   0.389   0.509   6.904  0.3881  0.4967  0.4571
 4006SOL    HW212597   0.291   0.584   6.818  1.4334 -0.5749 -1.7696
 4007SOL     OW12598   4.928   1.426   9.877 -0.1528 -0.0567 -0.6443
 4007SOL    HW112599   4.871   1.488   9.922  1.8862  0.1614  1.8711
 4007SOL    HW212600   4.985   1.481   9.823 -1.2386 -0.1705 -1.9764
 4008SOL     OW12601   1.174   4.871   3.506 -0.5674  0.2726 -0.6444
 4008SOL    HW112602   1.111   4.931   3.466  2.4597  2.9468 -1.8595
 4008SOL    HW212603   1.168   4.888   3.600 -0.6979  1.5586 -0.8700
 4009SOL     OW12604   0.014   3.736   5.602 -0.2729 -0.0953 -0.1093
 4009SOL    HW112605   0.032   3.676   5.674 -1.8272 -1.1807 -0.5723
 4009SOL    HW212606   0.088   3.797   5.603  1.0063 -1.5707  0.8330
 4010SOL     OW12607   1.190   9.925   2.035 -0.0722 -0.0117  0.1889
 4010SOL    HW112608   1.187   9.861   2.107  0.2449 -0.7718 -0.4557
 4010SOL    HW212609   1.140   9.884   1.965  0.0682  0.4893 -0.2061
 4011SOL     OW12610   2.162   3.904   5.819  0.1788  0.1601 -0.1354
 4011SOL    HW112611   2.114   3.822   5.804 -0.7929  0.6246  0.3392
 4011SOL    HW212612   2.101   3.973   5.793  0.5775  0.7711  0.4979
 4012SOL     OW12613   5.436   9.547   4.743 -0.0870  0.2993 -0.5081
 4012SOL    HW112614   5.386   9.628   4.749 -1.8585 -0.7149 -1.0429
 4012SOL    HW212615   5.371   9.479   4.734  1.2853 -1.3764  1.2751
 4013SOL     OW12616   2.242   7.933   2.414 -0.4607 -0.4209  0.1100
 4013SOL    HW112617   2.335   7.945   2.393 -0.1844 -2.7035 -0.2144
 4013SOL    HW212618   2.211   8.021   2.437  1.2293  0.7690 -1.8557
 4014SOL     OW12619   1.008   8.487   6.195 -0.1073 -0.0525 -0.1968
 4014SOL    HW112620   0.920   8.518   6.217 -0.2775 -0.5840 -0.1074
 4014SOL    HW212621   1.048   8.466   6.279  0.3126  0.7203 -0.1978
 4015SOL     OW12622   0.877   2.847   7.063  0.0725 -0.2138 -0.0599
 4015SOL    HW112623   0.927   2.841   6.981  2.4242  0.3979  1.2302
 4015SOL    HW212624   0.942   2.831   7.132 -1.5301  0.6636  1.7641
 4016SOL     OW12625   2.080   1.956   4.852  1.2788  0.0299  0.0719
 4016SOL    HW112626   2.166   1.973   4.814  1.2598 -0.1491 -0.0492
 4016SOL    HW212627   2.088   1.984   4.944  1.2011  0.8466 -0.1610
 4017SOL     OW12628   5.497   4.048   1.568  0.2545 -0.0584 -0.0658
 4017SOL    HW112629   5.432   3.986   1.599  0.5107 -1.2150 -1.7223
 4017SOL    HW212630   5.483   4.126   1.622  0.2963 -1.6869  2.4860
 4018SOL     OW12631   8.737   1.309   6.288 -0.4116 -0.5244 -0.3367
 4018SOL    HW112632   8.724   1.262   6.370  2.4257 -1.0944 -0.1047
 4018SOL    HW212633   8.782   1.246   6.231  0.1671  0.7338 -1.3331
 4019SOL     OW12634   2.197   3.689   5.547 -0.0700  0.0558 -0.1952
 4019SOL    HW112635   2.171   3.781   5.549 -1.1965 -0.2673  1.3066
 4019SOL    HW212636   2.118   3.640   5.568  0.0971 -1.3940 -2.6368
 4020SOL     OW12637   3.053   6.806   3.393 -0.2393 -0.1326  0.3500
 4020SOL    HW112638   3.040   6.712   3.387  0.7700 -0.2175 -1.0276
 4020SOL    HW212639   3.002   6.833   3.469  0.6875 -2.0151  1.6994
 4021SOL     OW12640   8.858   8.569   3.332  0.1462 -0.1990  0.0714
 4021SOL    HW112641   8.832   8.597   3.244 -0.0182 -2.2581 -0.5769
 4021SOL    HW212642   8.840   8.645   3.387  1.6346  1.6726 -1.8591
 4022SOL     OW12643   1.330   1.312   0.342  0.1338 -0.3801 -0.3772
 4022SOL    HW112644   1.286   1.239   0.386 -1.1983  0.2574 -0.6160
 4022SOL    HW212645   1.404   1.271   0.298 -1.3171 -1.8603 -1.5819
 4023SOL     OW12646   3.180   6.888   0.607 -1.2744 -0.1807 -0.0109
 4023SOL    HW112647   3.112   6.834   0.567 -1.2940 -0.3232  0.2122
 4023SOL    HW212648   3.223   6.931   0.533 -0.9241 -0.8918 -0.2353
 4024SOL     OW12649   8.545   4.908   4.670  0.1748  0.7045  0.1367
 4024SOL    HW112650   8.488   4.856   4.613  0.1293 -0.6178  1.3498
 4024SOL    HW212651   8.579   4.977   4.612 -1.5378  0.7026 -0.9587
 4025SOL     OW12652   1.867   3.325   5.800  0.1004  0.0484 -0.0462
 4025SOL    HW112653   1.839   3.268   5.728  1.3050 -1.9565  0.9873
 4025SOL    HW212654   1.850   3.275   5.879  0.1311  1.6335  1.0144
 4026SOL     OW12655   3.139   8.265   1.889 -0.5908 -0.1025  0.4939
 4026SOL    HW112656   3.201   8.262   1.816 -1.3726 -0.9324 -0.1603
 4026SOL    HW212657   3.182   8.320   1.955  1.3474 -1.5675  0.5276
 4027SOL     OW12658   0.509   0.209   8.976  0.0672  0.3653 -0.6415
 4027SOL    HW112659   0.482   0.129   9.021 -1.2643  0.7318 -0.7735
 4027SOL    HW212660   0.598   0.225   9.009 -0.3584 -0.1076  0.8192
 4028SOL     OW12661   1.089   7.966   5.910  0.0948  0.6470  0.5871
 4028SOL    HW112662   1.027   7.985   5.981  3.1240 -0.7593  3.8756
 4028SOL    HW212663   1.072   7.875   5.887  0.8894  0.2423  1.5319
 4029SOL     OW12664   9.841   6.156   8.730 -0.0160  0.1534  0.3520
 4029SOL    HW112665   9.923   6.119   8.763  0.1657  0.7336  0.5544
 4029SOL    HW212666   9.815   6.219   8.797  0.2254  1.1610 -0.4878
 4030SOL     OW12667   4.783   0.076   8.822 -0.8351  0.3848 -0.0278
 4030SOL    HW112668   4.692   0.085   8.850 -0.8417 -1.9959  0.8970
 4030SOL    HW212669   4.832   0.065   8.904 -0.0854 -0.9915 -0.6252
 4031SOL     OW12670   0.637   2.024   5.054 -0.2498 -0.3132 -0.0707
 4031SOL    HW112671   0.719   1.977   5.068  0.2997  0.3354 -0.9971
 4031SOL    HW212672   0.588   1.970   4.992 -1.0565 -1.2881  1.3563
 4032SOL     OW12673   7.248   7.013   8.173 -0.1990 -0.5274 -0.6837
 4032SOL    HW112674   7.161   7.031   8.209 -0.4141 -3.9122  0.8748
 4032SOL    HW212675   7.232   6.952   8.102  0.8505 -0.3702 -1.0737
 4033SOL     OW12676   4.303   3.515   1.369 -0.1572 -0.1883 -0.6131
 4033SOL    HW112677   4.225   3.460   1.379  0.8421 -1.4452  0.9396
 4033SOL    HW212678   4.356   3.494   1.446  0.8988  2.0038 -0.6655
 4034SOL     OW12679   6.782   9.379   5.475  0.1499  0.2275  0.6657
 4034SOL    HW112680   6.720   9.320   5.519 -0.3414 -0.9508 -1.4162
 4034SOL    HW212681   6.743   9.393   5.388  2.1004  0.6364 -0.1968
 4035SOL     OW12682   2.577   9.605   0.353 -0.6423 -0.0405 -0.0375
 4035SOL    HW112683   2.533   9.690   0.347  1.6287  1.2952  1.0976
 4035SOL    HW212684   2.625   9.609   0.436  0.2699 -2.0664 -0.4284
 4036SOL     OW12685   7.331   8.516   8.466 -0.2661 -0.1629 -0.3016
 4036SOL    HW112686   7.320   8.423   8.446 -0.1830  0.0008 -1.1250
 4036SOL    HW212687   7.250   8.557   8.435 -0.6408 -0.0611  0.7705
 4037SOL     OW12688   4.301   7.763   1.923  0.0125 -0.4529  0.0304
 4037SOL    HW112689   4.315   7.683   1.872 -0.3840 -0.7914  0.4385
 4037SOL    HW212690   4.208   7.762   1.943 -0.3190  0.9230 -1.2678
 4038SOL     OW12691   4.305   0.344   1.958  0.0316  0.4161  0.0605
 4038SOL    HW112692   4.221   0.385   1.979  0.4769  1.5483 -0.2493
 4038SOL    HW212693   4.354   0.348   2.040 -0.8038 -1.8347  0.7240
 4039SOL     OW12694   1.054   3.199   8.685  0.8534  0.3000  0.0163
 4039SOL    HW112695   1.010   3.268   8.734  0.6819 -1.1625  2.0796
 4039SOL    HW212696   1.140   3.192   8.727  0.5965 -1.2031  0.3258
 4040SOL     OW12697   6.732   0.081   2.266 -0.7318  0.5468 -1.2429
 4040SOL    HW112698   6.728   0.034   2.349 -0.8519  0.1920 -1.4516
 4040SOL    HW212699   6.753   0.171   2.291  1.0529  0.0885 -0.9407
 4041SOL     OW12700   1.123   4.887   2.756 -0.4781  0.0269 -0.2119
 4041SOL    HW112701   1.196   4.921   2.806 -0.9175 -1.6949  1.7285
 4041SOL    HW212702   1.158   4.812   2.708 -0.9719 -0.9225  0.8738
 4042SOL     OW12703   3.067   1.380   1.060  0.0476  0.2082 -0.2209
 4042SOL    HW112704   3.129   1.309   1.076 -2.0213 -1.8126 -0.7422
 4042SOL    HW212705   3.019   1.390   1.141 -1.0260 -0.4015 -0.7666
 4043SOL     OW12706   3.832   7.057   6.977 -0.1183 -0.4704 -0.3610
 4043SOL    HW112707   3.828   7.043   6.882 -2.0365  0.7056 -0.4934
 4043SOL    HW212708   3.898   7.125   6.988  0.1905 -0.6821 -0.8275
 4044SOL     OW12709   3.422   1.586   0.869  0.1893  0.1411 -0.4601
 4044SOL    HW112710   3.391   1.529   0.798 -0.5176  1.7116 -1.4781
 4044SOL    HW212711   3.515   1.599   0.850  0.1034  0.2050 -0.8494
 4045SOL     OW12712   7.526   4.186   9.138  0.1114  0.0146  0.1336
 4045SOL    HW112713   7.476   4.258   9.099  1.4518  0.3808 -1.0158
 4045SOL    HW212714   7.469   4.110   9.131 -0.5425  0.5528 -0.5440
 4046SOL     OW12715   6.634   8.500   2.369  0.0661 -0.0674 -0.4782
 4046SOL    HW112716   6.690   8.427   2.345 -1.8448 -1.7953  0.0678
 4046SOL    HW212717   6.693   8.576   2.372  2.2462 -1.6870 -0.3386
 4047SOL     OW12718   1.270   9.560   9.525 -0.3035  0.0812 -0.4022
 4047SOL    HW112719   1.352   9.538   9.481 -1.5951 -0.2362 -2.8400
 4047SOL    HW212720   1.277   9.653   9.545  0.9293 -0.1085  0.0799
 4048SOL     OW12721   0.925   6.876   3.228 -0.1699 -0.2668  0.1791
 4048SOL    HW112722   0.986   6.877   3.155 -0.6675 -0.4586 -0.2478
 4048SOL    HW212723   0.913   6.783   3.249 -1.3714 -0.3251 -0.6556
 4049SOL     OW12724   9.921   6.364   1.963 -0.3593  0.8222  0.5458
 4049SOL    HW112725   9.870   6.333   2.038 -0.8993  0.4813  0.0507
 4049SOL    HW212726   9.856   6.380   1.895 -0.0174  2.3509  0.5394
 4050SOL     OW12727   1.584   4.569   9.401 -0.3827  0.2158 -1.0170
 4050SOL    HW112728   1.661   4.561   9.345 -0.4620  1.0589 -1.2700
 4050SOL    HW212729   1.602   4.645   9.456 -0.5788 -0.2279 -0.3251
 4051SOL     OW12730   7.185   6.216   3.362 -0.6606 -0.2702 -0.6744
 4051SOL    HW112731   7.121   6.166   3.310 -0.3366 -0.1380 -1.2110
 4051SOL    HW212732   7.133   6.254   3.433 -1.0885 -0.5796 -0.8138
 4052SOL     OW12733   0.469   5.273   3.625  0.0840  0.4932 -0.4822
 4052SOL    HW112734   0.469   5.333   3.700  0.4241 -0.9217  0.6994
 4052SOL    HW212735   0.558   5.238   3.623  0.3227  1.1260 -2.0946
 4053SOL     OW12736   7.118   1.820   1.040 -0.0963 -0.3337 -0.5724
 4053SOL    HW112737   7.185   1.834   1.108  1.5144 -1.0784 -1.9260
 4053SOL    HW212738   7.036   1.813   1.088  1.0495 -1.4040  1.3585
 4054SOL     OW12739   1.396   6.834   2.672 -0.0424  0.2976  0.0694
 4054SOL    HW112740   1.361   6.753   2.636  0.3792  0.4453 -0.6962
 4054SOL    HW212741   1.318   6.884   2.699 -0.3008 -0.3481  0.5419
 4055SOL     OW12742   6.788   6.690   7.956  0.4692 -0.3529  0.3003
 4055SOL    HW112743   6.710   6.651   7.915 -0.0952 -1.0772  1.9629
 4055SOL    HW212744   6.774   6.784   7.950  0.2678 -0.4481 -0.8858
 4056SOL     OW12745   6.064   4.315   7.511 -0.6124 -0.2640  0.3644
 4056SOL    HW112746   5.986   4.267   7.539 -1.1232  0.7416  0.7101
 4056SOL    HW212747   6.135   4.278   7.564 -0.6044 -1.9821 -0.7597
 4057SOL     OW12748   8.352   6.777   7.064 -0.3793  0.2603  0.1571
 4057SOL    HW112749   8.408   6.841   7.020 -0.5392  0.0679 -0.3288
 4057SOL    HW212750   8.301   6.738   6.994  0.1318 -0.8217  0.3760
 4058SOL     OW12751   2.464   6.497   8.971  0.1614 -0.0147  0.9119
 4058SOL    HW112752   2.388   6.478   8.916  1.1027 -1.0425 -0.0664
 4058SOL    HW212753   2.481   6.590   8.958  0.0770 -0.1423 -0.1571
 4059SOL     OW12754   0.763   2.092   6.251 -0.1637 -0.1134  0.2886
 4059SOL    HW112755   0.683   2.069   6.205  1.0016 -0.4651 -1.6984
 4059SOL    HW212756   0.736   2.159   6.314 -2.3893 -1.8915  1.3499
 4060SOL     OW12757   5.246   4.832   3.537  0.1230 -0.0861 -0.5890
 4060SOL    HW112758   5.262   4.811   3.445  1.1031 -0.0297 -0.4464
 4060SOL    HW212759   5.258   4.926   3.543 -1.8799  0.2063 -0.7630
 4061SOL     OW12760   1.229   7.090   2.404  0.3958  0.9163 -0.8223
 4061SOL    HW112761   1.276   7.172   2.387  0.2097  1.2627  0.2624
 4061SOL    HW212762   1.200   7.061   2.317  0.5019  1.9664 -1.2286
 4062SOL     OW12763   2.580   2.029   6.383 -0.6505 -0.5992  0.1138
 4062SOL    HW112764   2.515   2.095   6.357 -1.1640 -1.3114 -0.4717
 4062SOL    HW212765   2.546   1.947   6.346  1.1455 -0.8158 -1.1361
 4063SOL     OW12766   4.939   3.026   4.870 -0.0292 -0.1709  0.0647
 4063SOL    HW112767   4.918   2.933   4.877 -0.3670 -0.0979  0.0016
 4063SOL    HW212768   4.934   3.058   4.960 -3.6478  0.6056 -0.2783
 4064SOL     OW12769   2.040   7.396   7.755 -0.5214  0.1526  0.4936
 4064SOL    HW112770   2.104   7.334   7.790  0.1158  1.3495  1.5121
 4064SOL    HW212771   2.012   7.357   7.672 -0.0633 -1.4277  1.0479
 4065SOL     OW12772   5.438   0.338   5.886 -0.1933  0.0911 -0.4072
 4065SOL    HW112773   5.498   0.369   5.817 -0.1917 -1.2910 -1.0569
 4065SOL    HW212774   5.378   0.279   5.840 -1.1573  0.3344  0.5110
 4066SOL     OW12775   9.091   5.664   9.054 -0.3859  0.4688 -0.4727
 4066SOL    HW112776   8.997   5.657   9.039 -0.2360 -2.1008 -0.6764
 4066SOL    HW212777   9.128   5.585   9.013  1.7376  0.9055  0.4594
 4067SOL     OW12778   0.538   2.536   0.770 -0.4989  0.8659  0.2325
 4067SOL    HW112779   0.540   2.630   0.749 -0.3544  1.0511  1.0535
 4067SOL    HW212780   0.459   2.525   0.823 -1.0861  0.3284 -0.7366
 4068SOL     OW12781   7.795   6.548   8.771 -0.7390  0.0739  0.3442
 4068SOL    HW112782   7.851   6.481   8.811  1.0683  1.7877  0.8100
 4068SOL    HW212783   7.853   6.598   8.715 -2.1575  0.9939 -0.3581
 4069SOL     OW12784   2.611   5.132   6.061  0.3854  0.6976  0.4372
 4069SOL    HW112785   2.637   5.198   6.125  1.0591 -1.0150  1.9999
 4069SOL    HW212786   2.644   5.050   6.096 -3.0313 -0.9806  0.1558
 4070SOL     OW12787   6.948   5.912   7.572 -0.0843 -0.3145  0.5339
 4070SOL    HW112788   6.883   5.957   7.518 -0.5612 -0.2657  1.1302
 4070SOL    HW212789   6.908   5.827   7.591 -0.6504  0.2543  2.1120
 4071SOL     OW12790   6.332   6.628   8.095 -0.3073  0.4934 -0.3720
 4071SOL    HW112791   6.291   6.551   8.056 -0.3017  0.5478 -0.4850
 4071SOL    HW212792   6.376   6.672   8.022  0.4965  0.0953 -0.1492
 4072SOL     OW12793   2.069   6.983   1.242  0.2228 -0.3084  0.0113
 4072SOL    HW112794   1.977   6.958   1.232 -0.5140  0.9077  2.7334
 4072SOL    HW212795   2.112   6.902   1.271 -0.2193 -0.6296 -0.2191
 4073SOL     OW12796   8.281   0.900   4.717  0.8032  0.7120 -0.3423
 4073SOL    HW112797   8.375   0.918   4.724  0.7801  0.5096  0.7434
 4073SOL    HW212798   8.245   0.928   4.802 -0.2450  1.4933 -1.0080
 4074SOL     OW12799   8.260   9.649   3.878 -0.1207 -0.1751 -0.2879
 4074SOL    HW112800   8.325   9.609   3.820  0.0042 -1.4147  0.6541
 4074SOL    HW212801   8.194   9.581   3.890 -1.6849  1.0820 -1.2932
 4075SOL     OW12802   6.119   8.876   6.894 -0.4526  0.1337 -0.0453
 4075SOL    HW112803   6.136   8.955   6.842  2.0919 -1.0096 -1.0836
 4075SOL    HW212804   6.029   8.851   6.871 -0.7271  1.8037 -0.9343
 4076SOL     OW12805   9.248   5.621   3.605  0.3183  0.1026 -0.1723
 4076SOL    HW112806   9.246   5.595   3.513 -0.5250 -2.1288  0.4085
 4076SOL    HW212807   9.171   5.579   3.644  0.4607  1.2532  1.5083
 4077SOL     OW12808   8.928   2.416   8.824  0.0023 -0.1631  0.4567
 4077SOL    HW112809   8.974   2.334   8.842 -1.2588 -1.2799 -1.1117
 4077SOL    HW212810   8.871   2.429   8.900 -0.5050 -1.2958  0.2880
 4078SOL     OW12811   8.271   4.307   3.157  0.1669 -0.3960  0.0376
 4078SOL    HW112812   8.289   4.294   3.064 -0.7349 -0.3522 -0.1491
 4078SOL    HW212813   8.236   4.396   3.162 -0.2035 -0.5607  0.3591
 4079SOL     OW12814   8.612   2.230   0.849  0.5561  0.4376 -0.4679
 4079SOL    HW112815   8.523   2.247   0.817 -0.9029  0.4225  3.1794
 4079SOL    HW212816   8.630   2.301   0.910  2.8710  0.0900 -0.6517
 4080SOL     OW12817   2.049   4.238   0.472  0.2508  0.0672 -0.8381
 4080SOL    HW112818   1.965   4.254   0.428 -0.0825 -0.6471 -0.4819
 4080SOL    HW212819   2.025   4.215   0.562  0.7576 -1.1746 -0.9984
 4081SOL     OW12820   0.236   3.233   1.895 -0.3828  0.3020  0.3271
 4081SOL    HW112821   0.194   3.220   1.980  1.2334 -0.6184  1.0464
 4081SOL    HW212822   0.191   3.308   1.856 -0.8695  1.0204  2.1933
 4082SOL     OW12823   4.651   1.024   7.347  0.7815 -0.5557  0.3818
 4082SOL    HW112824   4.616   1.113   7.354  2.4511  0.3561 -1.7444
 4082SOL    HW212825   4.741   1.031   7.377  1.0543 -1.4345 -0.1838
 4083SOL     OW12826   5.534   0.318   6.759 -0.0222  0.3232  0.0271
 4083SOL    HW112827   5.619   0.283   6.733 -0.2190  0.4928 -0.8641
 4083SOL    HW212828   5.472   0.247   6.740 -0.2361  0.6362 -0.4668
 4084SOL     OW12829   3.399   1.469   6.493  0.0054  0.8844  0.3046
 4084SOL    HW112830   3.390   1.563   6.474  1.4819  0.9729 -0.0693
 4084SOL    HW212831   3.472   1.465   6.555 -0.4616  0.0213  0.8121
 4085SOL     OW12832   7.462   0.853   8.909  0.1003 -0.3481  0.1508
 4085SOL    HW112833   7.450   0.771   8.958  1.3184  0.1078  1.2836
 4085SOL    HW212834   7.421   0.836   8.825  3.2616 -3.4727 -1.0366
 4086SOL     OW12835   1.802   3.932   2.538 -0.1215  0.1232  0.6301
 4086SOL    HW112836   1.862   4.007   2.540 -1.5190  1.2930  0.5208
 4086SOL    HW212837   1.720   3.968   2.504 -0.8510 -1.4591  0.6253
 4087SOL     OW12838   0.359   9.936   8.951  0.6677  0.2752 -0.2682
 4087SOL    HW112839   0.303   9.926   9.029 -0.0622 -0.7698 -0.8935
 4087SOL    HW212840   0.327   9.868   8.891  1.6175  0.6776 -1.2436
 4088SOL     OW12841   0.675   8.429   4.926  0.5867 -0.1986 -0.2948
 4088SOL    HW112842   0.649   8.507   4.975  1.0393  0.0069 -0.3744
 4088SOL    HW212843   0.599   8.408   4.872  1.2616  1.5911 -2.0443
 4089SOL     OW12844   6.829   4.237   0.916  0.5446 -0.0901  0.4671
 4089SOL    HW112845   6.909   4.199   0.952  0.8360  0.7987  0.7649
 4089SOL    HW212846   6.819   4.321   0.960  0.5938  0.7731 -1.0706
 4090SOL     OW12847   2.802   8.221   5.053  0.0710 -0.2390 -0.1534
 4090SOL    HW112848   2.851   8.226   4.971  1.8116  2.3990  0.9125
 4090SOL    HW212849   2.865   8.188   5.117 -0.8447 -0.8861  0.4496
 4091SOL     OW12850   1.915   9.416   3.743 -0.2881 -0.2645 -0.3405
 4091SOL    HW112851   1.845   9.451   3.799  0.6405 -0.1774  0.8051
 4091SOL    HW212852   1.991   9.410   3.801  0.6013 -0.5663 -1.5042
 4092SOL     OW12853   3.032   9.652   3.133 -0.2271  0.1952  0.2235
 4092SOL    HW112854   2.982   9.669   3.213 -1.7496 -0.0370 -0.6414
 4092SOL    HW212855   3.039   9.557   3.129 -0.7603  0.1659 -0.2458
 4093SOL     OW12856   2.787   8.848   5.210  0.2776  0.5570  0.3201
 4093SOL    HW112857   2.709   8.816   5.255  0.3298  0.0254  0.0433
 4093SOL    HW212858   2.772   8.827   5.117  1.3267 -0.7939  0.4233
 4094SOL     OW12859   7.627   4.078   9.892  0.3082 -0.3256  0.0271
 4094SOL    HW112860   7.648   4.161   9.849  0.8502 -0.6270 -0.3195
 4094SOL    HW212861   7.545   4.094   9.938  0.7153  0.5809  0.4710
 4095SOL     OW12862   1.216   9.102   5.332  0.3248  0.2707 -0.1060
 4095SOL    HW112863   1.257   9.043   5.395 -3.4290 -1.4734  0.9949
 4095SOL    HW212864   1.182   9.045   5.264 -3.9157  0.7649  1.2570
 4096SOL     OW12865   9.702   7.003   4.209  0.1375 -0.1904 -0.2386
 4096SOL    HW112866   9.733   7.051   4.131  0.3830  0.6749  0.3734
 4096SOL    HW212867   9.647   6.933   4.173 -1.2022  1.2392 -1.1456
 4097SOL     OW12868   5.183   2.631   9.538 -0.1063  0.2554  0.7907
 4097SOL    HW112869   5.201   2.693   9.609  0.2287  0.8998  0.1508
 4097SOL    HW212870   5.268   2.594   9.516 -0.3691 -0.8056  1.4942
 4098SOL     OW12871   1.552   5.276   7.252 -0.0787  0.4217 -0.0192
 4098SOL    HW112872   1.472   5.326   7.267 -0.5886 -0.4653  0.3417
 4098SOL    HW212873   1.531   5.188   7.284  2.0484  0.8905  3.1627
 4099SOL     OW12874   5.721   1.494   3.154 -0.1867  0.5349  0.0458
 4099SOL    HW112875   5.686   1.544   3.081 -0.0763 -0.6677 -0.8659
 4099SOL    HW212876   5.645   1.445   3.187  0.0557  0.0029 -0.1794
 4100SOL     OW12877   6.671   0.875   1.392 -0.1446 -0.0184 -0.0800
 4100SOL    HW112878   6.678   0.897   1.485 -2.8435  2.1080 -0.2597
 4100SOL    HW212879   6.724   0.941   1.348  0.5107 -0.5681 -0.1451
 4101SOL     OW12880   8.555   1.111   1.545  0.1525 -0.1045 -0.4273
 4101SOL    HW112881   8.587   1.049   1.611  1.7889  0.3497 -0.7525
 4101SOL    HW212882   8.620   1.181   1.545  1.5466 -1.1741 -4.1103
 4102SOL     OW12883   0.373   0.856   7.282  0.1976  0.2191  0.0589
 4102SOL    HW112884   0.314   0.926   7.253  1.5671  2.3260  2.0642
 4102SOL    HW212885   0.424   0.895   7.353  1.4612 -2.6660  0.8763
 4103SOL     OW12886   1.863   0.093   1.800  0.1757  0.1118 -0.2782
 4103SOL    HW112887   1.894   0.062   1.714 -2.3128  0.5685 -1.4078
 4103SOL    HW212888   1.889   0.185   1.803 -1.0851  0.5162 -1.2475
 4104SOL     OW12889   3.428   5.563   7.033 -0.3184  0.7926 -0.5883
 4104SOL    HW112890   3.340   5.528   7.049 -0.3563  1.5051  0.9721
 4104SOL    HW212891   3.471   5.496   6.979 -1.5072 -0.0054 -0.5908
 4105SOL     OW12892   8.109   3.417   6.278  0.1422  0.0708  0.1834
 4105SOL    HW112893   8.136   3.433   6.187  0.8204  2.0722  0.6756
 4105SOL    HW212894   8.093   3.323   6.282  2.0400 -0.4038 -1.5120
 4106SOL     OW12895   2.738   1.974   2.365  0.1465 -0.0157  0.1325
 4106SOL    HW112896   2.826   1.941   2.350  0.2155  0.5477 -0.7828
 4106SOL    HW212897   2.681   1.917   2.313  0.0243 -0.0716  0.3257
 4107SOL     OW12898   2.964   7.399   9.924  0.5153 -0.2198  0.1067
 4107SOL    HW112899   3.025   7.334   9.961 -0.1278  0.0187  1.6749
 4107SOL    HW212900   3.021   7.462   9.881  1.2343 -1.1422 -0.3474
 4108SOL     OW12901   2.613   8.663   3.481 -0.2706  0.2906 -0.1005
 4108SOL    HW112902   2.618   8.757   3.461 -0.8320  0.7120  1.5823
 4108SOL    HW212903   2.596   8.660   3.575 -0.4895 -1.5100 -0.1781
 4109SOL     OW12904   3.484   4.758   3.401  0.6315  0.4229  0.2110
 4109SOL    HW112905   3.432   4.683   3.371 -0.1666  0.7583  0.7063
 4109SOL    HW212906   3.461   4.766   3.494 -0.1022  1.9091 -0.0747
 4110SOL     OW12907   8.978   6.135   9.379 -0.1889  0.2286  0.4890
 4110SOL    HW112908   9.012   6.153   9.292  0.7182  1.1746  1.0169
 4110SOL    HW212909   8.891   6.176   9.380 -0.0313  0.5748  0.1625
 4111SOL     OW12910   3.418   0.320   9.616  0.4540  0.1951  0.1653
 4111SOL    HW112911   3.442   0.404   9.576  0.2568  0.5620  0.7908
 4111SOL    HW212912   3.485   0.306   9.683 -1.6343  1.8710  2.8290
 4112SOL     OW12913   5.630   8.458   6.346  0.3379 -0.3503  0.5827
 4112SOL    HW112914   5.669   8.403   6.278  0.2394 -0.5960  0.7258
 4112SOL    HW212915   5.577   8.398   6.398  0.1689 -0.1042  0.6911
 4113SOL     OW12916   6.894   9.943   6.918 -0.2924  0.1706 -0.3195
 4113SOL    HW112917   6.936   9.987   6.844  1.4917 -0.6296  0.1605
 4113SOL    HW212918   6.920   9.851   6.909 -1.6012 -0.2840  0.2742
 4114SOL     OW12919   6.348   8.650   3.886  0.0064 -0.1609 -0.8883
 4114SOL    HW112920   6.430   8.699   3.886  0.4398 -0.8412  0.6151
 4114SOL    HW212921   6.288   8.704   3.938 -0.2318 -0.1102 -1.2100
 4115SOL     OW12922   0.666   5.763   2.708  0.0291 -0.5601 -0.0739
 4115SOL    HW112923   0.760   5.776   2.718 -0.0264 -0.5880  0.5372
 4115SOL    HW212924   0.628   5.804   2.786 -0.5232  0.0940 -0.6805
 4116SOL     OW12925   0.040   8.801   8.741  0.5070  0.3166  0.9489
 4116SOL    HW112926  -0.054   8.786   8.746 -0.0839  3.2612  0.2510
 4116SOL    HW212927   0.058   8.812   8.648  1.3325  0.9052  1.1686
 4117SOL     OW12928   9.663   2.388   8.450 -0.3213 -0.1243 -0.2901
 4117SOL    HW112929   9.629   2.352   8.532 -0.7285  1.4224  0.2522
 4117SOL    HW212930   9.604   2.355   8.382 -0.2240 -1.0827  0.0771
 4118SOL     OW12931   6.610   3.163   2.892 -0.8551  0.0194 -0.0089
 4118SOL    HW112932   6.608   3.249   2.934 -0.9786 -0.4012  0.8724
 4118SOL    HW212933   6.592   3.181   2.800  1.0250  1.1582 -0.2263
 4119SOL     OW12934   3.670   2.801   6.698  0.1709 -0.8283  0.0978
 4119SOL    HW112935   3.584   2.840   6.686  0.2657 -0.7945 -0.4670
 4119SOL    HW212936   3.724   2.840   6.630  0.6114 -0.9224  0.3875
 4120SOL     OW12937   5.520   3.025   6.232 -0.2360  0.6995 -0.6865
 4120SOL    HW112938   5.481   3.069   6.156 -2.0414  0.9381  0.3026
 4120SOL    HW212939   5.444   2.996   6.284  0.9282  0.3446  0.9030
 4121SOL     OW12940   6.096   4.933   9.281 -0.0350 -0.0432  0.3876
 4121SOL    HW112941   6.076   5.007   9.337 -0.8881 -0.2052  0.3069
 4121SOL    HW212942   6.111   4.860   9.341  1.6886  0.3615  0.5154
 4122SOL     OW12943   4.470   7.404   7.014 -0.1827  0.3747  0.3981
 4122SOL    HW112944   4.386   7.441   6.987  0.0266  1.7454  1.5618
 4122SOL    HW212945   4.460   7.310   6.999 -1.4682  0.6508 -0.6553
 4123SOL     OW12946   7.969   2.823   6.339 -0.0233 -0.0524  0.0870
 4123SOL    HW112947   7.917   2.744   6.324  0.0100 -0.2577  0.9911
 4123SOL    HW212948   8.043   2.794   6.393 -0.4986  0.7529  1.2080
 4124SOL     OW12949   0.421   2.524   4.774  0.2645  0.2244 -0.0739
 4124SOL    HW112950   0.463   2.503   4.691 -0.5994 -1.5170 -0.1091
 4124SOL    HW212951   0.483   2.493   4.841  0.2553  0.1640 -0.0933
 4125SOL     OW12952   7.028   0.509   4.040  0.0736  0.6476  0.4005
 4125SOL    HW112953   6.961   0.484   4.103  0.7097  0.8128  1.1483
 4125SOL    HW212954   7.104   0.457   4.062  0.2873  0.6607 -0.2737
 4126SOL     OW12955   8.214   8.371   4.942 -0.1424 -1.0792  0.0040
 4126SOL    HW112956   8.220   8.309   4.869  0.7123  0.2024 -1.0532
 4126SOL    HW212957   8.274   8.335   5.008 -0.9294 -2.2531  0.1205
 4127SOL     OW12958   1.901   0.814   2.033 -0.4834  0.4645 -0.0433
 4127SOL    HW112959   1.984   0.796   2.077 -0.1562  0.1041 -0.8038
 4127SOL    HW212960   1.917   0.893   1.982 -0.1746 -0.3564 -1.2701
 4128SOL     OW12961   8.649   7.204   4.231 -0.0075 -0.0562  0.4931
 4128SOL    HW112962   8.622   7.291   4.258  0.3199 -0.3316  1.7534
 4128SOL    HW212963   8.739   7.215   4.199 -0.0124  0.0824  0.5277
 4129SOL     OW12964   0.054   2.086   4.225  0.1924 -0.6243  0.3079
 4129SOL    HW112965   0.113   2.011   4.222 -0.8014 -1.4559  0.8597
 4129SOL    HW212966   0.073   2.128   4.309  0.0695 -0.8348  0.4408
 4130SOL     OW12967   3.740   8.794   2.693  0.2448 -0.2333 -0.9130
 4130SOL    HW112968   3.739   8.700   2.673 -1.7235 -0.3831 -0.3084
 4130SOL    HW212969   3.764   8.836   2.610 -0.2974 -1.2157 -1.5928
 4131SOL     OW12970   2.941   7.178   0.503 -0.2083  0.1693  0.3467
 4131SOL    HW112971   2.918   7.255   0.554  0.2459 -0.4261  1.5008
 4131SOL    HW212972   2.887   7.108   0.540 -1.1092  0.0433 -1.1252
 4132SOL     OW12973   3.422   6.265   7.388  0.0046  0.3600  0.1985
 4132SOL    HW112974   3.360   6.332   7.416 -0.7714 -1.6779  4.0346
 4132SOL    HW212975   3.367   6.190   7.364  0.8436 -0.6591  1.3066
 4133SOL     OW12976   9.082   3.823   9.031  0.1717 -0.0375  0.2225
 4133SOL    HW112977   9.094   3.881   9.106  0.4013 -0.8200  0.7934
 4133SOL    HW212978   8.999   3.778   9.046 -1.3547  1.9848 -1.4876
 4134SOL     OW12979   0.373   9.299   4.478 -0.1536  0.6184  0.5400
 4134SOL    HW112980   0.343   9.384   4.444  0.2097  0.0490 -1.3445
 4134SOL    HW212981   0.301   9.239   4.457 -0.2960  0.3919  1.6259
 4135SOL     OW12982   7.718   1.904   0.320 -0.6039 -0.3571  0.2957
 4135SOL    HW112983   7.729   1.836   0.386  1.5984 -0.5901 -0.2183
 4135SOL    HW212984   7.690   1.858   0.241 -1.2916 -0.3551  0.5390
 4136SOL     OW12985   3.997   1.796   3.574 -0.4343  0.4499  0.5625
 4136SOL    HW112986   3.929   1.863   3.574  1.2943  2.3355 -0.8773
 4136SOL    HW212987   4.052   1.817   3.649 -0.3560  0.1480  0.5910
 4137SOL     OW12988   0.859   7.054   1.465  0.0075  0.6020 -0.0435
 4137SOL    HW112989   0.906   7.128   1.426  0.9901 -0.3958 -0.8207
 4137SOL    HW212990   0.859   6.987   1.396 -0.0510 -0.4525  0.9603
 4138SOL     OW12991   7.832   1.608   2.476  0.1001  0.0215  0.1777
 4138SOL    HW112992   7.749   1.565   2.497 -1.3049  1.5508 -1.8192
 4138SOL    HW212993   7.863   1.641   2.560  0.2879 -3.0819  1.4586
 4139SOL     OW12994   2.591   2.656   4.873 -0.0761  0.1507  0.0412
 4139SOL    HW112995   2.510   2.694   4.840  0.8544  1.0218 -1.3594
 4139SOL    HW212996   2.657   2.725   4.860  0.5343  0.2931  3.1395
 4140SOL     OW12997   1.953   3.469   6.471 -0.0603  0.2458 -0.2308
 4140SOL    HW112998   1.932   3.381   6.439 -0.8268  0.9968 -1.9007
 4140SOL    HW212999   1.979   3.518   6.393  1.6160  1.1866  0.8486
 4141SOL     OW13000   0.215   8.818   3.999  0.4728 -0.1458  0.1364
 4141SOL    HW113001   0.174   8.772   4.072 -0.0409 -0.1994 -0.1816
 4141SOL    HW213002   0.301   8.844   4.032 -0.1266  0.7048  1.1112
 4142SOL     OW13003   8.674   7.214   7.042  0.6362  0.8374  0.3268
 4142SOL    HW113004   8.761   7.248   7.061  0.3688  0.5755  2.1481
 4142SOL    HW213005   8.645   7.264   6.965  2.3167  1.0099 -0.2332
 4143SOL     OW13006   7.511   2.229   6.855  0.1029 -0.0234  0.3724
 4143SOL    HW113007   7.586   2.267   6.810  1.5941 -0.6994  2.1996
 4143SOL    HW213008   7.470   2.172   6.789  0.0139  1.7648 -1.2257
 4144SOL     OW13009   3.507   0.652   1.725 -0.0179  0.0562 -0.5560
 4144SOL    HW113010   3.560   0.614   1.655 -0.5283  0.4268 -1.1437
 4144SOL    HW213011   3.474   0.734   1.689  0.9700  1.0388  0.6546
 4145SOL     OW13012   2.496   3.024   6.438 -0.0736  0.1694 -0.0909
 4145SOL    HW113013   2.491   2.929   6.431 -0.0524  0.2204 -1.0248
 4145SOL    HW213014   2.526   3.040   6.527  0.3693 -0.7171 -0.0659
 4146SOL     OW13015   0.065   0.710   3.684 -0.0067  0.3309  0.5199
 4146SOL    HW113016   0.134   0.705   3.618 -1.3767 -0.7101 -0.9132
 4146SOL    HW213017   0.109   0.688   3.766  1.5063  0.4355 -0.2280
 4147SOL     OW13018   5.007   0.955   7.366 -0.2824 -0.5196 -0.2649
 4147SOL    HW113019   4.947   0.881   7.377  1.8209 -1.9964  2.0398
 4147SOL    HW213020   5.023   0.958   7.271 -2.9212 -0.8581 -0.8069
 4148SOL     OW13021   4.362   1.137   7.996  0.5333  0.2232 -1.0776
 4148SOL    HW113022   4.296   1.206   8.003  0.9732  0.5019  1.3823
 4148SOL    HW213023   4.445   1.181   8.010  0.8660 -0.6982  0.0576
 4149SOL     OW13024   7.011   4.328   7.729  0.3315  0.0136 -0.2405
 4149SOL    HW113025   7.032   4.240   7.761  0.9639  0.5152  0.8033
 4149SOL    HW213026   7.034   4.386   7.802 -1.3300  0.9447 -0.3990
 4150SOL     OW13027   0.185   3.828   8.362  0.0022 -0.5958  0.1574
 4150SOL    HW113028   0.220   3.739   8.367  0.2547 -0.4584  0.9198
 4150SOL    HW213029   0.113   3.822   8.299  0.1539 -1.2924  0.0460
 4151SOL     OW13030   0.365   1.849   9.075  0.0367  0.5372 -0.8369
 4151SOL    HW113031   0.333   1.934   9.045 -0.1960  0.2931 -1.2898
 4151SOL    HW213032   0.288   1.804   9.108  0.5324  1.4324  1.7369
 4152SOL     OW13033   7.003   2.908   7.103  0.3218 -0.0934  0.0282
 4152SOL    HW113034   7.021   2.821   7.137 -0.1633  0.9175  3.1064
 4152SOL    HW213035   6.910   2.906   7.079 -0.0918 -0.0108  1.5560
 4153SOL     OW13036   5.884   8.138   3.074 -0.5122 -0.0371  0.3902
 4153SOL    HW113037   5.791   8.154   3.092 -1.2676  0.0588 -2.8241
 4153SOL    HW213038   5.884   8.078   2.999  1.9914  0.5052 -0.1534
 4154SOL     OW13039   2.493   4.339   0.497 -0.2234 -0.1629  0.4535
 4154SOL    HW113040   2.498   4.356   0.403 -1.2286  0.3175  0.4799
 4154SOL    HW213041   2.562   4.274   0.513  0.0840 -0.1108 -0.5733
 4155SOL     OW13042   2.407   3.758   1.965  0.1751  0.2735  0.5527
 4155SOL    HW113043   2.408   3.775   2.059 -1.0244 -2.2564  1.0950
 4155SOL    HW213044   2.475   3.693   1.951 -0.8420 -0.7108  0.0133
 4156SOL     OW13045   9.624   1.264   8.102 -0.7943  0.1640  0.1138
 4156SOL    HW113046   9.695   1.199   8.101 -0.6524  0.3176 -0.8798
 4156SOL    HW213047   9.545   1.214   8.085 -1.0697 -0.1358  2.0570
 4157SOL     OW13048   6.503   9.279   5.808  0.0536 -0.0414 -0.1114
 4157SOL    HW113049   6.562   9.294   5.882 -0.9976 -0.7929  0.9092
 4157SOL    HW213050   6.416   9.278   5.847 -0.7070  1.4046 -1.6363
 4158SOL     OW13051   9.956   8.397   6.772  0.0115  0.1135 -0.2129
 4158SOL    HW113052   9.876   8.423   6.818 -1.4076 -1.0573 -1.8582
 4158SOL    HW213053   9.992   8.326   6.825 -1.3911 -0.9615 -0.6301
 4159SOL     OW13054   5.799   2.143   6.937 -0.0613 -0.7128 -0.2836
 4159SOL    HW113055   5.752   2.214   6.894 -0.2753 -0.1087  0.9199
 4159SOL    HW213056   5.768   2.063   6.893 -2.0866 -0.3308  0.3438
 4160SOL     OW13057   3.462   2.988   5.766 -0.8335 -0.3091 -0.4234
 4160SOL    HW113058   3.540   2.940   5.738 -0.6721  0.2083 -0.8730
 4160SOL    HW213059   3.394   2.959   5.705 -0.5202  0.6973 -1.2784
 4161SOL     OW13060   9.412   3.630   9.295  0.1285 -0.1573 -0.0491
 4161SOL    HW113061   9.491   3.630   9.349  1.0508 -0.0364 -1.3410
 4161SOL    HW213062   9.431   3.692   9.224 -0.2058 -1.7587 -1.6321
 4162SOL     OW13063   1.898   5.192   6.788 -0.0139 -0.0441  0.1928
 4162SOL    HW113064   1.965   5.258   6.809  1.6820 -1.2379 -1.1009
 4162SOL    HW213065   1.853   5.227   6.711 -0.0888  0.2474  0.3687
 4163SOL     OW13066   2.647   0.864   1.823  0.0539 -0.2663 -0.2447
 4163SOL    HW113067   2.737   0.894   1.811 -0.4497  0.5584 -2.5200
 4163SOL    HW213068   2.616   0.846   1.734 -1.9467 -0.8079  0.5087
 4164SOL     OW13069   9.285   0.259   2.697  0.0593  0.1550 -0.1898
 4164SOL    HW113070   9.306   0.333   2.640  1.1245 -0.5327 -0.7215
 4164SOL    HW213071   9.212   0.215   2.653  0.5523 -0.0853 -0.7970
 4165SOL     OW13072   2.785   8.218   5.392 -0.0155 -0.4662  0.0102
 4165SOL    HW113073   2.714   8.155   5.405 -0.7547  0.2086 -0.6829
 4165SOL    HW213074   2.853   8.168   5.347  0.0682 -1.1786  0.8747
 4166SOL     OW13075   7.635   4.911   0.885 -0.1988  0.3686  0.1166
 4166SOL    HW113076   7.551   4.925   0.928 -2.0261  0.2931 -3.1061
 4166SOL    HW213077   7.620   4.835   0.828  1.5655  1.2840 -1.6882
 4167SOL     OW13078   6.684   9.701   9.486 -0.7250 -0.1802  0.2231
 4167SOL    HW113079   6.670   9.779   9.432 -2.0230 -0.8653 -0.4887
 4167SOL    HW213080   6.777   9.682   9.478 -0.4776  1.0322  0.0571
 4168SOL     OW13081   4.736   6.523   5.312  0.2674  0.4012  0.3330
 4168SOL    HW113082   4.669   6.588   5.293  1.2845  1.8666  1.5865
 4168SOL    HW213083   4.689   6.453   5.358 -0.6255  0.7357 -0.0474
 4169SOL     OW13084   1.425   2.962   9.351 -0.2701 -0.0792 -0.0491
 4169SOL    HW113085   1.341   2.968   9.305  0.3511 -0.4517 -1.2814
 4169SOL    HW213086   1.484   3.019   9.301  0.6847 -1.2852 -0.3491
 4170SOL     OW13087   2.621   5.504   2.081 -0.4618  0.1772  0.2897
 4170SOL    HW113088   2.660   5.588   2.059  2.9773 -0.9355  1.4331
 4170SOL    HW213089   2.593   5.468   1.997  2.2263  0.6117 -0.9010
 4171SOL     OW13090   5.596   9.714   0.740 -0.1360  0.1602 -0.2587
 4171SOL    HW113091   5.672   9.730   0.796  0.7600 -1.3635 -0.9983
 4171SOL    HW213092   5.592   9.792   0.684 -1.2918  1.9149  2.0848
 4172SOL     OW13093   0.379   4.411   5.327 -0.5350 -0.2926 -0.6104
 4172SOL    HW113094   0.302   4.384   5.377  0.0793 -0.7234  0.1286
 4172SOL    HW213095   0.348   4.418   5.237 -1.0244 -2.2667 -0.6310
 4173SOL     OW13096   3.102   8.134   9.676  0.2853  0.0917  0.0901
 4173SOL    HW113097   3.141   8.174   9.754 -0.8749 -0.1115  0.7952
 4173SOL    HW213098   3.128   8.191   9.604  1.4798  0.2151  0.5993
 4174SOL     OW13099   6.402   8.173   8.910  0.2283  0.2223  0.3588
 4174SOL    HW113100   6.323   8.132   8.947 -0.0467  0.1360 -0.3124
 4174SOL    HW213101   6.426   8.117   8.836 -0.4673  1.5318 -0.9114
 4175SOL     OW13102   6.593   5.095   8.053  0.5355  0.2404 -0.2052
 4175SOL    HW113103   6.525   5.033   8.082 -0.6648  0.2956 -2.6294
 4175SOL    HW213104   6.580   5.172   8.109 -1.2119  0.1187 -0.3839
 4176SOL     OW13105   9.108   4.525   7.041  0.1385  0.1757 -0.2092
 4176SOL    HW113106   9.188   4.483   7.010 -0.1131 -0.2846 -0.2567
 4176SOL    HW213107   9.136   4.583   7.111  0.4207 -0.6191  0.3595
 4177SOL     OW13108   5.477   5.984   8.267 -0.2978  0.1708 -0.0621
 4177SOL    HW113109   5.482   5.940   8.352  0.3963 -0.3843 -0.3749
 4177SOL    HW213110   5.552   6.044   8.267 -0.3203  0.1997 -0.2634
 4178SOL     OW13111   6.615   3.974   2.091  0.6917  0.1514 -0.1248
 4178SOL    HW113112   6.639   3.881   2.093  2.1985  0.5270  0.0407
 4178SOL    HW213113   6.639   4.007   2.178  0.3671  0.7581 -0.2585
 4179SOL     OW13114   7.974   3.054   7.847  0.6592  0.1035 -0.0896
 4179SOL    HW113115   7.879   3.046   7.838  0.6030  0.4121  0.2342
 4179SOL    HW213116   8.003   3.086   7.761  0.2662  1.7544  0.3657
 4180SOL     OW13117   5.724   6.872   8.703 -0.8067 -0.1798 -0.1713
 4180SOL    HW113118   5.778   6.809   8.655 -1.4868  0.0748 -1.2953
 4180SOL    HW213119   5.636   6.834   8.703 -1.2670  0.8229 -1.0257
 4181SOL     OW13120   5.155   2.015   3.692 -0.2047  0.3940  0.6638
 4181SOL    HW113121   5.077   1.998   3.745 -0.7258  0.2474 -0.1426
 4181SOL    HW213122   5.228   1.981   3.746 -0.7909 -0.4056  0.9788
 4182SOL     OW13123   9.587   3.740   4.936 -0.3645  0.5978  0.0433
 4182SOL    HW113124   9.675   3.764   4.907  0.1287 -0.9240  0.2042
 4182SOL    HW213125   9.590   3.749   5.031 -0.5362  0.9952  0.0141
 4183SOL     OW13126   4.551   0.492   8.769  0.6355 -0.2345  0.1407
 4183SOL    HW113127   4.494   0.545   8.714 -0.6486 -1.2038  0.4832
 4183SOL    HW213128   4.567   0.546   8.846 -2.1684 -0.9245  1.3453
 4184SOL     OW13129   2.066   7.882   1.414  0.3088 -0.1815 -0.2226
 4184SOL    HW113130   2.115   7.864   1.494  0.8461  1.5951 -0.1098
 4184SOL    HW213131   1.989   7.932   1.443 -1.1879 -2.1801 -0.5004
 4185SOL     OW13132   2.849   6.423   0.556  0.1078  0.0174 -0.2148
 4185SOL    HW113133   2.791   6.499   0.546 -1.7534 -1.2197  0.6652
 4185SOL    HW213134   2.836   6.395   0.646  0.6386 -1.4638 -0.5745
 4186SOL     OW13135   7.201   8.420   2.864 -0.7920  0.2623 -0.2061
 4186SOL    HW113136   7.127   8.360   2.852  0.7477 -1.4081 -2.1780
 4186SOL    HW213137   7.210   8.464   2.780  1.7517 -1.2380 -0.8163
 4187SOL     OW13138   4.546   5.954   2.986  0.1879  0.3061 -0.0967
 4187SOL    HW113139   4.501   5.891   3.042  1.1208  0.2785  0.6673
 4187SOL    HW213140   4.595   6.009   3.048 -0.1724  1.4356 -0.7801
 4188SOL     OW13141   8.351   9.485   5.209  0.3419  0.0203  0.4851
 4188SOL    HW113142   8.418   9.470   5.142  0.3510  1.3055  0.1765
 4188SOL    HW213143   8.357   9.579   5.227 -0.0221 -0.2153  1.9123
 4189SOL     OW13144   4.668   4.401   2.294  0.0557 -0.0890  0.1335
 4189SOL    HW113145   4.737   4.385   2.358  0.2237 -1.3335 -0.3325
 4189SOL    HW213146   4.655   4.496   2.297  3.2300  0.5325 -1.2381
 4190SOL     OW13147   0.065   4.463   7.481  0.2155  0.3213  0.2109
 4190SOL    HW113148  -0.015   4.501   7.445  0.5134  0.9237  0.1829
 4190SOL    HW213149   0.099   4.407   7.411  0.1809  0.5955 -0.0239
 4191SOL     OW13150   2.201   0.605   2.448 -0.0729  0.5436 -0.8722
 4191SOL    HW113151   2.107   0.616   2.434 -0.1312 -0.3234 -1.1908
 4191SOL    HW213152   2.238   0.692   2.432 -1.0535  1.4661  1.4186
 4192SOL     OW13153   9.984   2.532   0.907  0.3545 -0.2277 -0.4904
 4192SOL    HW113154   9.976   2.462   0.841  1.4697  0.3936 -1.3150
 4192SOL    HW213155   9.948   2.493   0.987  2.5442 -2.4079 -0.4420
 4193SOL     OW13156   6.569   5.380   5.993 -0.6680 -0.2423  0.4753
 4193SOL    HW113157   6.543   5.368   5.902  2.0226  2.0631 -0.7550
 4193SOL    HW213158   6.508   5.446   6.027 -1.2774 -0.6362  0.1610
 4194SOL     OW13159   1.861   3.080   1.548 -0.1701  0.4989 -0.5745
 4194SOL    HW113160   1.838   3.000   1.501  0.6480  1.1371 -2.1583
 4194SOL    HW213161   1.779   3.128   1.556 -0.3218  0.4189 -1.4977
 4195SOL     OW13162   2.115   3.627   4.461 -0.8224 -0.0641 -0.0119
 4195SOL    HW113163   2.196   3.626   4.511 -1.8086  0.5293  1.7107
 4195SOL    HW213164   2.142   3.633   4.370  1.0558 -0.6551  0.4657
 4196SOL     OW13165   3.708   3.274   0.453 -0.1380  0.6030  0.2346
 4196SOL    HW113166   3.706   3.254   0.360  0.8903  2.2405 -0.1841
 4196SOL    HW213167   3.779   3.221   0.488 -0.2627  0.2883  0.0159
 4197SOL     OW13168   0.087   3.490   9.431  0.2796  0.2939 -0.3551
 4197SOL    HW113169   0.153   3.432   9.391  0.9840  0.2577  0.8176
 4197SOL    HW213170   0.013   3.432   9.450  0.6886 -0.0725  0.1349
 4198SOL     OW13171   6.388   9.616   0.890  0.1648 -0.4805 -0.1236
 4198SOL    HW113172   6.337   9.538   0.866 -1.5167  0.3774  0.5380
 4198SOL    HW213173   6.336   9.659   0.958  2.0889  0.1312  1.0200
 4199SOL     OW13174   3.900   2.068   7.536 -0.2786  0.2150  0.0818
 4199SOL    HW113175   3.962   2.118   7.484  0.4560  0.9397  1.5936
 4199SOL    HW213176   3.937   1.980   7.541  0.3994  0.5191  0.5657
 4200SOL     OW13177   5.846   1.592   0.996  0.0911  0.1033 -0.2959
 4200SOL    HW113178   5.812   1.681   0.990  0.5769  0.2321 -1.3572
 4200SOL    HW213179   5.935   1.597   0.961 -0.3092 -1.0305 -1.5619
 4201SOL     OW13180   5.007   9.800   2.460  0.3610 -0.8718  0.6439
 4201SOL    HW113181   4.950   9.731   2.494 -1.1006 -0.8855 -1.6436
 4201SOL    HW213182   4.953   9.847   2.397  2.5390 -0.1398 -0.7994
 4202SOL     OW13183   7.538   4.536   9.715  0.5224 -0.0156 -0.3158
 4202SOL    HW113184   7.553   4.625   9.746 -1.2437  0.0724  0.4419
 4202SOL    HW213185   7.476   4.546   9.643  0.1054 -0.6255 -0.0553
 4203SOL     OW13186   7.635   7.268   3.775  0.0855  0.4249  0.3416
 4203SOL    HW113187   7.633   7.197   3.711  0.6603  1.1254 -0.4729
 4203SOL    HW213188   7.657   7.225   3.858  0.7136 -0.3079 -0.1960
 4204SOL     OW13189   3.371   1.647   7.885  0.7021 -0.6912  0.3842
 4204SOL    HW113190   3.280   1.618   7.875  0.4778 -0.1426  0.7634
 4204SOL    HW213191   3.423   1.571   7.859  0.1817 -0.1132 -2.6977
 4205SOL     OW13192   1.708   3.197   5.583  0.1730  0.1100 -0.5722
 4205SOL    HW113193   1.728   3.248   5.504  1.0333  1.9952  0.7591
 4205SOL    HW213194   1.624   3.231   5.612  1.0178  1.2671  0.6407
 4206SOL     OW13195   5.678   3.271   7.297 -0.0452  0.1056 -0.1378
 4206SOL    HW113196   5.709   3.345   7.245  1.3563 -1.3577 -1.5102
 4206SOL    HW213197   5.758   3.236   7.338 -0.4482 -1.3922 -0.5650
 4207SOL     OW13198   5.828   7.488   7.107  0.5613 -0.2947 -0.6812
 4207SOL    HW113199   5.853   7.415   7.163  0.5535  0.5770  0.5180
 4207SOL    HW213200   5.782   7.448   7.034 -2.1161 -1.3307  1.4078
 4208SOL     OW13201   3.457   0.153   8.600  0.4063  0.1615 -0.4420
 4208SOL    HW113202   3.472   0.070   8.645  1.4767  0.9070  0.6348
 4208SOL    HW213203   3.505   0.218   8.651 -1.0491  1.5975 -0.7957
 4209SOL     OW13204   2.088   7.901   9.365 -0.2054 -0.0382 -0.5086
 4209SOL    HW113205   2.095   7.813   9.400 -2.5235  0.0419  0.2996
 4209SOL    HW213206   2.121   7.958   9.434 -0.0973 -0.1765 -0.4468
 4210SOL     OW13207   8.136   5.061   7.645  0.5088 -0.0799 -0.5002
 4210SOL    HW113208   8.051   5.105   7.637  1.7309  2.4170 -0.6634
 4210SOL    HW213209   8.131   5.015   7.729 -1.9775 -2.4514 -1.7685
 4211SOL     OW13210   0.243   9.711   5.605  0.0708 -0.5621 -0.0268
 4211SOL    HW113211   0.331   9.714   5.644  0.2898  1.2197 -0.5773
 4211SOL    HW213212   0.185   9.741   5.675  0.3220  1.4501 -0.6246
 4212SOL     OW13213   4.649   1.082   3.496 -0.0788  0.3897  0.5906
 4212SOL    HW113214   4.588   1.156   3.494 -2.3586 -1.3461  0.7813
 4212SOL    HW213215   4.630   1.038   3.579  1.5868 -0.1440  0.7175
 4213SOL     OW13216   6.896   5.685   0.900 -0.0607  0.4541  0.1481
 4213SOL    HW113217   6.828   5.621   0.918 -1.3872  1.7897  0.0986
 4213SOL    HW213218   6.954   5.642   0.837 -1.2884 -0.4307 -0.4111
 4214SOL     OW13219   2.864   6.842   1.583  0.7381  0.7702 -0.9599
 4214SOL    HW113220   2.933   6.794   1.629 -2.1219 -1.2005  1.6716
 4214SOL    HW213221   2.831   6.780   1.518 -0.1992  0.6786 -0.4232
 4215SOL     OW13222   4.003   7.305   4.651 -0.7729 -0.1731 -0.4956
 4215SOL    HW113223   4.063   7.244   4.608  1.1622  2.1916 -1.3027
 4215SOL    HW213224   4.026   7.301   4.743  0.2772  0.3034 -0.7266
 4216SOL     OW13225   9.538   1.582   9.031 -0.3716  0.1021  0.2205
 4216SOL    HW113226   9.541   1.622   8.944 -1.4325 -2.7202 -1.2486
 4216SOL    HW213227   9.628   1.585   9.062  0.0693  0.9645 -1.0580
 4217SOL     OW13228   8.744   0.924   0.228  0.2237 -0.5505  0.1090
 4217SOL    HW113229   8.804   0.851   0.211  0.7462  0.0811 -0.7768
 4217SOL    HW213230   8.754   0.941   0.322  0.1605 -1.5535  0.3104
 4218SOL     OW13231   0.388   8.264   9.821  0.3836  0.5628  0.2282
 4218SOL    HW113232   0.427   8.330   9.764  0.5481 -0.2698 -0.6618
 4218SOL    HW213233   0.458   8.200   9.835  0.1810  0.4910  0.9409
 4219SOL     OW13234   8.069   3.456   8.233 -0.0566  0.0496 -0.3525
 4219SOL    HW113235   8.008   3.431   8.301 -0.6500  0.3538 -0.7679
 4219SOL    HW213236   8.130   3.383   8.227  0.4745  0.3488  1.0315
 4220SOL     OW13237   2.180   2.626   1.465  0.6648 -0.0268  0.2305
 4220SOL    HW113238   2.192   2.612   1.558 -0.7060 -0.0404  0.4358
 4220SOL    HW213239   2.244   2.693   1.442  0.9096  0.0926  1.2164
 4221SOL     OW13240   2.471   4.932   0.065 -0.2041 -0.6788 -0.0818
 4221SOL    HW113241   2.517   5.009   0.033 -0.9280 -0.8319 -1.5782
 4221SOL    HW213242   2.521   4.905   0.143  0.2851  1.0412  0.2519
 4222SOL     OW13243   9.430   6.123   1.494  0.5869 -0.1608  0.1639
 4222SOL    HW113244   9.503   6.155   1.441  0.6426  0.1304  0.4138
 4222SOL    HW213245   9.461   6.131   1.584  1.3146 -2.6261  0.2052
 4223SOL     OW13246   5.146   9.757   2.711  0.4461  0.4655 -0.2014
 4223SOL    HW113247   5.210   9.818   2.748 -1.6820  1.1719  2.7208
 4223SOL    HW213248   5.112   9.801   2.634  0.9257  1.7155  0.2816
 4224SOL     OW13249   6.359   3.856   1.804 -0.0582  0.0685 -0.7646
 4224SOL    HW113250   6.355   3.812   1.719  0.1862 -0.4478 -0.5063
 4224SOL    HW213251   6.415   3.932   1.788  1.1917 -0.8242 -0.7097
 4225SOL     OW13252   9.818   8.778   7.774 -0.3781  0.0391  0.1990
 4225SOL    HW113253   9.822   8.856   7.830 -1.8138 -0.1069  0.5419
 4225SOL    HW213254   9.892   8.724   7.802  0.3282  1.0266  0.3096
 4226SOL     OW13255   6.439   9.588   1.246  0.4194 -0.5188  0.2961
 4226SOL    HW113256   6.367   9.647   1.223  1.8988  0.8771 -0.9589
 4226SOL    HW213257   6.462   9.612   1.336  0.6233  0.4498 -0.0015
 4227SOL     OW13258   0.817   5.923   4.778  0.1018 -0.7153 -0.5788
 4227SOL    HW113259   0.866   5.999   4.808 -0.7128 -0.6717  0.7189
 4227SOL    HW213260   0.822   5.927   4.683  2.8421 -0.8988 -0.5001
 4228SOL     OW13261   5.154   9.885   1.092 -0.2830 -0.5115  0.1841
 4228SOL    HW113262   5.119   9.930   1.169 -0.1377 -0.7505  0.3905
 4228SOL    HW213263   5.096   9.810   1.079 -0.4663 -0.3240 -0.1005
 4229SOL     OW13264   5.687   5.820   2.427  0.0325 -0.2274  0.0717
 4229SOL    HW113265   5.677   5.912   2.402 -0.1945 -0.5028 -0.9278
 4229SOL    HW213266   5.606   5.778   2.396  0.2756 -0.8150  0.2190
 4230SOL     OW13267   4.174   3.143   5.937  0.0253 -0.0846  0.4527
 4230SOL    HW113268   4.184   3.050   5.920 -0.3913 -0.0902  0.2296
 4230SOL    HW213269   4.161   3.182   5.850  2.4250  0.4839  0.2650
 4231SOL     OW13270   8.576   9.087   8.819  0.1089  0.1831  0.1678
 4231SOL    HW113271   8.593   9.162   8.762 -0.9077  1.3227  1.2957
 4231SOL    HW213272   8.497   9.046   8.782  0.1200  0.2258  0.0970
 4232SOL     OW13273   9.939   4.506   5.217  0.8447  0.5977  0.6863
 4232SOL    HW113274   9.903   4.591   5.244  0.2668  1.0636 -1.3900
 4232SOL    HW213275  10.033   4.523   5.205  0.3856  1.7347 -2.2091
 4233SOL     OW13276   9.844   1.319   3.544  0.2724 -0.3041  0.3634
 4233SOL    HW113277   9.796   1.254   3.595 -0.2668  0.4877  0.8717
 4233SOL    HW213278   9.924   1.335   3.594  0.2173 -0.2771  0.4431
 4234SOL     OW13279   0.868   8.883   2.847 -0.4545 -0.3125  0.2094
 4234SOL    HW113280   0.808   8.893   2.921 -1.4210  0.6320 -0.6640
 4234SOL    HW213281   0.914   8.967   2.842 -0.1315 -0.4994 -0.0470
 4235SOL     OW13282   9.585   7.307   3.920  0.5464 -0.3557  0.9826
 4235SOL    HW113283   9.657   7.357   3.958  0.2036  0.6995  0.3097
 4235SOL    HW213284   9.628   7.241   3.866  1.0634 -2.5067  3.8294
 4236SOL     OW13285   0.124   6.974   5.438 -0.1270  0.6557  0.4199
 4236SOL    HW113286   0.120   6.989   5.344  2.1606  1.7076  0.4201
 4236SOL    HW213287   0.190   6.905   5.449 -1.4095 -0.5260  1.2203
 4237SOL     OW13288   9.048   0.491   4.330 -0.2474 -0.4187  0.3198
 4237SOL    HW113289   8.962   0.497   4.371 -0.9481 -1.0720 -0.9892
 4237SOL    HW213290   9.096   0.427   4.384 -1.1889 -1.3662  0.0669
 4238SOL     OW13291   2.868   3.000   1.465 -0.0179 -0.0762 -0.9489
 4238SOL    HW113292   2.928   2.926   1.474 -0.9722 -0.6144  1.8296
 4238SOL    HW213293   2.907   3.070   1.517 -1.9197 -0.5840  1.2955
 4239SOL     OW13294   5.252   1.535   3.707 -0.1480 -0.3163 -0.4813
 4239SOL    HW113295   5.322   1.528   3.772  2.0847 -2.3149 -2.8482
 4239SOL    HW213296   5.257   1.625   3.675  2.7952 -0.8449 -1.8939
 4240SOL     OW13297   3.353   1.806   5.610  0.2605  0.2174  0.1876
 4240SOL    HW113298   3.277   1.813   5.553  0.2726  1.0207  0.2514
 4240SOL    HW213299   3.428   1.803   5.551  0.1443 -2.0587  0.0584
 4241SOL     OW13300   5.454   3.074   6.998  0.0414 -0.1410 -0.1306
 4241SOL    HW113301   5.449   3.050   7.090  0.4292  0.7316  0.1249
 4241SOL    HW213302   5.445   2.991   6.951 -2.8115 -0.3578  0.5885
 4242SOL     OW13303   1.420   8.765   9.524  0.2422 -0.4368  0.5177
 4242SOL    HW113304   1.414   8.843   9.470  1.8857  0.6816  1.8377
 4242SOL    HW213305   1.488   8.712   9.482  0.9572  0.0710  0.9937
 4243SOL     OW13306   7.055   7.956   1.704  0.4784 -0.4231 -0.0630
 4243SOL    HW113307   7.112   7.879   1.698 -0.2119 -0.8321 -2.1134
 4243SOL    HW213308   7.014   7.962   1.618 -0.0035  1.8681  0.2740
 4244SOL     OW13309   8.607   0.388   5.428  0.2751  0.1353 -0.3574
 4244SOL    HW113310   8.696   0.418   5.414  0.4266 -0.0848  0.1262
 4244SOL    HW213311   8.557   0.468   5.445  0.8574  0.0873  1.9042
 4245SOL     OW13312   7.091   6.401   5.021 -0.0728  0.2857 -0.6977
 4245SOL    HW113313   7.039   6.481   5.019  0.8310  0.9693  1.1806
 4245SOL    HW213314   7.173   6.425   4.977  0.1775  0.3733 -0.1835
 4246SOL     OW13315   7.366   1.334   9.263 -0.4911  0.1383  0.2748
 4246SOL    HW113316   7.286   1.381   9.285 -1.3278 -0.1981 -1.7563
 4246SOL    HW213317   7.339   1.270   9.197  1.8081  1.7063 -2.4315
 4247SOL     OW13318   0.335   1.163   7.854 -0.0457  0.0626 -0.1874
 4247SOL    HW113319   0.372   1.234   7.802  0.1568  0.6022  0.6586
 4247SOL    HW213320   0.395   1.154   7.928 -0.3415 -0.6553 -0.0273
 4248SOL     OW13321   4.999   5.537   1.402 -0.1431 -0.0608 -0.4295
 4248SOL    HW113322   5.005   5.549   1.308 -0.9465  0.7074 -0.3950
 4248SOL    HW213323   4.906   5.520   1.419 -0.1259  0.4860  0.2847
 4249SOL     OW13324   3.366   5.261   4.656 -0.1405  0.6025  0.5442
 4249SOL    HW113325   3.455   5.288   4.632  0.8151 -2.5475  0.0988
 4249SOL    HW213326   3.315   5.276   4.576  1.0075 -1.3834 -0.6535
 4250SOL     OW13327   1.246   7.081   1.411  0.2029 -0.0284  0.6726
 4250SOL    HW113328   1.249   7.164   1.460 -0.9379  0.1865  0.4122
 4250SOL    HW213329   1.270   7.105   1.321  0.0184 -0.0077  0.6290
 4251SOL     OW13330   8.784   3.462   2.665  0.1594  0.3379  0.2154
 4251SOL    HW113331   8.795   3.556   2.683  0.7780  0.2902  0.1071
 4251SOL    HW213332   8.868   3.434   2.629  0.4775 -0.5585  1.5746
 4252SOL     OW13333   7.008   9.741   8.540 -0.3702  0.2368 -0.2325
 4252SOL    HW113334   7.082   9.799   8.559  0.3771 -0.8446  0.2236
 4252SOL    HW213335   7.039   9.654   8.565 -1.7769 -0.2394 -0.0969
 4253SOL     OW13336   6.385   2.730   3.003 -0.2951 -0.6188  0.7041
 4253SOL    HW113337   6.439   2.810   3.001  0.2996 -1.0177 -0.5978
 4253SOL    HW213338   6.403   2.688   2.919 -2.1009 -1.1400  0.5450
 4254SOL     OW13339   4.423   2.888   2.632  0.2142 -0.2756 -0.2922
 4254SOL    HW113340   4.330   2.903   2.616  0.3621 -0.9256 -1.9640
 4254SOL    HW213341   4.427   2.855   2.722 -1.3077 -1.4236 -0.6079
 4255SOL     OW13342   2.133   2.341   3.097  0.0570  0.1722 -0.7096
 4255SOL    HW113343   2.200   2.336   3.030 -0.0937  1.5380 -0.9901
 4255SOL    HW213344   2.084   2.421   3.077  0.9001  1.4346  1.8297
 4256SOL     OW13345   6.749   3.952   9.202  0.2940 -0.4176 -0.1544
 4256SOL    HW113346   6.761   3.909   9.117  0.0420  0.6146 -0.7187
 4256SOL    HW213347   6.659   3.984   9.200  0.6290  0.5583  0.0610
 4257SOL     OW13348   1.903   8.530   1.369 -0.7045  0.3691 -0.2970
 4257SOL    HW113349   1.892   8.503   1.460 -0.4589  1.7181  0.1549
 4257SOL    HW213350   1.998   8.531   1.356 -0.6383  1.9041  0.0201
 4258SOL     OW13351   1.547   6.524   7.795  0.2357  0.2906 -0.0372
 4258SOL    HW113352   1.582   6.565   7.716 -1.5813  0.2836 -0.8880
 4258SOL    HW213353   1.517   6.597   7.849 -0.7391  0.2214 -0.4595
 4259SOL     OW13354   0.591   2.588   3.395  0.1574 -0.4365  0.4151
 4259SOL    HW113355   0.532   2.556   3.326  1.5388 -0.7108 -0.6856
 4259SOL    HW213356   0.611   2.678   3.371  0.2968 -0.3852  0.7105
 4260SOL     OW13357   6.708   9.620   6.289  0.0147  0.2542 -0.3947
 4260SOL    HW113358   6.735   9.684   6.355  1.1959 -0.5690 -0.0544
 4260SOL    HW213359   6.626   9.584   6.323 -0.0077  0.6942  0.0254
 4261SOL     OW13360   5.724   4.361   0.168 -0.2385  0.3096  0.6332
 4261SOL    HW113361   5.796   4.325   0.116  0.3595  2.5332 -0.1818
 4261SOL    HW213362   5.645   4.333   0.123  0.1992 -0.1044  0.1086
 4262SOL     OW13363   7.062   6.119   0.313 -0.6021 -0.2975 -0.4911
 4262SOL    HW113364   7.004   6.172   0.259  0.2689 -0.5257 -1.6732
 4262SOL    HW213365   7.066   6.034   0.268 -2.6230 -1.7309  1.7701
 4263SOL     OW13366   8.286   0.928   0.601  0.0415  0.6119 -0.0714
 4263SOL    HW113367   8.280   0.894   0.511 -0.7413 -0.8837  0.5177
 4263SOL    HW213368   8.197   0.923   0.635  0.6406 -0.7629  1.4409
 4264SOL     OW13369   9.484   7.405   6.774  0.0335  0.0524  0.5695
 4264SOL    HW113370   9.562   7.428   6.826 -0.2376 -0.7750  1.3683
 4264SOL    HW213371   9.419   7.381   6.839  0.2787 -2.9396 -0.1486
 4265SOL     OW13372   3.181   7.574   8.335  0.2245  0.0710  0.2844
 4265SOL    HW113373   3.257   7.579   8.392  0.2151 -2.3262  0.5895
 4265SOL    HW213374   3.204   7.627   8.259  1.6872  0.3767  0.9171
 4266SOL     OW13375   1.468   3.000   8.347 -0.5227  0.1960  0.1447
 4266SOL    HW113376   1.442   2.950   8.424 -0.0882 -1.2015 -0.5803
 4266SOL    HW213377   1.442   2.945   8.273 -0.0748  1.0787 -0.6982
 4267SOL     OW13378   8.270   8.312   7.882 -0.0607 -0.3887 -0.0856
 4267SOL    HW113379   8.229   8.231   7.850  1.0034 -1.3847  0.9719
 4267SOL    HW213380   8.333   8.334   7.813 -1.1574  0.2251 -0.9296
 4268SOL     OW13381   3.718   6.835   2.149 -0.1512 -0.1039 -0.1133
 4268SOL    HW113382   3.670   6.814   2.229  0.7816 -1.4632  0.1300
 4268SOL    HW213383   3.770   6.756   2.131  2.4980  1.4777  0.0103
 4269SOL     OW13384   7.544   1.862   9.225  0.0309 -0.3518 -0.3998
 4269SOL    HW113385   7.453   1.879   9.252  0.6121  0.2764  1.2843
 4269SOL    HW213386   7.537   1.791   9.162 -1.3841 -3.3291  2.7578
 4270SOL     OW13387   2.947   1.367   7.568 -1.0753 -0.4749  0.0626
 4270SOL    HW113388   3.031   1.403   7.538 -0.9065 -1.2657 -0.4301
 4270SOL    HW213389   2.895   1.444   7.592 -0.4447  0.0548 -0.2426
 4271SOL     OW13390   5.962   1.847   0.702  0.1180  0.2395 -0.0606
 4271SOL    HW113391   5.889   1.909   0.708 -1.5934 -1.6842  0.2280
 4271SOL    HW213392   6.029   1.883   0.760 -0.2572  2.4572 -0.9195
 4272SOL     OW13393   3.176   3.489   8.178 -0.1660 -0.1733  0.1454
 4272SOL    HW113394   3.250   3.549   8.166 -0.0605 -0.1502  0.8785
 4272SOL    HW213395   3.179   3.432   8.101  1.5505 -1.1512  0.8792
 4273SOL     OW13396   9.215   0.035   6.423  0.2225 -0.5103  0.3516
 4273SOL    HW113397   9.279  -0.032   6.449 -0.0439 -0.6857  0.5556
 4273SOL    HW213398   9.259   0.084   6.354 -0.0540 -1.6839 -0.6845
 4274SOL     OW13399   8.369   8.924   8.676 -0.1979  0.5432 -0.3727
 4274SOL    HW113400   8.337   8.835   8.665  2.7270 -0.6081 -0.5249
 4274SOL    HW213401   8.341   8.970   8.598 -1.7360 -0.2198 -0.3018
 4275SOL     OW13402   1.734   3.424   0.657 -0.1321  0.2603  0.3427
 4275SOL    HW113403   1.761   3.333   0.648  0.2438  0.5418 -1.6346
 4275SOL    HW213404   1.815   3.474   0.654 -0.1810  0.6390  2.9333
 4276SOL     OW13405   4.453   5.828   2.170  0.3570 -0.5176 -0.2033
 4276SOL    HW113406   4.458   5.904   2.113  0.2148  1.2724  2.0368
 4276SOL    HW213407   4.408   5.761   2.118 -1.3004  1.5698 -1.5867
 4277SOL     OW13408   6.900   6.487   1.004 -0.2042 -0.1510 -0.0097
 4277SOL    HW113409   6.818   6.528   1.033 -0.0589  0.2498 -0.1514
 4277SOL    HW213410   6.883   6.458   0.915 -0.8199 -1.8546  0.6163
 4278SOL     OW13411   2.060   6.860   2.855  0.1788  0.3362 -0.6317
 4278SOL    HW113412   2.132   6.798   2.848  0.4003  0.6615 -1.3660
 4278SOL    HW213413   2.054   6.899   2.768 -0.2160  1.0619 -0.2875
 4279SOL     OW13414   9.075   4.044   1.806 -0.3680 -0.0281  0.2796
 4279SOL    HW113415   9.104   4.091   1.883 -0.3690 -0.1541  0.3566
 4279SOL    HW213416   8.989   4.081   1.786  0.5634  1.6007 -0.9881
 4280SOL     OW13417   2.373   5.681   5.380 -0.0794  0.7792 -0.4415
 4280SOL    HW113418   2.428   5.745   5.423  0.2769  1.4599 -1.8543
 4280SOL    HW213419   2.298   5.731   5.347  0.2817  0.5463 -1.7027
 4281SOL     OW13420   2.264   1.028   1.686  0.2855  0.5172  0.8011
 4281SOL    HW113421   2.298   1.074   1.763 -2.5039  0.1208  2.4095
 4281SOL    HW213422   2.172   1.010   1.708 -0.3109 -0.6062 -2.1978
 4282SOL     OW13423   7.502   4.458   7.922  0.0832 -0.8139 -0.1412
 4282SOL    HW113424   7.596   4.445   7.935  0.3431  0.0052 -1.0684
 4282SOL    HW213425   7.481   4.404   7.845  0.1350  0.1980 -0.8915
 4283SOL     OW13426   5.003   5.665   8.390  0.1486 -0.2956  0.0000
 4283SOL    HW113427   5.011   5.582   8.437 -0.0119  1.1098  2.6880
 4283SOL    HW213428   4.929   5.709   8.432  1.0522  1.7553 -0.4488
 4284SOL     OW13429   1.556   9.049   7.759 -0.2419  0.3912 -0.3914
 4284SOL    HW113430   1.463   9.069   7.752 -0.0140  2.2752  1.0850
 4284SOL    HW213431   1.575   9.055   7.853  1.2057 -0.8408 -0.5678
 4285SOL     OW13432   5.353   6.066   6.035  0.0672 -0.0946 -0.3246
 4285SOL    HW113433   5.280   6.022   6.079  0.4712  0.8799  1.4226
 4285SOL    HW213434   5.312   6.113   5.962 -0.9935  0.0579  0.3425
 4286SOL     OW13435   0.314   4.122  -0.007  0.4010  0.1418 -0.0862
 4286SOL    HW113436   0.242   4.177   0.024 -0.2576 -0.5335 -0.4011
 4286SOL    HW213437   0.388   4.182  -0.013 -0.0063  0.7483  0.6900
 4287SOL     OW13438   3.823   4.021   0.553  0.5901 -0.4827 -0.2619
 4287SOL    HW113439   3.765   4.067   0.493 -1.0644  0.4896  1.9391
 4287SOL    HW213440   3.784   3.934   0.563 -0.2657  0.0097  0.8481
 4288SOL     OW13441   9.589   5.034   0.518  0.2204 -0.3711 -0.2148
 4288SOL    HW113442   9.500   5.052   0.546 -0.4256 -2.5169 -0.7532
 4288SOL    HW213443   9.634   5.004   0.597  0.8052  1.6541  0.2843
 4289SOL     OW13444   2.891   3.172   8.919  0.4704 -0.3069 -0.0143
 4289SOL    HW113445   2.921   3.101   8.976  0.3900 -0.9825 -0.7991
 4289SOL    HW213446   2.969   3.226   8.906  2.0087 -2.9856 -3.4443
 4290SOL     OW13447   0.416   6.568   7.506 -0.0869 -0.4098 -0.6418
 4290SOL    HW113448   0.472   6.591   7.432 -0.3115  0.6814 -0.4917
 4290SOL    HW213449   0.414   6.647   7.559 -2.4471 -0.1344 -1.0586
 4291SOL     OW13450   4.689   5.626   7.296 -0.4721 -0.5344 -0.2463
 4291SOL    HW113451   4.768   5.678   7.309  0.1731 -1.4357 -0.4504
 4291SOL    HW213452   4.649   5.662   7.216 -1.6547  1.5727  1.1841
 4292SOL     OW13453   7.933   9.641   1.811 -0.2546  0.2106  0.1462
 4292SOL    HW113454   7.985   9.711   1.851 -0.4731  0.0498  0.7306
 4292SOL    HW213455   7.905   9.588   1.885  0.6899 -1.0503 -0.3647
 4293SOL     OW13456   2.886   3.571   8.902  0.4417  0.6814  0.0001
 4293SOL    HW113457   2.933   3.568   8.819  2.1736 -0.8050  0.9621
 4293SOL    HW213458   2.883   3.664   8.925  1.2389  0.9725 -1.0203
 4294SOL     OW13459   7.032   0.123   6.711  0.1563  0.4565 -0.0556
 4294SOL    HW113460   7.094   0.175   6.659  1.2454  0.3010  1.0507
 4294SOL    HW213461   6.956   0.111   6.653  0.9058  1.1668 -1.2181
 4295SOL     OW13462   8.501   1.854   5.988  0.1244 -0.1929  1.3258
 4295SOL    HW113463   8.460   1.876   6.072  0.0400 -0.2135  1.2893
 4295SOL    HW213464   8.593   1.876   6.000  0.2708 -0.9592  1.7026
 4296SOL     OW13465   6.400   1.721   5.323  0.3461  0.0068  0.0970
 4296SOL    HW113466   6.431   1.770   5.400  1.8514 -0.3128 -0.2779
 4296SOL    HW213467   6.440   1.634   5.332 -0.6422 -0.4971 -0.3045
 4297SOL     OW13468   6.292   2.152   9.176 -0.0497 -0.2992  0.3765
 4297SOL    HW113469   6.249   2.151   9.262 -0.2278 -0.3199  0.2886
 4297SOL    HW213470   6.355   2.223   9.182 -3.3971  3.1624 -1.0739
 4298SOL     OW13471   8.677   9.162   5.599 -0.4075 -0.0545  0.1185
 4298SOL    HW113472   8.739   9.092   5.583 -0.9018 -0.8748  1.5637
 4298SOL    HW213473   8.731   9.240   5.611  0.1308 -0.0943 -1.8100
 4299SOL     OW13474   6.517   7.659   8.718  0.4885 -0.5265  0.6243
 4299SOL    HW113475   6.605   7.627   8.739  1.5065  1.0030 -1.0321
 4299SOL    HW213476   6.475   7.673   8.803  2.2970 -0.1080  1.4896
 4300SOL     OW13477   2.339   3.095   3.473 -0.0658  0.1135 -0.0932
 4300SOL    HW113478   2.339   3.173   3.417 -0.3268  1.4472  1.6625
 4300SOL    HW213479   2.257   3.102   3.522 -1.2142 -2.5056 -1.4421
 4301SOL     OW13480   0.104   5.663   6.809 -0.3456  0.1996  0.4063
 4301SOL    HW113481   0.140   5.742   6.769 -0.1838 -0.0987 -0.0417
 4301SOL    HW213482   0.156   5.650   6.888  0.3179 -0.0412 -0.0637
 4302SOL     OW13483   8.757   2.242   3.534 -0.2203 -0.3616  0.0041
 4302SOL    HW113484   8.738   2.202   3.619 -0.1079  0.3072  0.3530
 4302SOL    HW213485   8.671   2.263   3.498 -0.2670 -0.6119 -0.0346
 4303SOL     OW13486   2.758   5.711   8.947 -0.1994  0.2068 -0.3983
 4303SOL    HW113487   2.665   5.699   8.926 -0.4842 -0.8893  1.3570
 4303SOL    HW213488   2.794   5.752   8.868 -1.8887 -0.5573 -1.6435
 4304SOL     OW13489   9.150   2.713   4.186  0.6254  0.0165  0.2023
 4304SOL    HW113490   9.232   2.750   4.155 -0.1582  0.6722 -1.1507
 4304SOL    HW213491   9.174   2.666   4.266  2.2611  0.4068 -0.0263
 4305SOL     OW13492   1.367   6.052   5.754  0.1917 -0.0701  0.6930
 4305SOL    HW113493   1.308   5.984   5.786  0.1761 -0.0852  0.6317
 4305SOL    HW213494   1.446   6.006   5.727 -0.2558 -0.2034 -0.4438
 4306SOL     OW13495   8.299   2.686   9.462 -0.2811  0.1207 -0.3936
 4306SOL    HW113496   8.309   2.778   9.437  1.7219 -0.0067 -0.2726
 4306SOL    HW213497   8.383   2.663   9.502 -1.2753 -1.3534  0.9859
 4307SOL     OW13498   3.157   6.221   8.782 -0.1067 -0.1434 -0.0795
 4307SOL    HW113499   3.215   6.175   8.843  1.0422  0.0881 -0.9696
 4307SOL    HW213500   3.075   6.172   8.786  0.3146 -0.8042  0.8106
 4308SOL     OW13501   5.218   0.855   5.286  0.3535  0.0596 -0.0262
 4308SOL    HW113502   5.247   0.842   5.376  1.9713  0.6996 -0.4232
 4308SOL    HW213503   5.283   0.809   5.233  0.5434  1.3306 -0.9445
 4309SOL     OW13504   1.147   7.876   1.709  0.4142 -0.6177  0.0073
 4309SOL    HW113505   1.177   7.921   1.788  1.6171 -1.5388  0.1101
 4309SOL    HW213506   1.138   7.785   1.736  0.2699 -0.8396 -0.7715
 4310SOL     OW13507   9.562   0.214   1.173  0.3134  0.1557 -0.0264
 4310SOL    HW113508   9.656   0.232   1.165  0.3821  0.1008  0.5920
 4310SOL    HW213509   9.554   0.120   1.159  0.6698 -0.2790  2.2340
 4311SOL     OW13510   9.967   8.636   0.738  0.2205  0.2069  0.0092
 4311SOL    HW113511   9.956   8.714   0.793  2.4476 -0.5075  1.6220
 4311SOL    HW213512   9.958   8.669   0.648  1.2726  2.4075  0.6265
 4312SOL     OW13513   8.933   8.370   4.514  0.1104 -0.0395 -0.0324
 4312SOL    HW113514   8.880   8.442   4.481 -0.1082 -0.2158 -0.0643
 4312SOL    HW213515   8.904   8.357   4.604  0.5215  0.2640  0.1479
 4313SOL     OW13516   1.331   5.349   4.520 -0.3266 -0.1163  1.4999
 4313SOL    HW113517   1.385   5.379   4.594  0.3952  0.4278  0.7625
 4313SOL    HW213518   1.241   5.367   4.548 -0.0314  0.6062  2.0240
 4314SOL     OW13519   6.280   5.887   9.238  0.2257 -0.3666  0.1040
 4314SOL    HW113520   6.256   5.797   9.216  1.9321 -0.9435  0.4673
 4314SOL    HW213521   6.257   5.896   9.330  1.8306 -1.1052  0.6100
 4315SOL     OW13522   4.860   0.826   4.500 -0.1478  0.0181  0.5311
 4315SOL    HW113523   4.810   0.890   4.449 -0.9459  0.3902  1.7393
 4315SOL    HW213524   4.796   0.785   4.557  0.5880 -0.9747  0.6796
 4316SOL     OW13525   4.836   7.168   5.148 -0.2288 -0.2638 -0.3704
 4316SOL    HW113526   4.865   7.112   5.220  1.0280  0.4028 -0.3349
 4316SOL    HW213527   4.866   7.123   5.069  2.4702  1.1976 -0.2848
 4317SOL     OW13528   4.423   9.936   6.321 -0.9615 -0.4786  0.3140
 4317SOL    HW113529   4.439   9.857   6.269  1.5485 -0.7074  1.2850
 4317SOL    HW213530   4.500   9.943   6.378 -1.5297  2.1931  0.8843
 4318SOL     OW13531   1.571   4.794   5.882  0.1703  0.3827  0.0622
 4318SOL    HW113532   1.511   4.786   5.956  0.6723 -0.6952  0.3742
 4318SOL    HW213533   1.648   4.839   5.917  0.2641  0.1848  0.1123
 4319SOL     OW13534   8.490   7.065   6.486  0.5664  0.5478 -0.3089
 4319SOL    HW113535   8.453   7.065   6.397  1.2469 -0.1819 -0.6089
 4319SOL    HW213536   8.578   7.100   6.474  0.8450 -0.0424 -0.0066
 4320SOL     OW13537   1.128   2.746   9.769 -0.1770  0.7007  0.1582
 4320SOL    HW113538   1.043   2.736   9.811 -0.1410  0.9688  0.2986
 4320SOL    HW213539   1.187   2.772   9.840  0.8363 -2.8975  0.8551
 4321SOL     OW13540   4.194   6.453   7.220 -0.7544  0.0703  0.3000
 4321SOL    HW113541   4.122   6.391   7.233 -1.1774  0.0973 -1.6793
 4321SOL    HW213542   4.264   6.421   7.277 -0.6792 -2.6846 -1.2098
 4322SOL     OW13543   4.832   1.877   0.038  0.3753 -0.0084 -0.5054
 4322SOL    HW113544   4.926   1.861   0.027  0.2533 -1.1477 -0.0914
 4322SOL    HW213545   4.807   1.932  -0.036  1.0515 -1.0442 -1.5287
 4323SOL     OW13546   3.073   4.839   1.091 -0.4603 -0.1799 -0.0226
 4323SOL    HW113547   2.981   4.850   1.067  0.0335  0.1077 -1.9501
 4323SOL    HW213548   3.090   4.911   1.152 -1.1865  0.5678 -0.6749
 4324SOL     OW13549   3.195   2.790   1.826  0.0656 -0.1450 -0.0221
 4324SOL    HW113550   3.178   2.861   1.888 -0.1289 -1.6951  1.7769
 4324SOL    HW213551   3.288   2.797   1.807 -0.1151  1.1099 -0.5899
 4325SOL     OW13552   7.378   1.526   4.231  0.2310 -0.9298 -0.3686
 4325SOL    HW113553   7.386   1.616   4.264  0.5832  0.3684 -3.5663
 4325SOL    HW213554   7.286   1.505   4.240  0.4861 -1.2188  2.4659
 4326SOL     OW13555   5.650   3.486   6.437 -0.3526  0.3468 -0.4133
 4326SOL    HW113556   5.675   3.542   6.363  0.8400 -0.5807 -0.7381
 4326SOL    HW213557   5.554   3.479   6.430 -0.5230  2.2455 -0.4150
 4327SOL     OW13558   0.402   3.578   6.758 -0.4767  0.1781  0.0090
 4327SOL    HW113559   0.468   3.617   6.700 -2.2357 -0.5609 -2.6721
 4327SOL    HW213560   0.377   3.649   6.817 -0.2859  1.7321 -1.6929
 4328SOL     OW13561   2.032   1.215   9.704 -0.9282  0.3749 -0.0336
 4328SOL    HW113562   2.109   1.207   9.760 -1.6483  1.1762  1.1195
 4328SOL    HW213563   1.968   1.262   9.758 -2.0120  0.2632 -1.1773
 4329SOL     OW13564   4.698   5.789   9.751  0.5447  0.0235  0.3762
 4329SOL    HW113565   4.673   5.874   9.786  1.8291  1.1496 -1.2782
 4329SOL    HW213566   4.616   5.743   9.737 -0.3577  1.8921 -0.8142
 4330SOL     OW13567   8.253   7.372   6.507  0.1687  0.0309  0.4911
 4330SOL    HW113568   8.299   7.445   6.465 -0.5375  0.9283  1.2315
 4330SOL    HW213569   8.235   7.403   6.595  0.2224 -1.2204  0.9615
 4331SOL     OW13570   6.628   6.364   1.353  0.3918 -0.4409 -0.1004
 4331SOL    HW113571   6.653   6.272   1.351 -1.0448 -0.8445 -0.8943
 4331SOL    HW213572   6.584   6.379   1.269 -0.5363  0.6248  0.5465
 4332SOL     OW13573   2.082   9.223   9.219 -0.3284 -0.2116 -0.1815
 4332SOL    HW113574   2.034   9.305   9.213 -0.3905 -0.2545 -0.2781
 4332SOL    HW213575   2.134   9.219   9.138 -0.5556 -0.4093 -0.3221
 4333SOL     OW13576   7.958   4.754   2.440  0.9041  0.1385  0.5502
 4333SOL    HW113577   7.979   4.846   2.454  1.0324  0.3113 -0.7126
 4333SOL    HW213578   8.016   4.726   2.369 -1.2170 -0.1031 -1.1965
 4334SOL     OW13579   0.804   4.209   5.594  0.7192 -1.3663 -0.0566
 4334SOL    HW113580   0.866   4.187   5.525  1.8659 -0.8343  0.7654
 4334SOL    HW213581   0.718   4.189   5.557  1.0151  1.4518 -2.6884
 4335SOL     OW13582   7.795   5.180   1.301 -0.6541  0.5658 -0.5377
 4335SOL    HW113583   7.851   5.115   1.343  0.5389  2.3129  0.7270
 4335SOL    HW213584   7.802   5.161   1.208  1.6866  0.3725 -0.3972
 4336SOL     OW13585   9.698   8.144   1.648 -0.1332  0.0513 -0.6056
 4336SOL    HW113586   9.781   8.191   1.644 -0.6021  0.8976 -0.8167
 4336SOL    HW213587   9.696   8.090   1.569  0.2046  0.0438 -0.6092
 4337SOL     OW13588   1.354   8.544   3.801 -0.3389 -0.2657  0.3333
 4337SOL    HW113589   1.346   8.639   3.788 -1.9097 -0.3143  0.7299
 4337SOL    HW213590   1.318   8.506   3.721 -0.8606 -0.5303  0.6933
 4338SOL     OW13591   0.229   0.329   5.085  0.3548  0.9987 -0.1034
 4338SOL    HW113592   0.322   0.340   5.108  0.1770 -0.0768  1.2416
 4338SOL    HW213593   0.183   0.388   5.145  0.1839  2.4354 -1.5504
 4339SOL     OW13594   0.875   6.286   7.409 -0.4962  0.0818 -1.0048
 4339SOL    HW113595   0.863   6.379   7.427 -0.7685 -0.3411  1.3322
 4339SOL    HW213596   0.970   6.275   7.401 -0.2963  0.2905  0.7058
 4340SOL     OW13597   4.802   2.865   4.224  0.2747  0.3196 -0.1792
 4340SOL    HW113598   4.754   2.813   4.159 -0.5227  1.1065 -0.2565
 4340SOL    HW213599   4.825   2.945   4.177  1.7147 -0.0603 -0.1433
 4341SOL     OW13600   3.706   9.439   5.053 -0.2523 -0.3338  0.5802
 4341SOL    HW113601   3.612   9.421   5.050 -0.8776  2.5656  0.0827
 4341SOL    HW213602   3.731   9.452   4.962 -0.3373  2.8501  0.8933
 4342SOL     OW13603   1.572   8.329   3.638  0.3622  0.3793 -0.0582
 4342SOL    HW113604   1.640   8.397   3.634  1.1523 -0.2101  2.2858
 4342SOL    HW213605   1.597   8.274   3.712 -0.3209 -2.4499 -1.7890
 4343SOL     OW13606   2.971   4.807   2.108  0.4268 -0.3293  0.2950
 4343SOL    HW113607   3.040   4.752   2.146 -0.3900 -0.4120  1.7027
 4343SOL    HW213608   2.979   4.891   2.153  1.5881  0.7470 -1.7552
 4344SOL     OW13609   7.758   8.573   5.437  0.5498 -0.6196 -0.2499
 4344SOL    HW113610   7.851   8.596   5.446  0.1420  0.6538  1.2195
 4344SOL    HW213611   7.750   8.540   5.348  2.6134 -1.8016 -0.0593
 4345SOL     OW13612   3.408   7.942   9.290 -0.2870  0.4732 -0.2054
 4345SOL    HW113613   3.458   7.860   9.292  0.3430  0.8530  0.8041
 4345SOL    HW213614   3.331   7.922   9.238  0.1990 -0.5633 -0.5570
 4346SOL     OW13615   6.433   1.491   0.025  0.3826 -0.3123 -0.3019
 4346SOL    HW113616   6.500   1.422   0.027  0.2676 -0.4083  0.3858
 4346SOL    HW213617   6.351   1.444   0.008  0.4372 -0.2285 -0.8289
 4347SOL     OW13618   3.155   3.449   3.583 -0.0001  0.1710  0.0500
 4347SOL    HW113619   3.183   3.371   3.630  0.9448 -0.8742 -2.0993
 4347SOL    HW213620   3.235   3.501   3.572  0.1620 -0.3911 -1.7388
 4348SOL     OW13621   0.557   4.127   7.798  0.3833 -0.1552  0.5949
 4348SOL    HW113622   0.558   4.039   7.759 -0.0079 -0.5098  1.3649
 4348SOL    HW213623   0.603   4.182   7.734 -0.5869 -0.6333 -0.5570
 4349SOL     OW13624   3.038   1.037   0.544 -0.1010  0.6438 -0.1625
 4349SOL    HW113625   3.086   1.092   0.606  0.2980  0.8234 -0.6343
 4349SOL    HW213626   3.039   0.950   0.585  1.5126  0.4105 -0.6365
 4350SOL     OW13627   7.034   6.444   9.103 -0.1258  0.1581 -0.1015
 4350SOL    HW113628   6.965   6.505   9.128  0.3967  0.9618 -0.5849
 4350SOL    HW213629   7.091   6.494   9.044  0.8421 -0.5000  0.2424
 4351SOL     OW13630   0.965   9.672   0.227 -0.0125  0.1192  0.5719
 4351SOL    HW113631   0.930   9.678   0.138 -1.4229  4.3290  1.1650
 4351SOL    HW213632   0.917   9.600   0.267 -0.6869 -0.6632 -1.5364
 4352SOL     OW13633   2.344   1.825   2.685  0.4221  0.8067  0.1962
 4352SOL    HW113634   2.283   1.753   2.666 -1.3983  2.8421 -2.1836
 4352SOL    HW213635   2.305   1.870   2.760  0.7794  0.2574  0.7301
 4353SOL     OW13636   0.452   9.380   2.512  0.8127  0.6225  0.2970
 4353SOL    HW113637   0.413   9.350   2.430  1.5985  0.5454 -0.0489
 4353SOL    HW213638   0.379   9.424   2.558  0.5544  1.3745 -0.7906
 4354SOL     OW13639   0.799   7.786   5.832  0.1136  0.2419 -0.5101
 4354SOL    HW113640   0.837   7.712   5.880 -1.9910 -1.2342 -0.9483
 4354SOL    HW213641   0.705   7.768   5.832 -0.2561  1.8484 -2.4570
 4355SOL     OW13642   8.086   2.489   9.460  0.1865 -0.4622 -0.1077
 4355SOL    HW113643   8.136   2.571   9.463 -1.4932  0.6119 -0.5346
 4355SOL    HW213644   8.050   2.486   9.371 -1.2105 -0.7563  0.4473
 4356SOL     OW13645   4.587   6.344   7.961 -0.4135  0.0596  0.3738
 4356SOL    HW113646   4.545   6.428   7.977  1.0136  0.7070  0.9048
 4356SOL    HW213647   4.586   6.334   7.866 -2.2310 -0.2288  0.3878
 4357SOL     OW13648   6.707   4.144   1.895  0.2867 -0.5502  0.1226
 4357SOL    HW113649   6.666   4.082   1.956  2.1476 -0.3053  1.7013
 4357SOL    HW213650   6.789   4.169   1.937  0.6060  1.3576 -1.4851
 4358SOL     OW13651   1.299   7.124   0.324 -0.2136  0.1115 -0.3146
 4358SOL    HW113652   1.299   7.035   0.357  1.1918  0.0660 -0.3869
 4358SOL    HW213653   1.207   7.142   0.303 -1.1011 -0.1196  2.8560
 4359SOL     OW13654   8.441   5.714   6.598  0.6100  0.6197 -0.0420
 4359SOL    HW113655   8.361   5.759   6.625  0.6071  0.9482 -0.5808
 4359SOL    HW213656   8.511   5.760   6.645  0.4208 -0.2024  1.0812
 4360SOL     OW13657   6.869   6.552   8.166  0.5246  0.2153  0.3578
 4360SOL    HW113658   6.841   6.590   8.082 -0.7720 -0.6155  0.3811
 4360SOL    HW213659   6.791   6.560   8.222  1.6653  1.6683  1.8298
 4361SOL     OW13660   6.867   4.639   8.231  0.0310 -0.3849  0.1488
 4361SOL    HW113661   6.855   4.734   8.236 -0.4103 -0.3818 -0.7002
 4361SOL    HW213662   6.926   4.618   8.303 -1.2751  0.3022  1.4741
 4362SOL     OW13663   2.965   5.813   9.640 -0.3033 -0.0924 -0.1916
 4362SOL    HW113664   2.897   5.862   9.686 -0.9655 -0.0545 -1.1740
 4362SOL    HW213665   2.923   5.784   9.559  0.6841 -0.5604 -0.5552
 4363SOL     OW13666   6.751   3.482   9.549  0.8641  0.2463 -0.4094
 4363SOL    HW113667   6.809   3.522   9.484 -1.6107  2.5083 -1.3915
 4363SOL    HW213668   6.694   3.424   9.498  1.4654 -1.1099  0.3892
 4364SOL     OW13669   8.267   8.654   0.047 -0.1708  0.0449 -0.2387
 4364SOL    HW113670   8.227   8.567   0.042  0.3276 -0.1277 -1.6530
 4364SOL    HW213671   8.358   8.637   0.070 -0.0669  0.1779 -0.5395
 4365SOL     OW13672   4.715   8.051   9.362  0.1413 -0.1192 -0.4668
 4365SOL    HW113673   4.752   7.976   9.314  0.6511 -0.0002 -0.2727
 4365SOL    HW213674   4.788   8.083   9.415 -0.3913 -0.2156  0.3496
 4366SOL     OW13675   6.314   0.258   1.236 -0.3956  0.4130  0.0590
 4366SOL    HW113676   6.268   0.198   1.294  1.0036 -0.7404  0.0456
 4366SOL    HW213677   6.328   0.337   1.289 -0.4182 -0.0710  0.7976
 4367SOL     OW13678   9.201   2.254   1.248  0.1099  0.1349  0.3444
 4367SOL    HW113679   9.134   2.187   1.262  0.8960 -0.4689  1.3468
 4367SOL    HW213680   9.177   2.325   1.308  0.7319 -0.3754  1.2201
 4368SOL     OW13681   2.294   2.731   1.078 -0.3803 -0.2817  0.0922
 4368SOL    HW113682   2.270   2.717   0.986  0.3894  0.7661 -0.2866
 4368SOL    HW213683   2.228   2.792   1.111 -0.0649  0.1492 -0.0645
 4369SOL     OW13684   9.812   6.728   6.272  0.1323 -0.0192 -0.6271
 4369SOL    HW113685   9.730   6.704   6.229  0.3171 -0.5085 -0.7186
 4369SOL    HW213686   9.829   6.818   6.244 -0.5842  0.2307 -0.2764
 4370SOL     OW13687   3.170   5.872   0.092  0.0483  0.1061 -0.4929
 4370SOL    HW113688   3.162   5.847   0.000 -0.7034 -1.2849 -0.0811
 4370SOL    HW213689   3.265   5.875   0.108  0.1789  0.0920 -1.2508
 4371SOL     OW13690   3.268   3.542   6.802 -0.1622  0.0124 -0.4355
 4371SOL    HW113691   3.219   3.536   6.720 -0.4501 -2.4202 -0.1716
 4371SOL    HW213692   3.206   3.578   6.865 -1.1970 -1.5995 -0.4651
 4372SOL     OW13693   1.617   9.126   4.459  0.2818 -0.4629  0.0684
 4372SOL    HW113694   1.662   9.196   4.507 -1.4487 -0.4491  1.8539
 4372SOL    HW213695   1.616   9.052   4.521  0.6468 -1.5240 -1.1606
 4373SOL     OW13696   4.026   6.686   6.333 -0.1451 -0.1473  0.4571
 4373SOL    HW113697   4.110   6.712   6.372 -0.4837  0.1093  1.0201
 4373SOL    HW213698   4.048   6.610   6.278  0.3719 -0.3937  0.9922
 4374SOL     OW13699   1.289   4.394   0.957  0.8284  0.7253  0.2445
 4374SOL    HW113700   1.235   4.324   0.921  1.4144  0.6640 -0.5528
 4374SOL    HW213701   1.371   4.352   0.980  0.8987  1.0023  0.5073
 4375SOL     OW13702   5.606   8.515   4.245  0.1740  0.1670  0.2445
 4375SOL    HW113703   5.640   8.436   4.202 -0.7929  0.0742 -0.3871
 4375SOL    HW213704   5.679   8.576   4.245  0.6470 -0.3858 -0.1438
 4376SOL     OW13705   3.613   3.943   9.539 -0.0518 -0.3753  0.0778
 4376SOL    HW113706   3.709   3.939   9.541 -0.0695 -0.6074  0.6201
 4376SOL    HW213707   3.592   4.032   9.567 -0.0242 -0.6805  1.0849
 4377SOL     OW13708   3.221   8.908   0.030 -0.2534  0.0812  0.5058
 4377SOL    HW113709   3.248   8.889   0.121  0.6974  1.4164  0.5277
 4377SOL    HW213710   3.166   8.833   0.006 -1.0950  0.0238  2.4100
 4378SOL     OW13711   7.548   3.481   8.996  0.0255 -0.0205  0.1993
 4378SOL    HW113712   7.628   3.472   9.049 -0.1468  1.6742  0.8167
 4378SOL    HW213713   7.519   3.570   9.013 -0.9442  0.0234 -1.5237
 4379SOL     OW13714   0.590   9.788   4.111 -0.7875 -0.1790 -0.3565
 4379SOL    HW113715   0.665   9.843   4.090 -0.1810  0.2245  2.4804
 4379SOL    HW213716   0.558   9.758   4.026  1.6650  0.8104 -1.7370
 4380SOL     OW13717   0.029   5.368   2.041 -0.0464 -0.0733  0.4409
 4380SOL    HW113718  -0.007   5.446   1.997  0.2048  0.1626  0.6524
 4380SOL    HW213719   0.069   5.402   2.121 -2.4108 -0.7213  2.0113
 4381SOL     OW13720   5.699   3.161   3.425 -0.1378 -0.7123 -0.0697
 4381SOL    HW113721   5.706   3.075   3.466  0.3810 -0.0936  1.1660
 4381SOL    HW213722   5.787   3.198   3.430 -0.8085  0.8230  1.5429
 4382SOL     OW13723   1.960   6.670   9.821  0.7055  0.4011  0.0726
 4382SOL    HW113724   1.894   6.732   9.791  0.1926  0.5459  1.4570
 4382SOL    HW213725   1.948   6.665   9.915  0.5102 -2.0524 -0.0084
 4383SOL     OW13726   6.032   8.861   4.965  0.4360  0.5708  0.2037
 4383SOL    HW113727   6.126   8.857   4.982  0.4368  0.0659  0.0950
 4383SOL    HW213728   6.022   8.933   4.903  0.7118  0.8331  0.4593
 4384SOL     OW13729   4.275   7.176   1.704 -0.0553  0.6036 -0.2184
 4384SOL    HW113730   4.260   7.269   1.687 -0.1018  0.3986 -1.3251
 4384SOL    HW213731   4.236   7.131   1.630  1.5142 -0.2132 -0.5863
 4385SOL     OW13732   5.281   6.190   8.551 -0.1284 -0.4129 -0.9386
 4385SOL    HW113733   5.377   6.200   8.550  0.0953 -1.8525  1.0115
 4385SOL    HW213734   5.266   6.102   8.517 -0.7277 -0.3742 -0.7794
 4386SOL     OW13735   8.651   9.681   8.987 -0.9150  0.1001 -0.3459
 4386SOL    HW113736   8.669   9.766   9.025 -0.2605  0.2637 -0.9901
 4386SOL    HW213737   8.688   9.686   8.898  0.2587 -1.2548  0.0187
 4387SOL     OW13738   5.451   1.085   6.654 -0.2058  0.1297 -0.8189
 4387SOL    HW113739   5.520   1.079   6.587  0.3039  0.4382 -0.3354
 4387SOL    HW213740   5.430   0.995   6.675  2.2671 -0.0800  1.2497
 4388SOL     OW13741   6.909   7.457   7.248  0.0995  0.5466 -0.1572
 4388SOL    HW113742   6.964   7.412   7.312  1.7433 -0.0507 -1.8976
 4388SOL    HW213743   6.912   7.549   7.275 -2.4927 -0.0758  2.8545
 4389SOL     OW13744   4.269   8.930   9.769 -0.3476 -0.8415  0.1537
 4389SOL    HW113745   4.298   9.010   9.813 -0.3239 -0.5852 -0.3156
 4389SOL    HW213746   4.173   8.933   9.776 -0.3624 -0.6181 -0.1221
 4390SOL     OW13747   4.547   4.026   4.435 -0.0164 -0.0071 -0.3083
 4390SOL    HW113748   4.510   4.056   4.518  0.4298 -1.2099  0.3482
 4390SOL    HW213749   4.585   4.105   4.395  0.3670  0.4617  0.9522
 4391SOL     OW13750   3.872   1.835   2.740 -0.3396 -0.2647 -0.5409
 4391SOL    HW113751   3.950   1.817   2.793  0.1957  1.8080 -0.5438
 4391SOL    HW213752   3.901   1.821   2.650  0.3845  1.4270 -0.6188
 4392SOL     OW13753   6.724   3.856   0.274 -0.0589  0.4309  0.2535
 4392SOL    HW113754   6.700   3.943   0.243  0.4228  0.7632  0.8024
 4392SOL    HW213755   6.704   3.857   0.368  0.6987  0.2257  0.4225
 4393SOL     OW13756   5.158   7.292   3.252 -0.0693  0.6550 -0.2706
 4393SOL    HW113757   5.213   7.243   3.191 -2.3740 -0.2257 -1.7385
 4393SOL    HW213758   5.068   7.268   3.229 -1.1229  2.2529  1.8411
 4394SOL     OW13759   4.649   0.691   4.556 -0.2935  0.4137 -0.0847
 4394SOL    HW113760   4.665   0.622   4.491  0.7013 -1.9807  2.4510
 4394SOL    HW213761   4.590   0.650   4.619 -1.8108  2.8860  0.2286
 4395SOL     OW13762   8.903   5.152   2.022 -0.0055  0.3076  0.2467
 4395SOL    HW113763   8.898   5.155   2.117 -0.4562 -0.5930  0.2546
 4395SOL    HW213764   8.813   5.170   1.992 -0.1659 -0.7993  0.0332
 4396SOL     OW13765   7.697   2.759   8.842 -0.1528 -0.1421 -0.3482
 4396SOL    HW113766   7.661   2.676   8.873  2.1585 -1.1691 -0.2162
 4396SOL    HW213767   7.669   2.764   8.751 -0.9085 -0.7233 -0.1583
 4397SOL     OW13768   1.229   6.076   1.655  0.1606 -0.0344  0.4711
 4397SOL    HW113769   1.199   6.091   1.745 -1.5200 -1.3989  0.1936
 4397SOL    HW213770   1.210   6.158   1.610 -0.4506  0.1427  1.0241
 4398SOL     OW13771   9.675   3.925   3.277 -0.2913 -0.1564 -0.2667
 4398SOL    HW113772   9.581   3.936   3.290 -0.2535  0.7802 -0.6888
 4398SOL    HW213773   9.695   3.979   3.200  0.7243  0.2926  0.2959
 4399SOL     OW13774   5.186   7.352   1.222  0.3194  0.0435 -0.1254
 4399SOL    HW113775   5.207   7.391   1.138  1.0857  2.0932  0.9518
 4399SOL    HW213776   5.101   7.388   1.245  0.1861 -0.3807  0.0513
 4400SOL     OW13777   2.713   0.647   4.234 -0.3757 -0.0602 -0.0364
 4400SOL    HW113778   2.653   0.702   4.184 -1.7871 -1.4328  0.0588
 4400SOL    HW213779   2.768   0.605   4.168 -1.7663 -1.3281 -0.4459
 4401SOL     OW13780   2.089   8.861   0.659 -0.1998 -0.5089 -0.0027
 4401SOL    HW113781   2.169   8.819   0.628 -0.7095 -2.7619  1.4388
 4401SOL    HW213782   2.055   8.908   0.583  1.0472 -1.7742 -1.4123
 4402SOL     OW13783   4.629   1.033   1.122  0.0107  0.0888  0.5615
 4402SOL    HW113784   4.583   0.997   1.198 -0.6508 -1.6249 -0.5854
 4402SOL    HW213785   4.571   1.101   1.088 -1.0667 -1.0827 -0.0291
 4403SOL     OW13786   6.077   8.322   3.723  0.0163  0.4222  0.1711
 4403SOL    HW113787   5.985   8.337   3.745 -0.0542  0.4789 -0.1711
 4403SOL    HW213788   6.079   8.231   3.691  0.2087  0.1605  0.9045
 4404SOL     OW13789   2.401   1.129   8.169  0.8926  0.3243 -0.0085
 4404SOL    HW113790   2.313   1.162   8.188  0.7866  0.3317 -0.4958
 4404SOL    HW213791   2.454   1.159   8.243  0.3455 -0.2919  0.6515
 4405SOL     OW13792   6.935   1.193   5.691  0.1555  0.0463  0.6612
 4405SOL    HW113793   7.008   1.171   5.633 -0.5732  1.0257 -0.7135
 4405SOL    HW213794   6.885   1.112   5.698  0.6634 -0.2832  0.5393
 4406SOL     OW13795   2.992   0.840   7.935 -0.0137 -0.2353  0.2168
 4406SOL    HW113796   3.044   0.816   7.858  1.9402 -1.0779  1.7196
 4406SOL    HW213797   2.964   0.756   7.972 -2.0327  0.1878 -0.2285
 4407SOL     OW13798   6.763   9.581   5.773 -0.3892 -0.5729  0.2962
 4407SOL    HW113799   6.765   9.563   5.867 -0.5187 -0.2307  0.3657
 4407SOL    HW213800   6.717   9.665   5.766  1.2877  0.3513  0.0757
 4408SOL     OW13801   7.728   2.764   8.089  0.0452  0.0273  0.2565
 4408SOL    HW113802   7.684   2.847   8.070 -0.2211 -0.1795 -0.0383
 4408SOL    HW213803   7.763   2.775   8.178  0.5921  0.7017 -0.0336
 4409SOL     OW13804   1.316   8.931   5.553 -0.5718 -0.1882  0.5284
 4409SOL    HW113805   1.375   8.989   5.602 -0.0276 -1.1902  1.1023
 4409SOL    HW213806   1.229   8.954   5.584 -0.3190 -0.0349  1.1437
 4410SOL     OW13807   0.455   6.409   7.038  0.6279 -0.2312 -0.0681
 4410SOL    HW113808   0.442   6.382   7.129  2.0627  0.2362  0.3006
 4410SOL    HW213809   0.539   6.454   7.039 -0.3173  1.6706 -1.2073
 4411SOL     OW13810   7.864   7.140   2.891 -0.2368  0.4339 -0.0296
 4411SOL    HW113811   7.811   7.094   2.826 -2.2007  2.4216  0.0593
 4411SOL    HW213812   7.813   7.136   2.972  0.5434  0.9842  0.5114
 4412SOL     OW13813   9.712   8.843   1.054  0.4762  0.3722  0.4262
 4412SOL    HW113814   9.747   8.932   1.049  1.5523 -0.0720 -0.1628
 4412SOL    HW213815   9.618   8.856   1.067  0.5976  1.5973  0.2447
 4413SOL     OW13816   1.209   0.431   9.193  0.1976 -0.6873  0.7277
 4413SOL    HW113817   1.165   0.413   9.276  0.7156  0.5833  1.2990
 4413SOL    HW213818   1.228   0.344   9.156  0.5737 -1.2804  2.2545
 4414SOL     OW13819   2.842   1.416   8.664 -0.1150 -0.2196  0.1119
 4414SOL    HW113820   2.832   1.510   8.645 -2.5453 -0.0282  1.8214
 4414SOL    HW213821   2.752   1.384   8.669  0.6567 -2.4336  0.6086
 4415SOL     OW13822   8.050   7.785   7.970 -0.3805  0.1125  0.0656
 4415SOL    HW113823   8.115   7.714   7.968 -2.4769 -1.9434  0.6897
 4415SOL    HW213824   8.026   7.793   8.062  0.0209  1.9074  0.0505
 4416SOL     OW13825   8.407   2.818   9.889  0.3561  0.4942  0.0551
 4416SOL    HW113826   8.451   2.881   9.832 -0.0738  1.7793  1.1035
 4416SOL    HW213827   8.315   2.824   9.865  0.4340 -0.5332 -0.5658
 4417SOL     OW13828   6.794   8.719   9.766  0.3030  0.3192  0.3872
 4417SOL    HW113829   6.825   8.687   9.682 -2.0743  0.7901 -0.7473
 4417SOL    HW213830   6.716   8.770   9.745  0.3728  1.5316  2.7643
 4418SOL     OW13831   9.496   7.464   5.303 -0.4790  0.4293  0.0122
 4418SOL    HW113832   9.472   7.495   5.216  0.9957  1.1310 -0.1625
 4418SOL    HW213833   9.589   7.483   5.311 -0.4563 -0.1734  1.5213
 4419SOL     OW13834   4.626   7.878   0.986 -0.1464  0.0227  0.3280
 4419SOL    HW113835   4.578   7.956   0.957 -0.1322 -0.4469 -1.0370
 4419SOL    HW213836   4.659   7.901   1.073  0.0623  1.6425 -0.1361
 4420SOL     OW13837   5.632   0.294   3.036  1.0360 -0.4828  0.2299
 4420SOL    HW113838   5.699   0.286   3.104 -0.5813 -2.8697  1.7233
 4420SOL    HW213839   5.668   0.247   2.961  2.3471  1.1493 -0.2156
 4421SOL     OW13840   2.729   1.415   9.937 -0.3824 -0.5699 -0.2147
 4421SOL    HW113841   2.793   1.345   9.929 -1.0457 -1.2294  0.0909
 4421SOL    HW213842   2.687   1.419   9.851 -0.5463 -0.7526 -0.1446
 4422SOL     OW13843   0.654   2.661   2.516  0.4071  0.3475  0.0360
 4422SOL    HW113844   0.624   2.702   2.435  0.6054  0.9474  0.2563
 4422SOL    HW213845   0.685   2.575   2.490 -0.4923  0.1362 -0.3642
 4423SOL     OW13846   2.914   0.967   1.853 -0.3554 -0.3153 -0.1166
 4423SOL    HW113847   2.998   0.937   1.888 -0.9944 -1.9356  0.1339
 4423SOL    HW213848   2.871   1.008   1.927 -0.3457 -0.7300  0.1213
 4424SOL     OW13849   4.233   9.194   8.057 -0.2720 -0.5212  0.1922
 4424SOL    HW113850   4.309   9.253   8.062 -0.1281 -0.7555  0.9128
 4424SOL    HW213851   4.245   9.148   7.974 -0.6854  0.8474 -0.6590
 4425SOL     OW13852   3.857   3.349   8.151 -0.1362 -0.3280  0.0884
 4425SOL    HW113853   3.939   3.328   8.106 -0.1916 -0.1482 -0.1006
 4425SOL    HW213854   3.870   3.439   8.182  0.2797 -0.7944  1.2986
 4426SOL     OW13855   6.938   8.413   2.609 -0.8230 -0.3859 -0.4462
 4426SOL    HW113856   6.958   8.437   2.519  1.4284 -0.8850 -0.1282
 4426SOL    HW213857   6.935   8.317   2.608  0.0645 -0.4307  0.1437
 4427SOL     OW13858   4.393   5.038   0.775  0.0694  0.1668 -0.0214
 4427SOL    HW113859   4.443   5.107   0.732  0.5061 -0.8165 -1.1312
 4427SOL    HW213860   4.453   5.000   0.839  0.2336 -0.0004 -0.2755
 4428SOL     OW13861   5.962   8.591   4.913 -0.4048  0.4851  0.1886
 4428SOL    HW113862   5.939   8.681   4.935 -0.1132  0.9202 -1.2062
 4428SOL    HW213863   6.023   8.564   4.982 -0.9097  1.1570  0.9104
 4429SOL     OW13864   1.297   8.431   6.787 -0.1385 -0.3231 -0.2869
 4429SOL    HW113865   1.272   8.483   6.863 -0.4621 -0.7908 -0.0681
 4429SOL    HW213866   1.371   8.478   6.749  0.4524 -0.4447  0.6966
 4430SOL     OW13867   0.710   6.666   4.460 -0.4776  0.3414 -0.3550
 4430SOL    HW113868   0.781   6.721   4.495 -0.7269  0.8721 -0.6634
 4430SOL    HW213869   0.633   6.692   4.510 -0.5446  0.0671 -0.3142
 4431SOL     OW13870   3.010   8.043   8.211 -0.0585 -0.4444  0.0920
 4431SOL    HW113871   3.000   8.102   8.286 -0.3963 -0.5790  0.1511
 4431SOL    HW213872   3.087   7.991   8.232  0.2907  0.0228  0.0067
 4432SOL     OW13873   9.431   5.587   6.164  0.3093  0.4725 -0.5715
 4432SOL    HW113874   9.510   5.581   6.218 -0.8618  0.0927  1.1553
 4432SOL    HW213875   9.379   5.511   6.188 -0.7572  0.9158 -1.4061
 4433SOL     OW13876   2.260   0.122   9.607  0.2572 -0.0272 -0.2345
 4433SOL    HW113877   2.255   0.218   9.603 -0.3961 -0.0916 -1.6232
 4433SOL    HW213878   2.251   0.094   9.516  0.6638 -1.4121  0.1278
 4434SOL     OW13879   4.758   1.168   5.534 -0.8416 -0.1465 -0.6386
 4434SOL    HW113880   4.770   1.105   5.606  0.8835 -1.6540 -2.1448
 4434SOL    HW213881   4.778   1.253   5.573  0.5100 -0.9710  0.5776
 4435SOL     OW13882   9.310   2.773   5.998  0.0661  0.2693  0.3246
 4435SOL    HW113883   9.384   2.802   5.946  1.8406 -0.6200  2.2099
 4435SOL    HW213884   9.238   2.830   5.971  1.7470  2.0563 -0.6719
 4436SOL     OW13885   1.585   8.859   3.282 -0.3679  0.1864  0.0861
 4436SOL    HW113886   1.563   8.767   3.298 -0.5883  0.2266  0.0199
 4436SOL    HW213887   1.552   8.905   3.359 -0.4788  0.2416  0.0065
 4437SOL     OW13888   2.620   6.647   9.343 -0.4291 -0.2881  0.1758
 4437SOL    HW113889   2.536   6.616   9.308 -0.5824 -0.2269  0.4918
 4437SOL    HW213890   2.686   6.597   9.294 -0.6692 -0.9366  0.5074
 4438SOL     OW13891   3.740   4.247   0.080  0.0147  0.1483 -0.4582
 4438SOL    HW113892   3.787   4.171   0.046  1.9871  0.9340  0.3589
 4438SOL    HW213893   3.798   4.321   0.061 -0.4031  1.0517  1.5151
 4439SOL     OW13894   8.788   9.634   6.593  0.5783 -0.4169  0.2673
 4439SOL    HW113895   8.815   9.620   6.502  1.4672  1.5850  0.1900
 4439SOL    HW213896   8.863   9.606   6.645  0.7151  0.0171  0.3042
 4440SOL     OW13897   8.097   5.691   6.430  0.2769  0.4283 -0.3444
 4440SOL    HW113898   8.172   5.631   6.428 -0.1227 -0.0737 -2.0553
 4440SOL    HW213899   8.069   5.698   6.339 -3.3123 -1.4393  0.4149
 4441SOL     OW13900   3.479   6.252   4.147 -0.2740  0.0918  0.6929
 4441SOL    HW113901   3.553   6.228   4.202 -1.7794 -1.1698  2.2919
 4441SOL    HW213902   3.446   6.169   4.114 -0.2989  0.7242 -0.9912
 4442SOL     OW13903   2.560   9.431   7.929 -0.5428 -0.1789 -0.1279
 4442SOL    HW113904   2.553   9.486   8.008  0.0727 -1.3769  0.7941
 4442SOL    HW213905   2.566   9.342   7.963  0.0856 -0.6902 -1.5311
 4443SOL     OW13906   6.785   1.967   5.479 -0.9721 -0.0353  0.4249
 4443SOL    HW113907   6.824   2.039   5.431  1.0355  0.4233  2.5542
 4443SOL    HW213908   6.721   2.009   5.538 -0.8879 -0.1617  0.6090
 4444SOL     OW13909   6.587   8.403   2.088  0.2338  0.0025 -0.4022
 4444SOL    HW113910   6.583   8.450   2.171  1.8527  1.3108 -1.0176
 4444SOL    HW213911   6.502   8.420   2.047 -0.9005 -1.3324  1.2901
 4445SOL     OW13912   9.328   9.765   8.718 -0.1808  0.2484  0.0805
 4445SOL    HW113913   9.239   9.770   8.752 -0.1437  1.1240  0.0782
 4445SOL    HW213914   9.378   9.824   8.775  0.8668 -1.8337  1.4487
 4446SOL     OW13915   0.370   3.518   7.295 -0.0176  0.6682  0.7453
 4446SOL    HW113916   0.329   3.562   7.370 -1.2994  2.1335 -0.7336
 4446SOL    HW213917   0.448   3.477   7.331 -1.3008  0.1298  3.1569
 4447SOL     OW13918   0.817   9.964   7.133  0.2550 -0.2682 -0.3280
 4447SOL    HW113919   0.737   9.941   7.085  0.3899  0.1407 -0.7496
 4447SOL    HW213920   0.873   9.887   7.124 -0.0728 -0.5429 -0.0657
 4448SOL     OW13921   1.525   5.000   3.110 -0.0332  0.2165 -0.3473
 4448SOL    HW113922   1.618   5.007   3.130  0.5303  0.8585 -2.8853
 4448SOL    HW213923   1.481   5.037   3.187  1.8083  0.5581  0.5917
 4449SOL     OW13924   9.139   8.508   7.187 -0.2988 -0.4046  0.0524
 4449SOL    HW113925   9.181   8.455   7.254 -1.5015 -1.7691 -0.2376
 4449SOL    HW213926   9.057   8.464   7.168 -0.3399  0.3523 -1.7959
 4450SOL     OW13927   4.630   9.319   3.776  0.9219  0.2187 -0.2471
 4450SOL    HW113928   4.696   9.261   3.738  0.4212  1.4247 -3.2339
 4450SOL    HW213929   4.681   9.391   3.814  1.4190 -0.0984 -0.3050
 4451SOL     OW13930   4.512   9.942   3.585 -0.1498  0.2376 -0.1672
 4451SOL    HW113931   4.477   9.855   3.607  1.4110 -0.6083 -0.8577
 4451SOL    HW213932   4.546   9.931   3.496 -2.8488  2.4709 -1.6180
 4452SOL     OW13933   8.751   6.865   6.364 -0.3950  0.1363  0.2218
 4452SOL    HW113934   8.729   6.877   6.272  0.7146  1.0029  0.0503
 4452SOL    HW213935   8.740   6.952   6.402 -1.3458 -0.3183  1.0404
 4453SOL     OW13936   6.745   9.894   2.500  0.0250  0.1397 -0.4986
 4453SOL    HW113937   6.777   9.972   2.544 -0.1029 -0.6024  0.9631
 4453SOL    HW213938   6.736   9.829   2.569 -0.9471 -0.8405 -1.4983
 4454SOL     OW13939   7.777   5.238   9.355 -0.2265  0.1205 -0.7793
 4454SOL    HW113940   7.807   5.147   9.345 -0.3816  0.0158 -0.3355
 4454SOL    HW213941   7.730   5.257   9.274 -0.6445 -0.3733 -0.6564
 4455SOL     OW13942   5.750   6.490   8.628  0.0403 -0.4290 -0.2854
 4455SOL    HW113943   5.694   6.555   8.584  0.3816  1.3031  1.7037
 4455SOL    HW213944   5.838   6.527   8.622  0.2397 -0.6907  0.8752
 4456SOL     OW13945   1.228   4.181   6.018 -0.5203 -0.1328  0.2066
 4456SOL    HW113946   1.143   4.224   6.009  0.0607  1.2830  1.0699
 4456SOL    HW213947   1.286   4.230   5.959 -0.1177 -0.5339  0.2655
 4457SOL     OW13948   6.339   9.978   7.653 -0.4043 -0.2326  0.1877
 4457SOL    HW113949   6.259   9.926   7.648 -0.5918 -0.1147  1.5784
 4457SOL    HW213950   6.358   9.985   7.747  0.0441  1.5366  0.0042
 4458SOL     OW13951   8.015   5.518   3.375  0.4235 -0.3837 -0.1874
 4458SOL    HW113952   8.078   5.468   3.427 -0.3319 -0.4714  0.6798
 4458SOL    HW213953   7.935   5.466   3.378  0.0186  0.2144 -0.4192
 4459SOL     OW13954   7.775   5.412   3.284 -0.5011  0.4057  0.3013
 4459SOL    HW113955   7.727   5.388   3.205 -0.7341 -0.0070  0.5652
 4459SOL    HW213956   7.756   5.342   3.346  0.2634  0.3529  0.4830
 4460SOL     OW13957   2.456   5.147   9.761  0.4396 -0.7345 -0.1039
 4460SOL    HW113958   2.416   5.062   9.777 -1.6657  0.1858 -0.1609
 4460SOL    HW213959   2.472   5.147   9.666 -1.4610 -0.3343 -0.4632
 4461SOL     OW13960   7.218   4.902   0.591  0.3739  0.4870  0.7762
 4461SOL    HW113961   7.294   4.890   0.649  1.6785  1.1852 -0.7067
 4461SOL    HW213962   7.185   4.813   0.578 -0.3297  0.3519  2.9950
 4462SOL     OW13963   1.236   2.267   0.675  0.4783 -0.6423  0.3934
 4462SOL    HW113964   1.143   2.276   0.696  0.6089 -0.7057  1.0051
 4462SOL    HW213965   1.281   2.320   0.741  1.0536 -2.8466  1.8905
 4463SOL     OW13966   9.288   8.671   7.957  0.1986 -0.1393 -0.2673
 4463SOL    HW113967   9.224   8.720   8.008 -0.3208 -0.0785 -0.9658
 4463SOL    HW213968   9.338   8.622   8.022 -0.4638 -0.0779  0.2979
 4464SOL     OW13969   1.171   4.442   4.361 -0.1496  0.2291  0.3435
 4464SOL    HW113970   1.083   4.478   4.374 -0.7621 -0.1000 -2.2761
 4464SOL    HW213971   1.178   4.431   4.266  2.7950  0.3737  0.4673
 4465SOL     OW13972   5.486   5.917   3.721 -0.1147  0.0993 -0.0925
 4465SOL    HW113973   5.480   6.012   3.723  0.4127  0.1244  0.2524
 4465SOL    HW213974   5.429   5.891   3.648 -1.2858  0.5967  0.6039
 4466SOL     OW13975   5.279   5.426   1.424 -0.3108  0.7305  0.2962
 4466SOL    HW113976   5.198   5.464   1.457 -1.0652 -0.1875 -0.4186
 4466SOL    HW213977   5.272   5.333   1.446  0.8732  0.7463  0.8249
 4467SOL     OW13978   7.907   2.151   6.795 -0.8239 -0.4080  0.3220
 4467SOL    HW113979   7.891   2.180   6.706 -0.7495  1.8240  0.9772
 4467SOL    HW213980   7.842   2.082   6.810 -2.0464  0.4355 -0.8730
 4468SOL     OW13981   7.451   1.533   0.083  0.6202 -0.2469 -0.0749
 4468SOL    HW113982   7.402   1.540   0.001  0.7589  2.2159  0.0021
 4468SOL    HW213983   7.400   1.582   0.147  0.5561 -2.0667  1.3540
 4469SOL     OW13984   2.220   7.026   6.247 -0.1497  0.2233  0.0548
 4469SOL    HW113985   2.222   7.074   6.329  1.7316 -0.2585  0.3351
 4469SOL    HW213986   2.207   7.093   6.180  2.8152  1.2716  0.4064
 4470SOL     OW13987   9.078   8.794   0.421  0.6364 -0.0345  0.0263
 4470SOL    HW113988   9.101   8.701   0.429  1.3172  0.0339 -0.9731
 4470SOL    HW213989   9.160   8.837   0.395 -0.3264  0.3846 -2.5946
 4471SOL     OW13990   9.690   7.729   8.006 -0.1742  0.6016  0.1799
 4471SOL    HW113991   9.619   7.774   8.053  0.2607  0.6364  0.8079
 4471SOL    HW213992   9.715   7.656   8.063 -0.2272  0.1185 -0.3987
 4472SOL     OW13993   6.200   7.010   7.626 -0.2920 -0.1368  0.2819
 4472SOL    HW113994   6.166   6.924   7.599 -1.3200  0.2039  0.4676
 4472SOL    HW213995   6.192   7.010   7.721  2.1523 -0.8341  0.5608
 4473SOL     OW13996   0.221   7.874   4.923 -0.0814 -0.1416  0.2676
 4473SOL    HW113997   0.304   7.904   4.960  0.0855 -0.8864  0.5147
 4473SOL    HW213998   0.240   7.862   4.830 -0.2414  0.8209  0.1032
 4474SOL     OW13999   4.848   4.061   9.824 -0.2267  0.4060  0.6092
 4474SOL    HW114000   4.844   4.008   9.903 -1.9281 -0.7601 -0.1932
 4474SOL    HW214001   4.880   4.001   9.756  0.5470  1.2017  0.2495
 4475SOL     OW14002   8.580   3.532   2.485 -0.0798  0.2125  0.1684
 4475SOL    HW114003   8.623   3.560   2.404  1.0767 -0.7443  0.4271
 4475SOL    HW214004   8.648   3.486   2.534 -1.2946 -1.0053  0.7806
 4476SOL     OW14005   1.763   7.336   5.339  0.3598  0.0229  0.4412
 4476SOL    HW114006   1.746   7.242   5.342 -0.5613 -0.0023 -2.4833
 4476SOL    HW214007   1.700   7.374   5.401 -0.1981 -1.1912  0.6419
 4477SOL     OW14008   8.069   9.939   3.510 -0.3277  0.5896 -0.4921
 4477SOL    HW114009   8.118   9.996   3.569  0.1598  0.3335 -0.6435
 4477SOL    HW214010   8.118   9.943   3.427  0.3075 -0.8369 -0.2182
 4478SOL     OW14011   8.636   5.023   7.590  0.0694  0.2292 -0.1912
 4478SOL    HW114012   8.574   5.053   7.657  0.2549  1.3494 -0.4942
 4478SOL    HW214013   8.607   5.067   7.510 -0.4355 -1.4429 -0.9913
 4479SOL     OW14014   7.310   4.595   3.608 -0.2076 -0.0794  0.4640
 4479SOL    HW114015   7.387   4.641   3.576  1.2128 -1.4525  1.6704
 4479SOL    HW214016   7.336   4.562   3.694 -1.5522 -2.0069  0.2185
 4480SOL     OW14017   8.232   2.421  10.000 -0.5348  0.2712  0.1245
 4480SOL    HW114018   8.146   2.431   9.960 -1.0892 -1.0612  0.9245
 4480SOL    HW214019   8.262   2.335   9.972  1.2713  1.3284 -1.4347
 4481SOL     OW14020   9.586   4.178   5.513 -0.1634  0.0695  0.2974
 4481SOL    HW114021   9.619   4.211   5.596  1.3467 -1.9182  0.5392
 4481SOL    HW214022   9.495   4.153   5.532 -0.6719  1.9800  0.6287
 4482SOL     OW14023   1.431   0.326   8.876  0.2816  0.4884  0.4564
 4482SOL    HW114024   1.339   0.318   8.850  0.9237  0.5303 -2.1107
 4482SOL    HW214025   1.435   0.409   8.925 -1.0967  0.2498  1.0244
 4483SOL     OW14026   5.069   3.966   1.511 -0.0696  0.2982  0.1297
 4483SOL    HW114027   5.099   4.057   1.509 -1.5779  0.8141 -1.9752
 4483SOL    HW214028   5.039   3.949   1.422 -3.0302 -1.1591  1.2782
 4484SOL     OW14029   2.016   4.305   7.428  0.2243  0.4572 -0.0292
 4484SOL    HW114030   1.976   4.225   7.463  0.5153  0.3634  0.0993
 4484SOL    HW214031   2.053   4.349   7.505  1.2993  0.0046 -0.2668
 4485SOL     OW14032   3.981   0.457   6.273  0.1638 -0.3200  0.0156
 4485SOL    HW114033   3.962   0.423   6.361 -1.8680 -0.2600 -0.3556
 4485SOL    HW214034   3.929   0.537   6.266 -0.6831 -0.9674 -1.6566
 4486SOL     OW14035   3.871   8.280   5.234 -0.2986  0.2236 -0.1433
 4486SOL    HW114036   3.849   8.308   5.145 -2.2145  1.0701  0.5510
 4486SOL    HW214037   3.809   8.209   5.252  0.2464 -0.1109  0.4364
 4487SOL     OW14038   5.195   8.977   5.945 -0.2089  0.5139  0.3016
 4487SOL    HW114039   5.267   8.928   5.905  0.2533 -0.7994  2.5624
 4487SOL    HW214040   5.130   8.985   5.876  1.4173  0.2957 -1.3272
 4488SOL     OW14041   4.364   6.631   2.145  0.3106  0.5404  0.0744
 4488SOL    HW114042   4.422   6.559   2.169  0.8843  1.0118  0.1236
 4488SOL    HW214043   4.308   6.643   2.222 -0.5088 -0.5378 -0.3266
 4489SOL     OW14044   8.980   1.251   9.294  0.1986 -0.1149 -0.7032
 4489SOL    HW114045   8.888   1.273   9.311 -0.8303 -3.3802 -1.3624
 4489SOL    HW214046   9.013   1.217   9.377  0.1953 -0.7769 -0.9678
 4490SOL     OW14047   9.768   6.761   7.897  0.0833  0.0964  0.4269
 4490SOL    HW114048   9.706   6.759   7.970 -2.8530  0.3139 -1.8583
 4490SOL    HW214049   9.787   6.669   7.879 -2.4593 -0.2659 -0.9470
 4491SOL     OW14050   7.414   8.799   1.655 -0.0679 -0.2156  0.7597
 4491SOL    HW114051   7.477   8.740   1.697  0.3101 -0.5210 -0.2248
 4491SOL    HW214052   7.329   8.759   1.675  0.1386 -0.6637  0.7675
 4492SOL     OW14053   5.253   6.882   6.565  0.1935 -0.1003 -0.0601
 4492SOL    HW114054   5.219   6.844   6.647 -0.3535 -0.0194 -0.2466
 4492SOL    HW214055   5.346   6.894   6.582 -0.3096  2.3810  1.5497
 4493SOL     OW14056   3.013   5.618   2.257  0.1586  0.3262 -0.3539
 4493SOL    HW114057   3.107   5.631   2.243  0.5441 -0.4234  1.3252
 4493SOL    HW214058   2.990   5.681   2.325  0.3884 -2.1670  2.2321
 4494SOL     OW14059   4.354   1.023   0.822  0.0982  0.2718 -0.4608
 4494SOL    HW114060   4.305   1.014   0.904 -0.7650 -0.7236 -1.0632
 4494SOL    HW214061   4.297   0.985   0.756  1.7846 -1.1763 -1.1577
 4495SOL     OW14062   6.514   3.150   5.385  0.1700  0.0522 -0.0987
 4495SOL    HW114063   6.585   3.160   5.321  0.2468 -0.5937 -0.1165
 4495SOL    HW214064   6.445   3.208   5.352  1.2458  1.9349  0.7622
 4496SOL     OW14065   2.109   9.712   3.956  0.1435  0.4426 -0.6862
 4496SOL    HW114066   2.177   9.664   3.908 -0.8072 -0.9641 -0.6983
 4496SOL    HW214067   2.126   9.804   3.937  1.5751  0.0808 -1.2986
 4497SOL     OW14068   8.444   5.399   2.669 -0.2080 -0.3027  0.5502
 4497SOL    HW114069   8.375   5.376   2.732 -0.7135 -0.2549  0.0200
 4497SOL    HW214070   8.426   5.490   2.647 -1.5561 -1.0160 -1.5458
 4498SOL     OW14071   8.037   8.126   3.260  0.3425  0.1586 -0.3307
 4498SOL    HW114072   7.998   8.191   3.201  0.2217  1.1237  0.7862
 4498SOL    HW214073   8.128   8.120   3.232 -0.1314 -0.7888 -1.8052
 4499SOL     OW14074   3.301   0.456   0.729  0.1542  0.0904 -0.3754
 4499SOL    HW114075   3.262   0.542   0.744 -0.6518 -0.3273  0.0132
 4499SOL    HW214076   3.394   0.473   0.717  0.0883  0.9515  0.2697
 4500SOL     OW14077   4.417   7.882   9.147 -0.4802 -0.7224 -0.0906
 4500SOL    HW114078   4.364   7.894   9.226 -1.3783  1.5191 -0.9539
 4500SOL    HW214079   4.354   7.880   9.075  0.4735  3.0625 -1.2519
 4501SOL     OW14080   2.214   7.602   4.314 -0.0112  0.0808  0.2065
 4501SOL    HW114081   2.167   7.615   4.397 -1.0163 -1.4877 -0.0823
 4501SOL    HW214082   2.303   7.634   4.332 -0.1494 -0.4122  1.9552
 4502SOL     OW14083   5.245   4.196   9.244 -0.4550 -0.3134  0.0154
 4502SOL    HW114084   5.211   4.133   9.181 -1.6780  0.9398 -0.6258
 4502SOL    HW214085   5.252   4.278   9.196 -0.9213  0.5566  1.3620
 4503SOL     OW14086   9.487   3.529   7.348  0.1290  0.5232  0.5618
 4503SOL    HW114087   9.536   3.600   7.308 -0.6791  1.2089  0.7458
 4503SOL    HW214088   9.413   3.515   7.289 -0.4538  0.7718  1.2169
 4504SOL     OW14089   6.939   6.882   8.393 -0.0372  0.1308 -0.1145
 4504SOL    HW114090   6.857   6.869   8.346 -0.4311  2.3121 -0.1552
 4504SOL    HW214091   6.999   6.819   8.354 -1.8399 -2.0661  0.4457
 4505SOL     OW14092   7.240   7.472   4.832  0.2355  0.5074 -0.1042
 4505SOL    HW114093   7.292   7.534   4.883  0.0336 -0.0495  0.7991
 4505SOL    HW214094   7.288   7.390   4.837 -0.4241  0.1331  0.2597
 4506SOL     OW14095   0.505   9.053   1.441 -0.2467 -0.2108 -0.3006
 4506SOL    HW114096   0.502   9.071   1.347 -0.2683  1.3833 -0.0253
 4506SOL    HW214097   0.508   9.139   1.482  0.8571 -0.8891  1.1376
 4507SOL     OW14098   0.912   9.372   5.887  0.2389 -0.3139 -0.3447
 4507SOL    HW114099   0.880   9.383   5.797  0.3220 -0.3291 -0.3759
 4507SOL    HW214100   0.977   9.302   5.881  0.7546  0.1672 -0.3977
 4508SOL     OW14101   0.967   7.768   1.428 -0.7506  0.2723 -0.0831
 4508SOL    HW114102   1.029   7.800   1.363  0.8029 -0.4611  0.9749
 4508SOL    HW214103   0.957   7.840   1.490 -2.0286  0.8735 -0.9326
 4509SOL     OW14104   9.954   2.806   9.841 -0.2237 -0.4686 -0.4539
 4509SOL    HW114105   9.949   2.755   9.761  0.3326 -0.3380 -0.5797
 4509SOL    HW214106   9.901   2.757   9.904 -0.9452 -0.3856 -0.9918
 4510SOL     OW14107   8.863   4.943   2.673 -0.5261 -0.1684 -0.4183
 4510SOL    HW114108   8.777   4.907   2.652  0.5595 -3.5443  0.2462
 4510SOL    HW214109   8.867   4.944   2.768 -0.1129  0.7605 -0.4325
 4511SOL     OW14110   1.382   4.758   9.363  0.0096  0.3279  0.2566
 4511SOL    HW114111   1.455   4.797   9.410  0.7110  1.1646 -1.4633
 4511SOL    HW214112   1.422   4.696   9.302 -0.7248  0.5332 -0.4593
 4512SOL     OW14113   7.167   4.709   2.037 -0.2527 -0.1827 -0.1225
 4512SOL    HW114114   7.106   4.729   1.966  1.9718  0.3827 -1.9824
 4512SOL    HW214115   7.152   4.617   2.057 -0.5808 -0.4932 -1.6949
 4513SOL     OW14116   2.600   7.041   0.850 -0.4948 -0.0602  0.2650
 4513SOL    HW114117   2.520   7.092   0.841 -1.1266 -1.0228  0.2756
 4513SOL    HW214118   2.622   7.047   0.943  0.1596  1.2151  0.0592
 4514SOL     OW14119   2.740   5.541   7.197  0.1298  0.4119  0.1913
 4514SOL    HW114120   2.759   5.630   7.169 -3.2036  0.7134 -1.6232
 4514SOL    HW214121   2.682   5.551   7.273 -1.5348 -0.0857 -0.9564
 4515SOL     OW14122   1.577   9.486   2.509  0.1061  0.2655  0.2513
 4515SOL    HW114123   1.510   9.497   2.576 -1.1183  1.1151 -1.0520
 4515SOL    HW214124   1.529   9.464   2.430  1.3452  1.0108 -0.7565
 4516SOL     OW14125   4.494   4.250   9.582 -0.8109 -0.0484 -0.5682
 4516SOL    HW114126   4.524   4.159   9.592  0.4690  0.2612 -1.3530
 4516SOL    HW214127   4.422   4.244   9.519 -2.4043 -0.7920  1.2509
 4517SOL     OW14128   1.742   0.024   5.447 -0.0039  0.5283 -0.3057
 4517SOL    HW114129   1.745   0.114   5.479 -0.3740  0.5221 -0.2490
 4517SOL    HW214130   1.651   0.010   5.422 -0.6224 -0.7381  2.3160
 4518SOL     OW14131   2.086   4.531   6.000 -0.0006 -0.0446 -0.0380
 4518SOL    HW114132   2.160   4.592   5.993  1.0046 -1.1778  0.4391
 4518SOL    HW214133   2.101   4.466   5.932  0.6581 -1.5239  1.4630
 4519SOL     OW14134   1.717   6.192   9.873  0.4235  0.0188 -0.3385
 4519SOL    HW114135   1.650   6.241   9.825  0.3488  0.4164  0.1568
 4519SOL    HW214136   1.797   6.203   9.821  0.0920 -0.5306 -0.9764
 4520SOL     OW14137   0.285   3.542   6.008 -0.2075 -0.4102 -0.5005
 4520SOL    HW114138   0.232   3.498   6.074  0.1582 -1.3446 -0.8226
 4520SOL    HW214139   0.307   3.626   6.048  0.7495 -1.3055  0.9496
 4521SOL     OW14140   4.578   9.604   0.637 -0.2834  0.7285  0.3004
 4521SOL    HW114141   4.566   9.546   0.712  1.4289  0.7927  0.6664
 4521SOL    HW214142   4.520   9.569   0.569 -0.7551 -0.2059  1.1616
 4522SOL     OW14143   0.755   5.883   5.199  0.2696  0.0949 -0.1513
 4522SOL    HW114144   0.719   5.952   5.255  0.9166  1.5513 -1.4665
 4522SOL    HW214145   0.678   5.840   5.161 -0.1387  0.0785  0.6569
 4523SOL     OW14146   6.887   7.846   2.004 -0.8278  0.1786  0.0934
 4523SOL    HW114147   6.825   7.894   2.059 -0.0460 -0.5532  1.6860
 4523SOL    HW214148   6.973   7.871   2.037 -0.3924 -2.0180  0.7558
 4524SOL     OW14149   5.914   9.104   3.159 -0.1213 -0.0817 -0.2662
 4524SOL    HW114150   5.926   9.030   3.219  2.1201 -1.5088 -2.2733
 4524SOL    HW214151   5.878   9.064   3.079  0.8466  1.0365 -1.2911
 4525SOL     OW14152   6.781   8.288   9.881 -0.2494  1.0681  0.0936
 4525SOL    HW114153   6.748   8.238   9.956 -0.3970  2.1742  0.7817
 4525SOL    HW214154   6.795   8.376   9.915  3.0302  0.8079 -0.2509
 4526SOL     OW14155   9.132   3.486   1.362  0.0975 -0.0268  0.4141
 4526SOL    HW114156   9.105   3.509   1.273  0.4651 -0.3019  0.2323
 4526SOL    HW214157   9.189   3.558   1.388  1.5316 -0.8755 -0.2866
 4527SOL     OW14158   4.950   2.723   2.837 -0.4522 -0.0739  0.0469
 4527SOL    HW114159   5.005   2.645   2.827  1.8262  1.3991  0.3929
 4527SOL    HW214160   4.942   2.757   2.748 -0.1802  0.0906  0.0825
 4528SOL     OW14161   9.768   4.043   9.840 -0.1263 -0.0910  0.0837
 4528SOL    HW114162   9.752   4.001   9.924  1.8717  0.4973  0.8342
 4528SOL    HW214163   9.713   4.121   9.841  0.2168  0.1527  1.0829
 4529SOL     OW14164   9.874   2.496   2.282  0.0124 -0.3832  0.5582
 4529SOL    HW114165   9.791   2.456   2.309  0.0234  0.4885  1.9415
 4529SOL    HW214166   9.926   2.423   2.250 -0.5400 -1.2575  1.5969
 4530SOL     OW14167   2.764   3.897   5.984  0.4531  0.6830 -0.6715
 4530SOL    HW114168   2.758   3.817   5.933 -0.3495  0.9762 -1.0468
 4530SOL    HW214169   2.787   3.965   5.920  1.0652  0.7742 -0.3687
 4531SOL     OW14170   7.892   9.759   5.991 -0.2454 -0.1061 -0.1473
 4531SOL    HW114171   7.952   9.686   6.008 -0.7568 -0.5616 -0.2491
 4531SOL    HW214172   7.912   9.823   6.060 -0.0032 -0.4786  0.1356
 4532SOL     OW14173   8.400   9.312   1.961  0.2225  0.0858  0.1551
 4532SOL    HW114174   8.392   9.235   2.018 -0.2546  0.2046  0.2524
 4532SOL    HW214175   8.323   9.365   1.982  0.0586  0.1476 -0.5811
 4533SOL     OW14176   9.507   2.828   5.817  0.0284 -0.1216  0.2074
 4533SOL    HW114177   9.533   2.911   5.778 -0.5210  0.5082  1.1407
 4533SOL    HW214178   9.512   2.765   5.745 -1.6938  1.1280 -1.1007
 4534SOL     OW14179   5.997   6.488   1.500  0.2470  0.3843 -0.0702
 4534SOL    HW114180   5.919   6.506   1.552 -0.6768  1.7629 -1.8071
 4534SOL    HW214181   5.964   6.440   1.424  1.3396 -0.3498 -0.1046
 4535SOL     OW14182   6.943   8.582   8.307  0.0307  0.1304 -0.1270
 4535SOL    HW114183   6.912   8.643   8.375  0.2001  1.0702 -0.8631
 4535SOL    HW214184   6.925   8.495   8.343  0.3174  0.5930  1.2070
 4536SOL     OW14185   7.484   3.576   1.350 -0.0106  0.4606 -0.2003
 4536SOL    HW114186   7.485   3.584   1.446  0.1164  2.7613 -0.3382
 4536SOL    HW214187   7.427   3.501   1.333  1.1373 -0.9364  1.6857
 4537SOL     OW14188   0.256   6.935   8.337  0.4246 -0.5445 -0.7564
 4537SOL    HW114189   0.195   7.007   8.318  1.4887  0.1460 -1.7277
 4537SOL    HW214190   0.340   6.978   8.353  0.6980 -1.4848  0.4286
 4538SOL     OW14191   9.138   2.321   2.643 -0.2467  0.2101 -0.3761
 4538SOL    HW114192   9.201   2.354   2.578 -0.5434  1.2329 -0.1495
 4538SOL    HW214193   9.186   2.252   2.689  0.7699  1.0741 -0.1073
 4539SOL     OW14194   2.185   0.346   7.952 -0.5490 -0.3323  0.0070
 4539SOL    HW114195   2.201   0.438   7.928 -2.6298 -0.3480 -1.8002
 4539SOL    HW214196   2.231   0.296   7.884 -0.6390 -0.5848  0.1337
 4540SOL     OW14197   0.940   1.774   2.387 -0.3129  0.3340  0.7366
 4540SOL    HW114198   0.922   1.777   2.481 -2.4973  1.7292  0.3189
 4540SOL    HW214199   0.869   1.823   2.346  0.4171 -0.4793 -1.6967
 4541SOL     OW14200   0.864   8.977   8.331  0.2242 -0.1460  0.4188
 4541SOL    HW114201   0.833   8.915   8.397  1.7301  1.5013  2.8377
 4541SOL    HW214202   0.790   8.987   8.270 -1.5295 -1.1841  2.2760
 4542SOL     OW14203   4.775   7.094   6.800  0.5684  0.4349  0.1355
 4542SOL    HW114204   4.699   7.041   6.775  0.8354 -0.2032  0.6303
 4542SOL    HW214205   4.806   7.133   6.718 -0.7286  1.3067  0.0355
 4543SOL     OW14206   1.303   3.437   2.854 -0.0977  0.2734  0.1402
 4543SOL    HW114207   1.337   3.504   2.913 -2.2211  1.5484  0.0380
 4543SOL    HW214208   1.368   3.366   2.857  1.4436  1.6619  1.4640
 4544SOL     OW14209   3.291   3.163   4.286  0.6971 -0.1242  0.0001
 4544SOL    HW114210   3.249   3.190   4.368 -1.5364 -0.7149 -0.8794
 4544SOL    HW214211   3.270   3.070   4.279 -1.3266  0.4051 -2.3765
 4545SOL     OW14212   8.035   3.989   7.538  0.4182  0.3053 -0.3285
 4545SOL    HW114213   7.987   4.072   7.533  0.4603  0.3089 -0.7702
 4545SOL    HW214214   8.043   3.961   7.447 -0.1183 -0.4909 -0.1365
 4546SOL     OW14215   2.568   4.356   0.147  0.8378  0.2489  0.2647
 4546SOL    HW114216   2.569   4.444   0.109 -0.9772  0.9308  1.6742
 4546SOL    HW214217   2.551   4.298   0.072  0.3349  1.2622 -0.4323
 4547SOL     OW14218   9.431   5.662   4.135 -0.0403  0.4767 -0.0383
 4547SOL    HW114219   9.476   5.657   4.051  0.4829 -0.8788  0.2941
 4547SOL    HW214220   9.348   5.707   4.115  0.5315  1.1209 -1.0530
 4548SOL     OW14221   0.403   4.290   1.763  0.2840  0.1527 -0.1660
 4548SOL    HW114222   0.462   4.259   1.832 -0.3918 -0.7052  0.0505
 4548SOL    HW214223   0.391   4.213   1.707 -0.6524  0.2990 -0.1837
 4549SOL     OW14224   5.262   1.564   6.921  0.0643  0.2351 -0.1827
 4549SOL    HW114225   5.211   1.548   6.842  1.3822 -0.9918 -0.8337
 4549SOL    HW214226   5.325   1.492   6.923  0.3219  0.4669  1.7753
 4550SOL     OW14227   7.778   0.105   4.555 -0.3938 -0.2456  0.1454
 4550SOL    HW114228   7.707   0.137   4.611 -1.4676 -3.7409  1.0666
 4550SOL    HW214229   7.735   0.046   4.493  1.3846 -0.1031 -1.3029
 4551SOL     OW14230   0.107   8.679   2.875  0.3012  0.1277  0.3087
 4551SOL    HW114231   0.122   8.622   2.800 -1.5550 -2.7340  1.9491
 4551SOL    HW214232   0.128   8.767   2.842  1.5520 -1.2048 -2.8875
 4552SOL     OW14233   5.376   1.825   3.753 -0.5753 -0.0700 -0.1858
 4552SOL    HW114234   5.329   1.828   3.670  0.1505 -0.1288 -0.6065
 4552SOL    HW214235   5.457   1.873   3.736  2.1555 -4.4579 -1.1604
 4553SOL     OW14236   1.656   2.157   5.189  0.9262 -0.1831  0.3311
 4553SOL    HW114237   1.721   2.116   5.132  0.6222 -0.9089  0.4977
 4553SOL    HW214238   1.572   2.142   5.144  0.7370 -0.3569  0.7355
 4554SOL     OW14239   0.172   1.072   2.390  0.0672  0.1999  0.0376
 4554SOL    HW114240   0.241   1.024   2.345 -0.9248  0.6198 -2.0803
 4554SOL    HW214241   0.128   1.122   2.320 -2.1274  0.2365  1.3397
 4555SOL     OW14242   0.810   6.368   8.308 -0.9354  0.1301 -0.2726
 4555SOL    HW114243   0.750   6.343   8.238 -0.9815  0.4963 -0.3663
 4555SOL    HW214244   0.769   6.444   8.349 -0.5636  0.3445 -0.2955
 4556SOL     OW14245   4.083   7.315   6.295 -0.3152 -0.0246  0.4162
 4556SOL    HW114246   4.178   7.308   6.288 -0.2484  1.1433 -0.1978
 4556SOL    HW214247   4.056   7.234   6.338  0.9954 -0.1843  1.0060
 4557SOL     OW14248   8.650   2.226   5.927  0.0396 -0.0274 -0.0046
 4557SOL    HW114249   8.613   2.179   6.002 -1.8988 -1.7716 -1.9386
 4557SOL    HW214250   8.606   2.311   5.928 -0.6235 -0.3698  0.3224
 4558SOL     OW14251   3.207   0.643   9.072 -0.1252 -0.2323  0.5170
 4558SOL    HW114252   3.228   0.556   9.108 -1.6616 -0.5531  0.7030
 4558SOL    HW214253   3.139   0.677   9.130  2.3214  2.3318  2.1420
 4559SOL     OW14254   8.518   7.572   9.157  0.1716  0.5218 -0.5081
 4559SOL    HW114255   8.610   7.587   9.135 -0.3156  3.5467 -0.9322
 4559SOL    HW214256   8.473   7.649   9.124 -2.3390 -0.2356  0.9038
 4560SOL     OW14257   6.314   9.356   6.972 -0.2476  0.4684 -0.1971
 4560SOL    HW114258   6.269   9.404   7.042 -1.3193  1.3436 -1.4291
 4560SOL    HW214259   6.288   9.402   6.891 -2.2370 -2.7759 -1.5998
 4561SOL     OW14260   9.442   9.107   2.005 -0.2652 -0.0363 -0.1236
 4561SOL    HW114261   9.383   9.033   2.009 -0.5688  0.2153  0.0777
 4561SOL    HW214262   9.411   9.167   2.073  0.6819 -0.2367  0.4954
 4562SOL     OW14263   5.564   5.654   8.474  0.3071  0.0128 -0.4438
 4562SOL    HW114264   5.528   5.741   8.488  0.1883 -0.2105  0.8261
 4562SOL    HW214265   5.551   5.636   8.381 -0.2194  1.0972 -0.5905
 4563SOL     OW14266   8.775   4.854   1.505 -0.2164 -0.3475 -0.2589
 4563SOL    HW114267   8.760   4.774   1.455  1.5982 -0.1287 -1.2604
 4563SOL    HW214268   8.733   4.923   1.453 -1.7870 -0.5996  0.6086
 4564SOL     OW14269   4.157   0.375   9.083 -0.3904  0.8058  0.7895
 4564SOL    HW114270   4.224   0.434   9.049  1.6288 -0.9290  1.5301
 4564SOL    HW214271   4.196   0.336   9.161 -1.0604 -2.4184 -0.3113
 4565SOL     OW14272   2.131   8.828   3.469 -0.6481 -0.0949 -0.5299
 4565SOL    HW114273   2.039   8.823   3.445 -0.5394 -0.7505 -0.8551
 4565SOL    HW214274   2.132   8.864   3.558 -1.1049  1.6708 -1.2103
 4566SOL     OW14275   3.033   2.592   4.170 -0.1427 -0.0329 -0.0816
 4566SOL    HW114276   3.067   2.586   4.259 -1.3229  0.9746  0.4754
 4566SOL    HW214277   3.105   2.562   4.115  0.7310 -0.3654  1.1795
 4567SOL     OW14278   2.367   1.719   8.965  0.2030  0.2628  0.4451
 4567SOL    HW114279   2.443   1.739   9.020  0.7250 -1.0872  0.2548
 4567SOL    HW214280   2.404   1.688   8.883 -0.5689  2.5876 -0.8797
 4568SOL     OW14281   2.409   2.942   2.969  0.0705  0.4154  0.3113
 4568SOL    HW114282   2.345   2.977   3.030 -1.2854  0.4341 -1.0573
 4568SOL    HW214283   2.424   2.853   2.999 -0.3112  0.5300  0.8651
 4569SOL     OW14284   7.314   2.665   7.680  0.5495  0.5049  0.4410
 4569SOL    HW114285   7.349   2.630   7.598 -1.9914  0.0712 -0.5713
 4569SOL    HW214286   7.257   2.736   7.652 -0.2963  0.4000  1.8333
 4570SOL     OW14287   4.500   8.099   1.745 -0.6657 -0.3108  0.6930
 4570SOL    HW114288   4.437   8.045   1.697 -0.5774  0.0056  0.2163
 4570SOL    HW214289   4.461   8.111   1.832 -1.4688  0.2546  0.2567
 4571SOL     OW14290   7.028   3.937   0.190  0.1548  0.2197  0.1749
 4571SOL    HW114291   6.934   3.937   0.170  0.3831  1.7176 -1.0365
 4571SOL    HW214292   7.047   3.846   0.214 -1.4783 -0.2523 -0.1895
 4572SOL     OW14293   7.330   6.658   2.769  0.6672 -0.1146  0.0607
 4572SOL    HW114294   7.400   6.679   2.830 -0.1249  0.9515  0.6506
 4572SOL    HW214295   7.254   6.705   2.803 -0.3067 -1.1206 -0.6370
 4573SOL     OW14296   5.059   2.333   4.700  0.0536  0.0192  0.1139
 4573SOL    HW114297   5.018   2.267   4.757 -2.2530  1.6138  0.4412
 4573SOL    HW214298   4.989   2.362   4.642  1.2478  1.5074 -0.6627
 4574SOL     OW14299   4.378   3.148   5.512 -0.2615 -0.3799  0.5716
 4574SOL    HW114300   4.361   3.092   5.587  2.0018 -1.7708  0.1580
 4574SOL    HW214301   4.460   3.114   5.475 -0.3746  1.3564 -1.4855
 4575SOL     OW14302   1.066   3.654   7.015  0.5921 -0.4186 -0.3345
 4575SOL    HW114303   0.995   3.674   7.076  0.9573  0.6201 -0.2301
 4575SOL    HW214304   1.090   3.564   7.034  0.2642 -0.3131  0.6035
 4576SOL     OW14305   1.398   8.697   2.789  0.3527  0.1459 -0.0936
 4576SOL    HW114306   1.325   8.755   2.814 -1.0820 -1.9370  0.8394
 4576SOL    HW214307   1.368   8.610   2.813  3.2263 -0.8148  0.3835
 4577SOL     OW14308   6.408   9.750   2.706 -0.6869 -0.3737 -0.3844
 4577SOL    HW114309   6.502   9.739   2.690 -0.2249 -0.5685  2.0495
 4577SOL    HW214310   6.388   9.690   2.777 -2.2709  0.9044  0.3255
 4578SOL     OW14311   6.652   5.640   4.725 -0.1811  0.3063  0.3686
 4578SOL    HW114312   6.592   5.713   4.711  1.6116  1.5438 -1.5206
 4578SOL    HW214313   6.702   5.634   4.643  2.7983 -0.1017  2.0520
 4579SOL     OW14314   6.240   2.827   4.708  0.5175 -0.4691 -0.2525
 4579SOL    HW114315   6.275   2.884   4.777 -1.3160 -0.2653  0.5640
 4579SOL    HW214316   6.260   2.738   4.738 -0.5563 -0.3982  0.7633
 4580SOL     OW14317   2.899   4.947   6.391  0.5570 -0.1620 -0.0343
 4580SOL    HW114318   2.812   4.912   6.370  0.6510  0.3734 -1.4256
 4580SOL    HW214319   2.889   4.985   6.478 -0.9886  1.0916 -0.6967
 4581SOL     OW14320   3.023   9.599   9.779  0.8317  0.2387  0.6036
 4581SOL    HW114321   3.118   9.585   9.776  1.1214  2.0252 -1.2762
 4581SOL    HW214322   3.011   9.685   9.738 -1.7150 -0.6215 -0.6789
 4582SOL     OW14323   8.853   0.700   6.019 -0.4765  0.5543  0.1432
 4582SOL    HW114324   8.924   0.744   5.972 -0.2753  1.2590  1.0759
 4582SOL    HW214325   8.883   0.610   6.030  0.5426  0.9904  1.0360
 4583SOL     OW14326   9.851   5.106   6.435 -0.4276  0.6445  0.4554
 4583SOL    HW114327   9.874   5.131   6.524  1.1508 -0.5220  0.4182
 4583SOL    HW214328   9.829   5.013   6.441 -2.9908  1.1509  0.0575
 4584SOL     OW14329   0.322   5.530   7.358 -0.2664  0.3573 -0.1897
 4584SOL    HW114330   0.243   5.494   7.319 -1.1347  1.2462  0.6817
 4584SOL    HW214331   0.297   5.618   7.386  0.4682 -0.0028  1.7630
 4585SOL     OW14332   1.275   4.988   2.148  0.0914 -0.2664  0.1660
 4585SOL    HW114333   1.336   4.917   2.129 -0.4595 -1.0903  1.3300
 4585SOL    HW214334   1.189   4.947   2.141 -0.3475  0.8157 -1.2052
 4586SOL     OW14335   4.180   9.539   2.878  0.3912  0.0219 -0.5931
 4586SOL    HW114336   4.211   9.450   2.863  3.3032  0.6975  0.8160
 4586SOL    HW214337   4.104   9.528   2.936  0.9574 -1.5123 -0.0932
 4587SOL     OW14338   8.882   5.037   5.514 -0.0761 -0.1415 -0.6611
 4587SOL    HW114339   8.896   4.993   5.597  1.1511  0.1692 -0.6831
 4587SOL    HW214340   8.806   5.094   5.529 -1.4011 -1.8738 -0.5024
 4588SOL     OW14341   3.402   9.550   2.162 -0.0769 -0.0208 -0.2941
 4588SOL    HW114342   3.411   9.482   2.230  0.2511  0.8652  0.5793
 4588SOL    HW214343   3.316   9.589   2.179 -0.6312 -0.7619 -1.3238
 4589SOL     OW14344   7.901   8.385   7.770  0.1777  0.6329 -0.1120
 4589SOL    HW114345   7.860   8.417   7.850  1.0381  2.2414 -0.2761
 4589SOL    HW214346   7.972   8.447   7.752  0.6259 -0.2432 -1.5853
 4590SOL     OW14347   4.664   9.249   2.469 -0.2343 -0.1750  0.1955
 4590SOL    HW114348   4.716   9.241   2.390 -1.8758  0.6420 -1.0248
 4590SOL    HW214349   4.624   9.163   2.481  0.8374 -0.6105  0.7663
 4591SOL     OW14350   1.014   1.983   8.414  0.0452 -0.4917  0.2255
 4591SOL    HW114351   0.949   1.914   8.413 -0.2446 -0.2221 -1.2622
 4591SOL    HW214352   1.044   1.986   8.505 -1.6494 -0.9500  0.8371
 4592SOL     OW14353   9.205   0.061   7.939 -0.1344  0.1032 -0.5235
 4592SOL    HW114354   9.158   0.077   8.020 -0.0622 -0.1714 -0.4269
 4592SOL    HW214355   9.157   0.111   7.873 -0.0417  0.5335 -0.2695
 4593SOL     OW14356   7.213   4.749   5.176 -0.5241 -0.1258  0.7341
 4593SOL    HW114357   7.297   4.794   5.188 -0.3430 -0.7267  1.7955
 4593SOL    HW214358   7.220   4.709   5.089 -0.6550  1.7647 -0.2156
 4594SOL     OW14359   9.724   7.555   1.947 -0.1121  0.1418  0.4622
 4594SOL    HW114360   9.730   7.554   1.852 -0.3877 -1.3736  0.4399
 4594SOL    HW214361   9.650   7.497   1.967  0.5125 -0.2841  1.6322
 4595SOL     OW14362   8.940   4.026   2.078 -0.2699  0.3570  0.5520
 4595SOL    HW114363   9.032   4.044   2.098  0.0346  0.6445 -0.9571
 4595SOL    HW214364   8.910   4.106   2.034 -0.6513 -0.4836 -0.7698
 4596SOL     OW14365   2.778   0.044   1.419 -0.1372  0.5183  0.2203
 4596SOL    HW114366   2.717   0.087   1.359 -1.0331  0.0052  0.7429
 4596SOL    HW214367   2.776   0.099   1.497 -1.5115 -0.5781  1.0028
 4597SOL     OW14368   9.131   8.864   9.594  0.7130  0.2813 -0.1313
 4597SOL    HW114369   9.067   8.927   9.562  2.2944  2.4556  0.6644
 4597SOL    HW214370   9.109   8.852   9.686  0.8842  0.2839 -0.0899
 4598SOL     OW14371   4.657   9.831   2.886  0.5153  0.3687 -0.0416
 4598SOL    HW114372   4.737   9.826   2.939  1.5059  0.5321 -1.4597
 4598SOL    HW214373   4.624   9.741   2.884  0.5101  0.3420  0.7556
 4599SOL     OW14374   3.808   3.598   9.777  0.3206  0.3304  0.0077
 4599SOL    HW114375   3.825   3.630   9.689 -0.1505 -0.0441 -0.2261
 4599SOL    HW214376   3.712   3.600   9.785  0.3084 -0.4900  0.1810
 4600SOL     OW14377   6.369   5.160   5.581  0.2480  0.0600  0.7511
 4600SOL    HW114378   6.290   5.112   5.605 -0.3728  0.2074 -0.8693
 4600SOL    HW214379   6.345   5.208   5.502  1.4986  1.3595  1.1006
 4601SOL     OW14380   9.895   0.073   2.215 -0.2256  0.3061  0.1060
 4601SOL    HW114381   9.987   0.085   2.238  0.2129 -0.5431 -1.0793
 4601SOL    HW214382   9.885   0.124   2.134 -0.7681  0.3126  0.1794
 4602SOL     OW14383   8.367   7.913   5.195  0.0128  0.1054  0.5375
 4602SOL    HW114384   8.352   7.828   5.237 -0.1130  0.1890  0.6633
 4602SOL    HW214385   8.431   7.957   5.250  0.2372  0.0082  0.3553
 4603SOL     OW14386   5.996   1.079   9.645 -0.1562  0.2958 -0.1019
 4603SOL    HW114387   5.948   1.018   9.701  0.7281 -0.1284  0.2179
 4603SOL    HW214388   5.932   1.107   9.579 -0.4354 -1.4164 -0.6007
 4604SOL     OW14389   3.887   0.172   8.044 -0.4542  0.4478  0.4548
 4604SOL    HW114390   3.879   0.194   8.137 -1.4962 -0.9662  0.7408
 4604SOL    HW214391   3.799   0.144   8.019  0.0795 -0.2951 -0.6613
 4605SOL     OW14392   4.759   6.777   8.009  0.4263  0.3870  0.2426
 4605SOL    HW114393   4.710   6.730   7.941  1.2995  0.2551 -0.3100
 4605SOL    HW214394   4.700   6.778   8.084  0.2576 -1.3669  0.1904
 4606SOL     OW14395   7.671   6.145   2.175  0.7470  0.1142 -0.3595
 4606SOL    HW114396   7.691   6.065   2.126  1.4776  1.0066 -1.5965
 4606SOL    HW214397   7.634   6.205   2.109 -0.1111  0.6910  0.6092
 4607SOL     OW14398   0.616   6.521   1.378 -0.4664 -0.1462 -0.1596
 4607SOL    HW114399   0.643   6.588   1.441  0.3035  0.2477 -0.8723
 4607SOL    HW214400   0.606   6.441   1.430 -0.1559  0.2369  0.5065
 4608SOL     OW14401   3.421   5.700   1.184 -0.1942  0.4794  0.6004
 4608SOL    HW114402   3.392   5.714   1.274 -1.0692 -1.1591  0.6137
 4608SOL    HW214403   3.342   5.677   1.136  0.2193  1.5342 -0.6651
 4609SOL     OW14404   5.288   3.693   2.838 -0.2786  0.1111 -0.0753
 4609SOL    HW114405   5.373   3.727   2.864 -0.2781  0.0037  0.0657
 4609SOL    HW214406   5.272   3.731   2.752  0.6217 -1.1131 -0.8108
 4610SOL     OW14407   0.236   5.817   1.124  0.1354 -0.2944 -0.6107
 4610SOL    HW114408   0.313   5.763   1.140  0.7428  0.4615 -0.9174
 4610SOL    HW214409   0.162   5.757   1.130  0.7677 -1.0680 -0.5200
 4611SOL     OW14410   6.195   5.664   0.196 -0.4447 -0.2510 -0.0403
 4611SOL    HW114411   6.229   5.601   0.259  0.3391  0.7803  0.6011
 4611SOL    HW214412   6.119   5.704   0.239 -1.3880 -1.2356 -0.7330
 4612SOL     OW14413   2.429   0.679   1.453 -0.1972  0.0823  0.1630
 4612SOL    HW114414   2.399   0.614   1.516  1.1275  0.8718  1.6745
 4612SOL    HW214415   2.349   0.723   1.424 -1.1100 -2.1091 -0.8374
 4613SOL     OW14416   7.819   3.415   9.143  0.4471 -0.3135 -0.3212
 4613SOL    HW114417   7.903   3.373   9.163 -0.3143 -1.5692  0.3487
 4613SOL    HW214418   7.773   3.417   9.227 -0.3408  0.0117 -0.7526
 4614SOL     OW14419   3.622   9.603   0.266 -0.0061  0.0723 -0.4674
 4614SOL    HW114420   3.652   9.652   0.342  1.7839 -2.2844  0.4524
 4614SOL    HW214421   3.537   9.567   0.292 -0.6842  1.4661 -0.6536
 4615SOL     OW14422   2.051   7.215   9.506 -0.2690 -0.8654 -0.0848
 4615SOL    HW114423   2.095   7.214   9.422  0.2901  0.0524  0.1800
 4615SOL    HW214424   2.030   7.124   9.524 -0.0608 -1.1085 -1.0367
 4616SOL     OW14425   3.497   3.220   0.963 -0.6432 -0.2141 -0.3934
 4616SOL    HW114426   3.527   3.161   0.894 -0.7475 -0.2509 -0.4082
 4616SOL    HW214427   3.402   3.205   0.966 -0.3976 -1.7594  1.1836
 4617SOL     OW14428   8.660   2.533   2.028  0.4511  0.8365 -0.6355
 4617SOL    HW114429   8.736   2.508   1.975  0.5341  1.9472 -1.0450
 4617SOL    HW214430   8.605   2.584   1.970 -0.8118 -0.2523 -0.4468
 4618SOL     OW14431   9.110   8.398   2.937 -0.2547  0.2031  0.2912
 4618SOL    HW114432   9.138   8.477   2.891  0.5917  1.3813  2.7188
 4618SOL    HW214433   9.155   8.327   2.891 -0.2360  1.1952 -1.3020
 4619SOL     OW14434   4.849   1.780   6.732  0.0894 -0.2717  0.2634
 4619SOL    HW114435   4.834   1.811   6.821  1.9346 -0.0383  0.5312
 4619SOL    HW214436   4.858   1.860   6.680  0.5150 -0.3870  0.1530
 4620SOL     OW14437   8.239   7.119   9.464  0.1443 -0.0879 -0.2572
 4620SOL    HW114438   8.306   7.169   9.510  2.0187 -0.8773 -1.9846
 4620SOL    HW214439   8.243   7.032   9.504 -0.9647  0.2560  0.6597
 4621SOL     OW14440   0.637   6.197   6.768 -0.3483  0.2543  0.1478
 4621SOL    HW114441   0.686   6.171   6.846 -0.0579 -0.5389 -0.2878
 4621SOL    HW214442   0.694   6.260   6.724  0.0107 -0.1897 -0.0287
 4622SOL     OW14443   2.888   2.078   7.319  0.3563 -0.3947  0.2801
 4622SOL    HW114444   2.951   2.051   7.252  1.7648 -0.0465  1.4221
 4622SOL    HW214445   2.803   2.059   7.280  0.9200  2.4950 -2.8359
 4623SOL     OW14446   6.329   3.368   5.649 -0.8368 -0.0065 -0.3678
 4623SOL    HW114447   6.237   3.382   5.673 -0.8168  1.1759 -0.9124
 4623SOL    HW214448   6.332   3.392   5.556  0.1824  0.7427 -0.1497
 4624SOL     OW14449   0.739   0.480   8.199  0.0507 -0.3585 -0.2046
 4624SOL    HW114450   0.731   0.474   8.104 -2.9753  1.4484 -0.1716
 4624SOL    HW214451   0.825   0.519   8.213  0.0823  0.3995 -2.2612
 4625SOL     OW14452   8.003   8.988   2.036 -0.1796  0.0898 -0.0099
 4625SOL    HW114453   7.995   8.897   2.064 -1.3814 -0.2659 -1.3910
 4625SOL    HW214454   7.921   9.029   2.063  0.8245  1.1068  1.6635
 4626SOL     OW14455   7.650   0.375   0.445 -0.4100  0.3308 -0.2608
 4626SOL    HW114456   7.618   0.290   0.414 -1.9655  1.3157 -1.5019
 4626SOL    HW214457   7.570   0.427   0.460  0.4757  1.3303  1.2561
 4627SOL     OW14458   1.173   2.353   0.390 -0.1675 -0.0892  0.3142
 4627SOL    HW114459   1.196   2.326   0.479  0.7004 -1.5764 -0.3239
 4627SOL    HW214460   1.078   2.367   0.393 -0.3752 -1.5227  1.1262
 4628SOL     OW14461   7.562   6.110   7.900 -0.6244  0.5417  0.5264
 4628SOL    HW114462   7.618   6.042   7.938 -0.0015  0.6333 -0.1991
 4628SOL    HW214463   7.479   6.102   7.947 -1.0670 -1.6764 -0.5086
 4629SOL     OW14464   7.916   7.568   5.496 -0.6379  0.0246  0.3400
 4629SOL    HW114465   7.842   7.625   5.513 -0.6306 -0.2803  1.4827
 4629SOL    HW214466   7.877   7.481   5.484 -0.4100 -0.4007  2.3246
 4630SOL     OW14467   5.837   5.906   0.165  0.2821 -0.0485  0.4158
 4630SOL    HW114468   5.778   5.901   0.090  2.3766  0.1314 -1.3748
 4630SOL    HW214469   5.810   5.835   0.223 -1.6678  0.0623 -0.3033
 4631SOL     OW14470   5.365   2.558   0.099  0.1532  0.1867  0.0496
 4631SOL    HW114471   5.456   2.534   0.081  0.2566  0.8296 -0.3115
 4631SOL    HW214472   5.359   2.650   0.073 -0.8659 -0.1318 -0.8913
 4632SOL     OW14473   4.285   2.318   5.668 -0.0310  0.2122  0.5594
 4632SOL    HW114474   4.338   2.328   5.748 -1.3352 -1.0564  1.6127
 4632SOL    HW214475   4.312   2.393   5.614  1.0305  1.0091  2.0812
 4633SOL     OW14476   6.951   8.784   8.064  0.5365 -0.4620 -0.4664
 4633SOL    HW114477   6.967   8.717   8.130 -0.5733 -0.5955 -0.3090
 4633SOL    HW214478   7.036   8.799   8.023  0.9186 -1.5271 -0.0869
 4634SOL     OW14479   4.551   0.212   0.348 -0.0296 -0.3426  0.2188
 4634SOL    HW114480   4.535   0.248   0.261 -1.6606 -0.7075  0.3386
 4634SOL    HW214481   4.558   0.118   0.335 -2.8602 -0.7174  0.7191
 4635SOL     OW14482   5.472   0.483   2.928 -0.8813  0.3123  0.2579
 4635SOL    HW114483   5.475   0.537   3.007  1.6223  0.1426  0.3743
 4635SOL    HW214484   5.504   0.397   2.957 -3.7609 -1.0398 -0.1564
 4636SOL     OW14485   2.480   7.665   1.815 -0.5052  0.3912 -0.1488
 4636SOL    HW114486   2.488   7.581   1.770 -0.3814  1.3874 -2.1241
 4636SOL    HW214487   2.555   7.716   1.784 -0.8646  1.4129  0.6038
 4637SOL     OW14488   4.781   1.752   7.686 -0.0025 -0.3232 -0.3254
 4637SOL    HW114489   4.837   1.675   7.695 -0.1024 -0.2930  0.6630
 4637SOL    HW214490   4.693   1.716   7.675  0.1235 -0.3604 -1.3408
 4638SOL     OW14491   0.868   3.389   6.069  0.3073 -0.2587  0.3014
 4638SOL    HW114492   0.790   3.373   6.122 -0.0985  0.7995  0.0668
 4638SOL    HW214493   0.909   3.466   6.109  1.1333 -0.6953  0.3067
 4639SOL     OW14494   6.389   1.625   3.659 -0.3867  0.0858 -0.0046
 4639SOL    HW114495   6.376   1.677   3.739 -0.1889  0.2323 -0.0669
 4639SOL    HW214496   6.337   1.546   3.673 -0.9130  0.4225 -0.0199
 4640SOL     OW14497   8.268   9.216   6.536  0.7538  0.2232  0.1495
 4640SOL    HW114498   8.327   9.146   6.508  0.8628  0.5066 -0.3503
 4640SOL    HW214499   8.293   9.234   6.627  2.5012  1.3956 -0.5100
 4641SOL     OW14500   4.111   5.106   9.013  0.1666 -0.2342 -0.0144
 4641SOL    HW114501   4.152   5.141   8.934  1.6665  1.0333  1.2679
 4641SOL    HW214502   4.050   5.174   9.041  1.4403  0.4347  1.2405
 4642SOL     OW14503   0.403   0.629   8.058 -0.1679  0.1750 -0.0388
 4642SOL    HW114504   0.456   0.656   7.982  0.2211 -0.9892 -0.2086
 4642SOL    HW214505   0.314   0.657   8.036  0.2783  1.6975  0.0141
 4643SOL     OW14506   5.068   8.782   6.906  0.0165  0.2061  0.6144
 4643SOL    HW114507   5.112   8.767   6.823 -1.3885  0.2970 -0.1828
 4643SOL    HW214508   5.057   8.877   6.911  2.1409  0.4549  2.0471
 4644SOL     OW14509   6.735   3.561   4.714 -0.0675  0.4401 -0.2772
 4644SOL    HW114510   6.715   3.597   4.800 -2.1202 -0.1839 -0.4570
 4644SOL    HW214511   6.777   3.633   4.667 -1.4133  1.6611  0.3322
 4645SOL     OW14512   8.797   8.370   6.522  0.6797 -0.2364  0.5813
 4645SOL    HW114513   8.834   8.457   6.538  0.3531  0.3167 -1.4008
 4645SOL    HW214514   8.851   8.311   6.573  0.8204  1.1278  2.1126
 4646SOL     OW14515   5.388   6.414   9.407 -0.4635  0.8899  0.3067
 4646SOL    HW114516   5.460   6.365   9.370  0.2700 -0.1371  2.8869
 4646SOL    HW214517   5.316   6.351   9.415 -0.3956  0.9019  1.1644
 4647SOL     OW14518   2.929   5.159   9.234 -0.3327 -0.2208  0.4013
 4647SOL    HW114519   3.005   5.138   9.181  0.1180  2.3537 -0.0917
 4647SOL    HW214520   2.964   5.203   9.311 -1.2813  1.6522 -0.1646
 4648SOL     OW14521   3.012   8.574   4.353  0.1470  0.5581 -0.0738
 4648SOL    HW114522   3.028   8.644   4.416  0.7458  0.7073 -0.3905
 4648SOL    HW214523   2.916   8.569   4.347  0.0168 -0.4631  1.9825
 4649SOL     OW14524   0.485   7.048   8.121  0.0342  0.5230  0.7515
 4649SOL    HW114525   0.523   7.010   8.042  0.9317 -0.9112  1.8074
 4649SOL    HW214526   0.558   7.055   8.182 -1.0626 -0.9462  2.3531
 4650SOL     OW14527   5.007   2.455   2.867  0.0662  0.1119 -0.4363
 4650SOL    HW114528   4.912   2.468   2.863 -0.0956 -0.5281  0.7263
 4650SOL    HW214529   5.017   2.372   2.915  1.2357  1.0031  0.9374
 4651SOL     OW14530   6.202   1.598   1.582  0.0682 -0.5631 -0.5806
 4651SOL    HW114531   6.240   1.582   1.496 -1.2278  0.1163 -1.3152
 4651SOL    HW214532   6.155   1.518   1.603 -1.6229  0.1054 -1.6349
 4652SOL     OW14533   2.162   3.832   1.600  0.2133  0.2974  0.2162
 4652SOL    HW114534   2.191   3.855   1.688  1.5410 -0.7912  0.0966
 4652SOL    HW214535   2.122   3.746   1.610  1.0691 -0.1821 -0.3464
 4653SOL     OW14536   8.059   1.227   8.739 -0.0745 -0.4256 -0.4069
 4653SOL    HW114537   8.074   1.133   8.747 -0.3687 -0.5295 -1.0717
 4653SOL    HW214538   8.134   1.260   8.689 -0.3469 -0.4248 -0.8177
 4654SOL     OW14539   0.917   8.128   3.074 -0.2930  0.3484 -0.0743
 4654SOL    HW114540   0.882   8.049   3.114 -1.7441  0.5010 -0.9680
 4654SOL    HW214541   0.921   8.191   3.145  0.6549 -0.4358  0.5950
 4655SOL     OW14542   9.699   6.304   5.356  0.5663 -0.3015  0.0648
 4655SOL    HW114543   9.758   6.243   5.401 -1.8221 -2.7606  0.1996
 4655SOL    HW214544   9.701   6.276   5.264 -0.2402 -0.3501  0.0508
 4656SOL     OW14545   3.977   8.234   6.647  0.0500 -0.0994 -0.1649
 4656SOL    HW114546   3.991   8.196   6.734 -0.4254  1.0424  0.4289
 4656SOL    HW214547   3.884   8.217   6.629  0.3140 -0.9460 -0.7637
 4657SOL     OW14548   3.342   8.905   0.278 -0.8807 -0.4756 -0.2685
 4657SOL    HW114549   3.284   8.965   0.326  2.0258  1.0418  1.6202
 4657SOL    HW214550   3.375   8.846   0.346  0.4611 -0.6998 -1.1003
 4658SOL     OW14551   1.565   1.488   3.962  0.1296  0.4910  0.6263
 4658SOL    HW114552   1.510   1.448   4.029 -0.2111  0.3011  0.2345
 4658SOL    HW214553   1.587   1.575   3.998  0.1961  0.2783  1.1097
 4659SOL     OW14554   3.308   3.336   0.413  0.0925 -0.8797  0.2333
 4659SOL    HW114555   3.281   3.424   0.440  1.1455 -0.3885 -0.2538
 4659SOL    HW214556   3.338   3.294   0.493  0.0471 -0.6192  0.3878
 4660SOL     OW14557   3.117   0.332   5.032  0.3215  0.0334  0.1924
 4660SOL    HW114558   3.166   0.401   5.076 -0.0508  0.4570 -0.0512
 4660SOL    HW214559   3.168   0.312   4.954 -0.2182  0.9211 -0.3912
 4661SOL     OW14560   5.368   0.167   6.994 -0.7232  0.5543 -0.0571
 4661SOL    HW114561   5.362   0.262   6.988 -0.8868  0.6985  1.7839
 4661SOL    HW214562   5.427   0.151   7.067 -0.3286 -0.7718 -0.6327
 4662SOL     OW14563   1.914   1.604   1.170 -0.0690 -0.1980  0.0197
 4662SOL    HW114564   1.919   1.536   1.103  0.0063  2.1090 -2.4541
 4662SOL    HW214565   1.827   1.642   1.159 -0.1487  0.1099  1.4399
 4663SOL     OW14566   6.232   2.994   2.716  0.6308 -0.6170 -0.0053
 4663SOL    HW114567   6.173   2.965   2.785  0.8067  0.3554  0.5776
 4663SOL    HW214568   6.319   2.979   2.751  0.7686  2.0412  1.0304
 4664SOL     OW14569   1.992   4.936   9.336  0.6041 -0.1175  0.6527
 4664SOL    HW114570   2.085   4.960   9.342  0.4782  0.4582  0.3293
 4664SOL    HW214571   1.975   4.888   9.418  1.2509 -0.4686  0.5925
 4665SOL     OW14572   5.266   4.617   4.506  0.1836 -1.0093 -0.1043
 4665SOL    HW114573   5.316   4.565   4.443  3.4652 -0.3142  1.6867
 4665SOL    HW214574   5.270   4.567   4.587 -0.4991 -0.0679  0.5287
 4666SOL     OW14575   6.972   2.373   5.816  0.1218 -0.1955  0.1234
 4666SOL    HW114576   7.001   2.423   5.892 -1.1161  0.3795  0.2424
 4666SOL    HW214577   6.890   2.331   5.844  1.0019 -2.1497 -0.0419
 4667SOL     OW14578   3.986   9.864   3.022 -0.2405  0.1727 -0.0217
 4667SOL    HW114579   3.903   9.843   2.979 -0.6762 -0.0470  0.8939
 4667SOL    HW214580   4.037   9.909   2.955 -1.5618  1.3996 -0.2521
 4668SOL     OW14581   6.063   1.907   1.803 -0.3707 -0.0294  0.1366
 4668SOL    HW114582   5.985   1.890   1.856 -1.1809  2.0134 -0.3223
 4668SOL    HW214583   6.126   1.944   1.864 -0.1129 -0.7335  0.3046
 4669SOL     OW14584   4.398   5.273   5.253  0.1308 -0.5577 -0.4106
 4669SOL    HW114585   4.414   5.207   5.185  0.1681 -0.0806 -0.8659
 4669SOL    HW214586   4.336   5.231   5.312  1.6600 -1.7671  0.4163
 4670SOL     OW14587   1.125   6.163   0.751 -0.6283 -0.1129 -0.2217
 4670SOL    HW114588   1.126   6.230   0.820 -0.6904  0.9795 -1.2547
 4670SOL    HW214589   1.174   6.090   0.789 -2.1624 -0.2416  1.6580
 4671SOL     OW14590   0.839   0.642   5.839  0.4009 -0.3419 -0.1506
 4671SOL    HW114591   0.806   0.585   5.769 -0.3585 -0.6401  0.4313
 4671SOL    HW214592   0.795   0.725   5.825  0.7444 -0.1997 -0.4045
 4672SOL     OW14593   9.398   9.858   9.224 -0.4235 -0.2119  0.1348
 4672SOL    HW114594   9.366   9.868   9.313 -0.3567 -0.6296  0.2074
 4672SOL    HW214595   9.328   9.894   9.169 -0.8349 -0.7411  0.3137
 4673SOL     OW14596   6.459   6.337   7.475  0.0561 -0.1114 -0.1799
 4673SOL    HW114597   6.519   6.283   7.423  0.3395  0.3799 -0.3708
 4673SOL    HW214598   6.508   6.417   7.492 -0.0694 -0.2284  0.7772
 4674SOL     OW14599   0.569   2.833   1.680  0.1166  0.1112 -0.7191
 4674SOL    HW114600   0.595   2.859   1.592 -2.0398  1.2192 -1.0982
 4674SOL    HW214601   0.500   2.896   1.704  0.2852 -0.4887  1.5481
 4675SOL     OW14602   8.921   4.571   0.722  0.2254 -0.4850  0.1212
 4675SOL    HW114603   8.874   4.651   0.747 -0.4081 -0.9319  0.3924
 4675SOL    HW214604   8.914   4.569   0.626 -1.7575 -1.3636  0.2181
 4676SOL     OW14605   3.636   2.130   7.560 -0.4619 -0.4334 -0.2159
 4676SOL    HW114606   3.668   2.218   7.541 -0.5007  0.0036  1.5395
 4676SOL    HW214607   3.715   2.075   7.559  0.0720  0.2272  1.8223
 4677SOL     OW14608   2.087   1.473   8.274  0.0401 -0.2627 -0.3272
 4677SOL    HW114609   2.159   1.533   8.289 -0.6595  0.6599 -0.5721
 4677SOL    HW214610   2.033   1.481   8.353 -0.6049  0.2419 -0.8062
 4678SOL     OW14611   3.869   9.719   3.830 -0.0349  0.5671  0.1178
 4678SOL    HW114612   3.884   9.789   3.893  1.5473  0.5466 -0.2132
 4678SOL    HW214613   3.800   9.753   3.772 -1.8237  0.4139  2.0565
 4679SOL     OW14614   7.214   7.245   5.228  0.1483 -0.7796 -0.2063
 4679SOL    HW114615   7.283   7.304   5.257 -0.3862 -0.0975 -0.3052
 4679SOL    HW214616   7.224   7.240   5.133 -0.4651  0.0132 -0.3256
 4680SOL     OW14617   4.040   1.356   2.860  0.2431 -0.4567  0.3320
 4680SOL    HW114618   4.131   1.367   2.886  0.7500 -1.3407 -0.9636
 4680SOL    HW214619   4.044   1.320   2.771 -1.3538 -1.3704  0.5838
 4681SOL     OW14620   1.488   4.370   9.541  0.3568 -0.2243 -0.3226
 4681SOL    HW114621   1.514   4.454   9.502 -0.0153  0.4600  0.8669
 4681SOL    HW214622   1.549   4.306   9.503  0.4114  0.5108 -1.5240
 4682SOL     OW14623   0.832   4.212   9.419 -0.4606 -0.2688 -0.2537
 4682SOL    HW114624   0.743   4.226   9.386 -1.4820  0.0145  2.3226
 4682SOL    HW214625   0.866   4.300   9.435 -0.7110 -0.3823  1.0544
 4683SOL     OW14626   6.598   4.787   5.068  0.3946 -0.2060 -0.2315
 4683SOL    HW114627   6.598   4.873   5.111  0.1986 -0.0199 -0.5989
 4683SOL    HW214628   6.529   4.738   5.114  2.3538 -1.1512  1.8765
 4684SOL     OW14629   4.599   1.328   0.433 -0.5174  0.2696 -0.1276
 4684SOL    HW114630   4.513   1.324   0.391 -0.4528  1.1810 -0.3668
 4684SOL    HW214631   4.645   1.397   0.385  0.0632  0.3398  0.5267
 4685SOL     OW14632   2.395   9.362   7.098 -0.1531 -0.3742 -0.3975
 4685SOL    HW114633   2.322   9.396   7.047 -0.8844 -1.3259 -0.0191
 4685SOL    HW214634   2.376   9.386   7.188 -0.8444 -1.9653 -0.0771
 4686SOL     OW14635   6.761   1.432   2.080 -0.1076 -0.0631 -0.2006
 4686SOL    HW114636   6.801   1.351   2.048  0.5269 -0.7573  2.1302
 4686SOL    HW214637   6.688   1.403   2.134 -2.0141  1.0990 -2.0474
 4687SOL     OW14638   5.579   2.749   2.522  0.0514  0.1000  0.0928
 4687SOL    HW114639   5.666   2.788   2.522  0.3223 -0.4749 -0.5574
 4687SOL    HW214640   5.592   2.659   2.550  0.6124 -1.7852 -5.0911
 4688SOL     OW14641   3.661   8.760   1.397 -0.4197  0.3620  0.3134
 4688SOL    HW114642   3.621   8.802   1.321 -0.8390 -0.8607 -0.1513
 4688SOL    HW214643   3.597   8.696   1.427  0.4538 -0.3905  0.6354
 4689SOL     OW14644   7.687   6.459   6.683 -0.1888  0.4995 -0.3530
 4689SOL    HW114645   7.768   6.444   6.732 -0.9328  0.4560  0.8957
 4689SOL    HW214646   7.618   6.420   6.737 -1.0198  0.2490 -1.5464
 4690SOL     OW14647   1.358   9.777   4.446 -0.6194 -0.0902  0.0314
 4690SOL    HW114648   1.449   9.755   4.466 -0.1821  0.7897 -0.8782
 4690SOL    HW214649   1.324   9.813   4.528  0.4131  1.2347 -0.0692
 4691SOL     OW14650   4.708   6.111   0.237 -0.2657 -0.7415 -0.7450
 4691SOL    HW114651   4.771   6.180   0.255 -2.6258  1.1275  0.9639
 4691SOL    HW214652   4.714   6.053   0.313  2.1840 -2.9837 -2.4724
 4692SOL     OW14653   9.236   6.412   5.151 -0.4720 -0.2575 -0.2647
 4692SOL    HW114654   9.275   6.325   5.150 -1.8347 -0.9063 -1.1751
 4692SOL    HW214655   9.242   6.441   5.242  0.8671 -0.8750 -0.1378
 4693SOL     OW14656   3.367   4.083   2.145 -0.3284  0.1569  0.4405
 4693SOL    HW114657   3.307   4.064   2.217  1.3427 -0.7511  1.6393
 4693SOL    HW214658   3.361   4.006   2.088 -0.5788  0.2404  0.3517
 4694SOL     OW14659   0.435   7.891   8.945 -0.3924 -0.0577 -0.3082
 4694SOL    HW114660   0.365   7.916   9.005  0.6768 -0.1419  1.0221
 4694SOL    HW214661   0.395   7.896   8.858 -2.2092 -0.6750  0.4452
 4695SOL     OW14662   1.862   2.784   4.747 -0.2897  0.0332  0.4648
 4695SOL    HW114663   1.883   2.691   4.755  0.5352  0.0604 -1.0577
 4695SOL    HW214664   1.876   2.804   4.655  1.4257  2.1025  1.0838
 4696SOL     OW14665   3.196   4.809   8.809  0.2212  0.7717  0.1513
 4696SOL    HW114666   3.287   4.782   8.796  0.8037  2.3981  0.5856
 4696SOL    HW214667   3.189   4.891   8.760 -0.2381  2.0243  2.2187
 4697SOL     OW14668   9.712   5.247   7.437 -0.0602 -0.0003 -0.5107
 4697SOL    HW114669   9.768   5.223   7.510 -0.3360  0.5301 -0.1207
 4697SOL    HW214670   9.718   5.172   7.377  0.9557 -0.0086 -0.4191
 4698SOL     OW14671   6.458   9.084   4.584 -0.2667  0.5597 -0.1136
 4698SOL    HW114672   6.516   9.047   4.517 -0.8001  1.2841 -0.9965
 4698SOL    HW214673   6.500   9.165   4.611  0.1718  0.0522  0.7747
 4699SOL     OW14674   5.952   0.776   7.446 -0.1957  0.8184 -0.0104
 4699SOL    HW114675   5.992   0.790   7.532  0.7529  1.8758 -0.6018
 4699SOL    HW214676   5.858   0.790   7.462 -0.4157 -1.7103  1.3928
 4700SOL     OW14677   7.881   7.806   2.809  0.1376  0.2629  0.4443
 4700SOL    HW114678   7.844   7.746   2.873  0.9821 -0.7961 -0.0298
 4700SOL    HW214679   7.975   7.809   2.830  0.1707  1.1457  0.2408
 4701SOL     OW14680   8.640   7.832   9.680  0.5191 -0.5508 -0.4518
 4701SOL    HW114681   8.649   7.798   9.591 -1.4216  1.3525 -1.4820
 4701SOL    HW214682   8.553   7.803   9.708  0.0606  0.9199 -0.2269
 4702SOL     OW14683   2.737   2.139   3.904  0.3298 -0.1749  0.0408
 4702SOL    HW114684   2.653   2.097   3.920  1.0375 -1.6620 -0.0437
 4702SOL    HW214685   2.802   2.077   3.934  1.4144  1.9896  2.5554
 4703SOL     OW14686   0.816   3.743   7.824 -0.8155  0.2176  0.2303
 4703SOL    HW114687   0.878   3.745   7.897 -0.2085 -0.3865 -0.2462
 4703SOL    HW214688   0.868   3.771   7.749 -1.1008 -0.3360 -0.1813
 4704SOL     OW14689   7.169   1.374   6.957  0.1973 -0.3985  0.8723
 4704SOL    HW114690   7.127   1.316   6.894 -1.3879  0.8433  0.7366
 4704SOL    HW214691   7.253   1.396   6.916  0.1380 -1.3345  0.2148
 4705SOL     OW14692   5.404   8.880   3.392  0.2206  0.2093 -0.3378
 4705SOL    HW114693   5.356   8.950   3.436  0.2467  0.2190 -0.3251
 4705SOL    HW214694   5.434   8.823   3.463  0.7736  0.5463 -0.2978
 4706SOL     OW14695   2.151   1.757   3.806  0.3311 -0.2263  0.3363
 4706SOL    HW114696   2.198   1.718   3.732 -0.4046 -2.2890  0.8791
 4706SOL    HW214697   2.135   1.847   3.780  1.7701 -0.3759 -1.1965
 4707SOL     OW14698   8.619   9.560   3.177 -0.1334 -0.1258  0.1177
 4707SOL    HW114699   8.685   9.576   3.109 -2.0643  0.1176 -1.7938
 4707SOL    HW214700   8.645   9.617   3.249  1.1998  0.6755 -0.9383
 4708SOL     OW14701   3.359   3.012   7.070  0.5318 -0.9078  0.2856
 4708SOL    HW114702   3.275   3.058   7.072  0.5229 -0.8907 -0.1818
 4708SOL    HW214703   3.407   3.046   7.145  0.4670 -0.2386  0.0383
 4709SOL     OW14704   7.722   1.969   2.885  0.3978 -0.5416  0.1347
 4709SOL    HW114705   7.678   2.033   2.829 -1.1693 -0.7598  1.0644
 4709SOL    HW214706   7.812   2.002   2.892 -0.1904  1.1961  0.0455
 4710SOL     OW14707   2.522   6.744   1.234  0.1931 -0.2000  0.6977
 4710SOL    HW114708   2.579   6.806   1.280 -0.3233  0.1432  0.8904
 4710SOL    HW214709   2.577   6.706   1.166  0.6738  0.0631  0.9363
 4711SOL     OW14710   8.186   8.221   1.070 -0.2076  0.0909  0.3670
 4711SOL    HW114711   8.123   8.184   1.132 -2.0722  1.3365 -0.6918
 4711SOL    HW214712   8.252   8.263   1.126 -1.0435 -0.0697  1.5255
 4712SOL     OW14713   5.301   1.736   7.668  0.5297  0.1920 -0.2751
 4712SOL    HW114714   5.232   1.712   7.605 -0.3731  0.7114  0.4955
 4712SOL    HW214715   5.253   1.771   7.743  1.6695  1.5300 -0.1346
 4713SOL     OW14716   9.699   3.640   3.662  0.1002  0.1856 -0.2186
 4713SOL    HW114717   9.615   3.638   3.617 -0.2569 -0.1119  0.4533
 4713SOL    HW214718   9.761   3.673   3.596 -0.2491 -1.0447 -1.1920
 4714SOL     OW14719   6.789   3.031   2.542  0.3013  0.5127  0.2903
 4714SOL    HW114720   6.830   3.042   2.628 -1.6542  1.7306  1.1507
 4714SOL    HW214721   6.806   2.940   2.519  2.9473  0.8078  0.7972
 4715SOL     OW14722   8.919   7.245   4.162 -0.2506 -0.0283 -0.4762
 4715SOL    HW114723   9.010   7.224   4.139 -0.4696 -1.2283 -0.3174
 4715SOL    HW214724   8.926   7.327   4.212  0.7659 -0.1995 -0.3092
 4716SOL     OW14725   5.970   9.323   6.486  0.0177 -0.2003  0.1794
 4716SOL    HW114726   6.009   9.351   6.569 -1.1220 -0.6413  0.8876
 4716SOL    HW214727   6.004   9.235   6.471 -2.5276 -1.6762  2.1235
 4717SOL     OW14728   7.560   5.744   0.050 -0.0652  0.0524  0.0371
 4717SOL    HW114729   7.503   5.761   0.126 -1.2798 -0.7274 -0.6689
 4717SOL    HW214730   7.611   5.825   0.040 -0.6151  0.5512  1.0468
 4718SOL     OW14731   2.686   1.032   3.219 -0.1789  0.0354 -0.6015
 4718SOL    HW114732   2.776   1.003   3.238 -1.0744 -1.7180  1.4025
 4718SOL    HW214733   2.657   0.974   3.148 -0.1316 -0.2042 -0.4243
 4719SOL     OW14734   8.914   8.196   4.962 -0.0310 -0.0564 -0.2470
 4719SOL    HW114735   8.979   8.203   4.892  0.2864  0.5230  0.0942
 4719SOL    HW214736   8.929   8.109   4.999 -0.5861 -0.6005 -1.2583
 4720SOL     OW14737   3.070   3.127   3.081 -0.5172 -0.1247  0.8324
 4720SOL    HW114738   3.082   3.153   3.173 -2.9125 -0.0717  1.1729
 4720SOL    HW214739   3.087   3.033   3.081  1.2566  0.1586  0.9431
 4721SOL     OW14740   8.562   4.640   4.064  0.3558 -0.2576 -0.1644
 4721SOL    HW114741   8.494   4.604   4.007 -0.4241 -1.0496  1.1966
 4721SOL    HW214742   8.517   4.656   4.147  1.7015 -0.2220  0.5861
 4722SOL     OW14743   3.394   7.451   9.486 -0.6471 -0.2976 -0.2173
 4722SOL    HW114744   3.373   7.544   9.487 -1.4598 -0.3927 -2.4678
 4722SOL    HW214745   3.315   7.409   9.452  0.6305 -1.4804 -1.9030
 4723SOL     OW14746   0.922   5.155   3.101 -0.9873 -0.6507  0.2530
 4723SOL    HW114747   0.890   5.194   3.020 -0.8135  1.0726  0.9724
 4723SOL    HW214748   0.889   5.211   3.171  0.3608 -1.0403  1.2690
 4724SOL     OW14749   7.725   6.973   0.563 -0.1454  0.3022 -0.0173
 4724SOL    HW114750   7.790   6.903   0.559 -0.6140 -0.0857 -1.0927
 4724SOL    HW214751   7.769   7.043   0.611  0.2666 -0.7765  1.2249
 4725SOL     OW14752   9.879   6.603   3.269  0.6423 -0.3162  0.9357
 4725SOL    HW114753   9.964   6.627   3.231  0.0172  1.8841  0.7560
 4725SOL    HW214754   9.869   6.663   3.344  0.1524 -1.9696  2.2535
 4726SOL     OW14755   2.595   8.683   0.475 -0.1866 -0.1168  0.0476
 4726SOL    HW114756   2.577   8.707   0.384 -2.9726  0.7732  0.7364
 4726SOL    HW214757   2.510   8.689   0.518  0.9434 -1.1714  2.5913
 4727SOL     OW14758   1.457   0.549   2.190  0.7004  0.5812  0.0892
 4727SOL    HW114759   1.527   0.553   2.255  1.8092 -0.6297 -0.9670
 4727SOL    HW214760   1.467   0.463   2.149 -0.8874  0.7226 -0.6871
 4728SOL     OW14761   1.747   4.450   3.481 -0.3836 -0.2201  0.0604
 4728SOL    HW114762   1.842   4.447   3.491 -0.4229 -0.6147  0.2931
 4728SOL    HW214763   1.722   4.536   3.516 -0.1672 -0.3003  0.4060
 4729SOL     OW14764   6.376   4.796   6.388 -0.0741 -0.1065  0.9685
 4729SOL    HW114765   6.440   4.831   6.326  0.2001 -0.5977  0.9732
 4729SOL    HW214766   6.407   4.708   6.408 -0.0884  0.0856  1.9016
 4730SOL     OW14767   6.030   5.450   6.435 -0.7322 -0.1099 -0.3587
 4730SOL    HW114768   6.015   5.544   6.444 -0.5493 -0.1511  0.3886
 4730SOL    HW214769   5.944   5.414   6.415 -0.9688  0.1067  0.2553
 4731SOL     OW14770   0.097   9.533   0.889 -0.4998  0.1902  0.1639
 4731SOL    HW114771   0.130   9.570   0.807 -1.0325 -0.2779 -0.2682
 4731SOL    HW214772   0.112   9.439   0.880 -0.0284  0.1893  0.8536
 4732SOL     OW14773   9.120   2.916   0.973  0.2578  0.3184  0.0410
 4732SOL    HW114774   9.193   2.862   1.004  0.7960  0.2007 -1.3489
 4732SOL    HW214775   9.069   2.857   0.917 -0.5309  0.5954  0.4514
 4733SOL     OW14776   1.303   3.449   9.374 -0.1180 -0.2193 -0.6116
 4733SOL    HW114777   1.385   3.480   9.413 -1.1682 -0.7967  2.3283
 4733SOL    HW214778   1.260   3.528   9.344  0.5225  0.3550 -0.0767
 4734SOL     OW14779   2.196   1.881   8.389 -0.3678 -0.5509 -0.4164
 4734SOL    HW114780   2.139   1.949   8.424  1.3387  0.1789  1.1118
 4734SOL    HW214781   2.152   1.851   8.309 -1.4360  1.9937 -0.8825
 4735SOL     OW14782   9.956   5.740   5.817 -0.0688 -0.3970 -0.1562
 4735SOL    HW114783   9.983   5.649   5.832 -3.0279 -1.1426  1.3194
 4735SOL    HW214784   9.962   5.781   5.903 -0.0243  0.4606 -0.5584
 4736SOL     OW14785   7.648   6.264   1.757 -0.5895 -0.0832  0.4119
 4736SOL    HW114786   7.703   6.266   1.678 -0.2713 -0.1648  0.6295
 4736SOL    HW214787   7.620   6.173   1.763  1.5309 -0.7293  1.8398
 4737SOL     OW14788   1.674   3.031   2.199  0.2955 -0.4881 -0.3238
 4737SOL    HW114789   1.641   3.105   2.148 -0.8780  1.8169  3.4216
 4737SOL    HW214790   1.767   3.050   2.212 -0.2223  1.0272  1.5219
 4738SOL     OW14791   2.985   2.941   3.805  0.1545 -0.3357 -0.1234
 4738SOL    HW114792   2.896   2.967   3.832  0.4267  2.0716 -1.2434
 4738SOL    HW214793   2.976   2.849   3.779 -1.7437 -0.5017  0.9070
 4739SOL     OW14794   2.322   6.776   0.450  0.0262  0.3056 -0.6761
 4739SOL    HW114795   2.411   6.807   0.440 -0.2208  1.1719 -0.2534
 4739SOL    HW214796   2.305   6.726   0.370  1.3060 -0.9735 -0.2051
 4740SOL     OW14797   3.253   4.671   9.453  0.0750  0.3466 -0.3013
 4740SOL    HW114798   3.250   4.763   9.480  4.1066  0.2956  0.9401
 4740SOL    HW214799   3.251   4.622   9.536  2.0976 -0.4127 -0.6673
 4741SOL     OW14800   0.507   2.281   5.959 -0.0554  0.0934 -0.3167
 4741SOL    HW114801   0.528   2.363   6.004 -0.4884  0.7412 -1.2602
 4741SOL    HW214802   0.412   2.275   5.963 -0.0629 -0.0826 -0.7084
 4742SOL     OW14803   8.717   3.667   3.545  0.2340  0.1981 -0.2516
 4742SOL    HW114804   8.807   3.691   3.525 -0.5621  0.8076 -3.7788
 4742SOL    HW214805   8.692   3.724   3.618  2.1670  1.1579 -0.2754
 4743SOL     OW14806   5.173   3.872   3.974  0.5904  0.7320 -0.2088
 4743SOL    HW114807   5.185   3.797   3.917  2.8077  0.5280  0.4241
 4743SOL    HW214808   5.237   3.937   3.942 -0.4263  1.8829  0.0125
 4744SOL     OW14809   7.079   0.533   4.981  0.1480  0.4619  0.1058
 4744SOL    HW114810   7.052   0.550   5.071  3.4265  2.0180  0.9332
 4744SOL    HW214811   7.166   0.572   4.973  0.9475 -1.5068 -3.1260
 4745SOL     OW14812   6.725   2.848   9.301 -0.5365  0.9875 -0.6225
 4745SOL    HW114813   6.728   2.907   9.226  1.1311  1.7043 -0.0524
 4745SOL    HW214814   6.816   2.844   9.331 -1.5200  4.3433  4.0563
 4746SOL     OW14815   1.412   5.481   8.725 -0.3797 -0.0162 -0.2425
 4746SOL    HW114816   1.453   5.440   8.649 -0.1505 -0.4913  0.1362
 4746SOL    HW214817   1.376   5.409   8.776 -1.0365  0.3428 -0.1844
 4747SOL     OW14818   1.942   2.851   5.917  0.7926 -0.1031  0.1272
 4747SOL    HW114819   1.943   2.934   5.869  0.7062 -0.1577  0.0311
 4747SOL    HW214820   1.939   2.877   6.009 -4.4948  0.1754  0.2002
 4748SOL     OW14821   7.213   8.029   9.962 -0.0217 -1.0218  0.0259
 4748SOL    HW114822   7.213   7.935   9.943  1.3168 -1.0068 -0.1753
 4748SOL    HW214823   7.122   8.050   9.982 -0.1284 -2.6413  1.4799
 4749SOL     OW14824   6.662   7.278   6.506  0.4468  0.7064  0.2088
 4749SOL    HW114825   6.572   7.268   6.534  0.5693  1.4740  0.9132
 4749SOL    HW214826   6.697   7.349   6.560  2.0661 -0.8914  1.3892
 4750SOL     OW14827   0.569   0.817   4.023 -1.0172 -0.2406 -0.6705
 4750SOL    HW114828   0.590   0.756   4.094 -0.9864 -2.6935 -2.6213
 4750SOL    HW214829   0.654   0.848   3.991 -1.0427  1.1737  0.5321
 4751SOL     OW14830   8.541   4.127   5.249 -0.0671  0.3321 -0.0068
 4751SOL    HW114831   8.593   4.097   5.174  3.5475 -0.0085  2.3814
 4751SOL    HW214832   8.481   4.055   5.267 -1.3133  0.5729 -2.6740
 4752SOL     OW14833   2.570   5.939   2.482  0.2750  0.1711 -0.3452
 4752SOL    HW114834   2.571   6.034   2.495 -0.2691  0.0025  1.1973
 4752SOL    HW214835   2.486   5.922   2.438  0.6827  0.4591 -1.2492
 4753SOL     OW14836   3.013   6.045   3.398  0.0184  0.5463  0.2046
 4753SOL    HW114837   3.036   5.986   3.326 -2.2040 -2.7318  1.9330
 4753SOL    HW214838   2.961   6.114   3.357  1.3271  0.4921 -1.6904
 4754SOL     OW14839   4.979   2.192   2.064 -0.2098  0.2281 -0.4537
 4754SOL    HW114840   4.983   2.281   2.100  0.8843  0.2269 -0.5230
 4754SOL    HW214841   4.892   2.160   2.087 -0.1656  0.8591  0.6902
 4755SOL     OW14842   3.028   7.556   3.088  0.7243  0.6147  0.1932
 4755SOL    HW114843   2.983   7.474   3.065  0.0098  0.8575  0.6755
 4755SOL    HW214844   3.025   7.559   3.183  0.9721  1.0776  0.1885
 4756SOL     OW14845   4.484   7.977   9.949 -0.5218  0.0678  0.6138
 4756SOL    HW114846   4.538   7.920   9.894 -1.4084 -0.4997  0.3083
 4756SOL    HW214847   4.509   7.954  10.038 -0.3904 -0.3247  0.4795
 4757SOL     OW14848   3.692   7.826   9.534 -0.3508 -0.5181 -0.6984
 4757SOL    HW114849   3.665   7.913   9.564 -1.2618 -1.0272  0.0029
 4757SOL    HW214850   3.753   7.843   9.463 -0.2163  0.7037 -0.3116
 4758SOL     OW14851   7.672   6.386   9.408 -0.8297 -0.0696 -0.0487
 4758SOL    HW114852   7.731   6.311   9.398 -2.3916 -1.3769  0.0762
 4758SOL    HW214853   7.718   6.458   9.366  1.1823 -0.8328  0.7188
 4759SOL     OW14854   0.248   5.771   9.742  0.0302  0.5338  0.2869
 4759SOL    HW114855   0.222   5.690   9.699 -2.2420  2.1719 -1.7675
 4759SOL    HW214856   0.320   5.805   9.688  0.0532  0.5147  0.3063
 4760SOL     OW14857   0.907   2.752   0.994  0.0195 -0.2930 -0.2367
 4760SOL    HW114858   0.937   2.771   1.083  0.2267 -0.9133 -0.1641
 4760SOL    HW214859   0.839   2.817   0.977  0.4967  0.3046  0.0939
 4761SOL     OW14860   8.486   7.067   0.320 -0.8444 -0.1316  0.3810
 4761SOL    HW114861   8.562   7.029   0.276 -1.1073  0.4571 -0.6178
 4761SOL    HW214862   8.424   6.995   0.327 -0.8600 -0.2022 -0.3880
 4762SOL     OW14863   8.127   2.899   7.358 -0.4049 -0.1969  0.0045
 4762SOL    HW114864   8.152   2.849   7.435  1.2686  0.8860  0.2152
 4762SOL    HW214865   8.165   2.986   7.372 -0.9004  0.3204 -1.5902
 4763SOL     OW14866   4.277   1.578   6.264  0.9789 -0.2674 -0.2008
 4763SOL    HW114867   4.201   1.520   6.255  0.7982  0.2922 -3.5642
 4763SOL    HW214868   4.240   1.666   6.272  1.1983  0.0109 -1.8755
 4764SOL     OW14869   6.137   2.974   7.564  0.3021  0.3751 -0.0841
 4764SOL    HW114870   6.086   3.035   7.512  0.1375  0.4185  0.1250
 4764SOL    HW214871   6.083   2.958   7.642  0.5802  0.3757  0.1113
 4765SOL     OW14872   7.648   9.728   0.583  0.3323 -0.7088  0.0313
 4765SOL    HW114873   7.643   9.746   0.676 -2.8295 -1.4824  0.1518
 4765SOL    HW214874   7.685   9.640   0.577  1.2147 -0.3707  0.5024
 4766SOL     OW14875   5.962   4.739   5.257  0.2501  0.3852 -0.4770
 4766SOL    HW114876   5.895   4.771   5.318 -1.2339  0.3695 -2.0353
 4766SOL    HW214877   5.990   4.656   5.295 -1.1871  0.0075 -0.1594
 4767SOL     OW14878   5.288   5.828   8.670  0.0404  0.5120 -0.6589
 4767SOL    HW114879   5.250   5.831   8.582 -0.7297 -0.5860 -0.3868
 4767SOL    HW214880   5.226   5.876   8.724 -0.0290  0.2921 -0.5398
 4768SOL     OW14881   9.693   5.347   3.383  0.6550  0.2633  0.9176
 4768SOL    HW114882   9.737   5.430   3.399  2.6741 -0.7188  0.7753
 4768SOL    HW214883   9.685   5.307   3.469  1.5649 -0.2589  0.7751
 4769SOL     OW14884   0.462   4.827   6.759 -0.0491 -0.0097 -0.5068
 4769SOL    HW114885   0.467   4.856   6.851  1.6836  0.3488 -0.6792
 4769SOL    HW214886   0.468   4.907   6.708  0.9785 -0.3646 -0.9557
 4770SOL     OW14887   9.253   7.417   1.990  0.4762  0.6603  0.0109
 4770SOL    HW114888   9.182   7.354   2.001 -0.4138  1.4357 -1.1923
 4770SOL    HW214889   9.264   7.456   2.077  0.3951 -0.4452  0.5388
 4771SOL     OW14890   6.378   6.183   6.027 -0.9598 -0.4623  0.9353
 4771SOL    HW114891   6.422   6.098   6.023  0.6247  0.3645 -1.6418
 4771SOL    HW214892   6.297   6.171   5.978 -0.5091 -0.3821  0.1650
 4772SOL     OW14893   1.157   9.524   6.994  0.2103 -0.3727 -0.7092
 4772SOL    HW114894   1.126   9.540   6.905  0.6173  0.9200 -0.6484
 4772SOL    HW214895   1.246   9.560   6.995  0.6158 -1.3497 -0.0675
 4773SOL     OW14896   5.847   4.510   1.057  0.1405  0.4306  0.0002
 4773SOL    HW114897   5.849   4.471   1.144  0.1534  1.9752  0.7166
 4773SOL    HW214898   5.813   4.598   1.070 -0.5922  0.4439 -1.6731
 4774SOL     OW14899   4.789   8.298   4.457  0.5174 -0.0170  0.6443
 4774SOL    HW114900   4.863   8.354   4.480  0.7646 -0.1881  0.2657
 4774SOL    HW214901   4.724   8.316   4.525  0.2814  1.3171  0.0905
 4775SOL     OW14902   5.490   3.094   6.706 -0.6586 -0.3173 -0.0411
 4775SOL    HW114903   5.466   3.050   6.787 -2.6481 -0.2153 -0.5337
 4775SOL    HW214904   5.505   3.022   6.644 -0.4131 -0.3664  0.0743
 4776SOL     OW14905   7.158   1.655   7.008  0.2658 -0.3989 -0.5902
 4776SOL    HW114906   7.153   1.563   6.984  0.5380 -0.3461 -0.8671
 4776SOL    HW214907   7.220   1.658   7.081  1.0558 -0.3208 -1.2485
 4777SOL     OW14908   3.168   6.040   3.974  0.3371  0.1072  0.4358
 4777SOL    HW114909   3.145   6.076   4.060 -0.2397 -0.3535  0.4785
 4777SOL    HW214910   3.146   5.947   3.981 -0.0931  0.1424 -0.3504
 4778SOL     OW14911   0.487   3.704   3.703  0.1892 -0.2350  0.2486
 4778SOL    HW114912   0.438   3.748   3.773  0.1623 -0.5757  0.4446
 4778SOL    HW214913   0.438   3.725   3.623  2.0323  2.9502 -0.1930
 4779SOL     OW14914   2.500   0.691   6.415 -0.4642  0.1150 -0.5577
 4779SOL    HW114915   2.516   0.774   6.370 -0.3339  0.2197 -0.3166
 4779SOL    HW214916   2.428   0.651   6.366 -0.5846  0.4078 -0.6229
 4780SOL     OW14917   0.304   9.089   0.941  0.2029 -0.2115  0.1985
 4780SOL    HW114918   0.396   9.062   0.932  0.4230 -0.4318  2.5260
 4780SOL    HW214919   0.268   9.078   0.853  2.4000 -0.0745 -0.7973
 4781SOL     OW14920   6.262   4.491   8.555  0.3713  0.3092  0.2101
 4781SOL    HW114921   6.199   4.426   8.585 -1.1092  1.1748 -0.8500
 4781SOL    HW214922   6.221   4.530   8.478  2.4687  0.5600 -0.8577
 4782SOL     OW14923   9.074   1.487   9.603 -0.0986 -0.0583 -0.0321
 4782SOL    HW114924   9.103   1.530   9.684  1.2882 -2.1230  0.6424
 4782SOL    HW214925   9.046   1.400   9.632  0.7739 -0.9690 -1.8245
 4783SOL     OW14926   8.085   5.926   1.776  0.2601 -0.0611  0.2419
 4783SOL    HW114927   8.039   5.873   1.841  0.7770  0.8474  1.3837
 4783SOL    HW214928   8.017   5.955   1.716  0.0394 -2.5119 -0.8110
 4784SOL     OW14929   6.096   0.693   3.502  0.5997  0.0945 -0.5492
 4784SOL    HW114930   6.027   0.727   3.446  1.8559  1.4480 -1.3183
 4784SOL    HW214931   6.130   0.769   3.549  0.6889 -0.7534  0.8457
 4785SOL     OW14932   3.782   0.114   9.062 -0.0728  0.0082  0.4483
 4785SOL    HW114933   3.704   0.108   9.006 -0.8627  1.9354  1.2452
 4785SOL    HW214934   3.798   0.024   9.090  0.1827 -0.9930 -2.5497
 4786SOL     OW14935   4.512   0.623   8.365 -0.4515 -0.7518 -0.1045
 4786SOL    HW114936   4.479   0.583   8.285  1.4637 -1.1808 -0.7074
 4786SOL    HW214937   4.595   0.579   8.382  0.9075  1.7518  0.1707
 4787SOL     OW14938   4.468   8.255   9.006 -0.0680  0.0588  0.4269
 4787SOL    HW114939   4.510   8.276   9.089 -0.7202 -0.0322  0.7849
 4787SOL    HW214940   4.506   8.317   8.943  0.5767 -0.0080  0.7435
 4788SOL     OW14941   4.202   8.896   4.615 -0.3896  0.1982  0.4492
 4788SOL    HW114942   4.248   8.897   4.531 -2.2712  1.2057 -0.6360
 4788SOL    HW214943   4.200   8.803   4.639 -1.2660 -0.3463 -1.5022
 4789SOL     OW14944   3.119   4.318   1.917 -0.3385 -0.3086  0.1860
 4789SOL    HW114945   3.115   4.223   1.931 -1.9703 -0.2757  0.1447
 4789SOL    HW214946   3.070   4.355   1.990 -0.4637  0.4599 -0.2751
 4790SOL     OW14947   0.428   7.342   7.475 -0.2129  0.1959 -0.1464
 4790SOL    HW114948   0.442   7.312   7.565  1.4222  0.4296 -0.2986
 4790SOL    HW214949   0.453   7.434   7.476  1.4819 -0.2241 -1.1975
 4791SOL     OW14950   8.766   4.752   5.820  0.3850 -0.2739  0.1117
 4791SOL    HW114951   8.683   4.798   5.832  0.8711  0.8549 -0.6688
 4791SOL    HW214952   8.781   4.754   5.725  0.8074 -1.3862  0.1344
 4792SOL     OW14953   6.135   8.890   9.729  0.2442 -0.0615  0.7040
 4792SOL    HW114954   6.202   8.936   9.779  0.9879  0.0987 -0.3969
 4792SOL    HW214955   6.155   8.797   9.741  1.8412 -0.0055 -1.0899
 4793SOL     OW14956   7.514   4.996   7.913  0.0115  0.3130  0.8224
 4793SOL    HW114957   7.567   4.921   7.941  2.2373  0.9951 -1.2668
 4793SOL    HW214958   7.438   4.956   7.869  0.3997 -0.7154  1.0599
 4794SOL     OW14959   1.017   9.338   0.268  0.4954 -0.1752  0.3276
 4794SOL    HW114960   1.087   9.394   0.303 -0.5853  0.4876  1.5338
 4794SOL    HW214961   0.936   9.377   0.302 -0.3790 -1.7641  0.1694
 4795SOL     OW14962   5.266   1.898   9.442  0.0489 -0.2283  0.8646
 4795SOL    HW114963   5.278   1.804   9.430  1.6796 -0.3488  2.8026
 4795SOL    HW214964   5.200   1.905   9.511 -1.8406  0.1751 -0.8840
 4796SOL     OW14965   4.608   4.699   7.171  0.3676  0.0711  0.6713
 4796SOL    HW114966   4.640   4.788   7.158 -0.7418  0.6168  1.5347
 4796SOL    HW214967   4.517   4.709   7.201 -0.0939 -1.3730 -0.1059
 4797SOL     OW14968   5.510   8.307   1.342 -0.2057  0.0265  0.0389
 4797SOL    HW114969   5.466   8.391   1.358  1.8433  1.3246 -0.6939
 4797SOL    HW214970   5.528   8.272   1.429 -0.4373  0.7196  0.3710
 4798SOL     OW14971   2.554   4.817   6.961  0.4244 -0.0483  0.1709
 4798SOL    HW114972   2.637   4.773   6.979 -0.9148 -2.5594  0.5930
 4798SOL    HW214973   2.530   4.858   7.044  0.2591 -1.1004  0.6619
 4799SOL     OW14974   5.984   7.322   2.634 -0.0708  0.3578 -0.2575
 4799SOL    HW114975   6.066   7.343   2.588 -1.6395 -0.4958 -3.7214
 4799SOL    HW214976   6.011   7.263   2.704  2.2456 -0.2274 -1.5373
 4800SOL     OW14977   1.691   7.254   4.687  0.0676 -0.7200 -0.1204
 4800SOL    HW114978   1.706   7.254   4.781 -2.2704 -0.2990  0.3011
 4800SOL    HW214979   1.680   7.346   4.664  0.0048 -0.8628 -0.6838
 4801SOL     OW14980   8.904   7.914   4.822  0.2473 -0.5316 -0.1180
 4801SOL    HW114981   8.936   7.839   4.873  0.0845 -0.4774  0.0683
 4801SOL    HW214982   8.979   7.974   4.818  0.0774 -0.2603  0.5966
 4802SOL     OW14983   1.060   7.039   1.793  0.0703  0.3948  0.1586
 4802SOL    HW114984   1.068   6.978   1.719 -1.7493  1.0836 -0.6541
 4802SOL    HW214985   1.146   7.081   1.798 -0.0651  1.1056 -2.2989
 4803SOL     OW14986   1.427   3.391   3.809  0.1183 -0.3283  0.4400
 4803SOL    HW114987   1.343   3.421   3.774  0.3224  0.6595  0.7442
 4803SOL    HW214988   1.471   3.472   3.837  1.4502 -0.7491 -0.3416
 4804SOL     OW14989   6.613   4.613   7.293  0.1441 -0.3266 -0.6269
 4804SOL    HW114990   6.629   4.697   7.336  0.1338 -0.0458 -1.1597
 4804SOL    HW214991   6.595   4.636   7.201  0.5173 -0.9368 -0.8597
 4805SOL     OW14992   6.690   6.786   4.897 -0.0458 -0.1128  0.3458
 4805SOL    HW114993   6.633   6.788   4.974 -0.4082  0.4073  0.0759
 4805SOL    HW214994   6.768   6.835   4.923 -0.3634  0.4635  0.2444
 4806SOL     OW14995   7.798   1.094   7.363  0.3776  0.2285 -0.0952
 4806SOL    HW114996   7.852   1.118   7.438  2.6705 -1.6422 -1.0113
 4806SOL    HW214997   7.745   1.020   7.392 -0.6161  1.0801  0.3439
 4807SOL     OW14998   9.565   8.327   7.796 -0.4120  0.3527 -0.1667
 4807SOL    HW114999   9.586   8.418   7.773 -2.0277  0.9048  0.3562
 4807SOL    HW215000   9.474   8.316   7.769  0.3135 -1.7558 -1.9960
 4808SOL     OW15001   2.979   8.953   2.071 -0.0769  0.0118  0.0785
 4808SOL    HW115002   2.901   8.940   2.125 -1.0067  0.6901 -1.0598
 4808SOL    HW215003   3.020   9.031   2.109 -1.8135  1.7177 -1.3349
 4809SOL     OW15004   4.198   5.111   6.759  0.4486 -0.6392 -0.2152
 4809SOL    HW115005   4.212   5.029   6.713 -0.5987 -0.4783 -0.8635
 4809SOL    HW215006   4.277   5.163   6.741  0.0096 -0.5289 -1.9768
 4810SOL     OW15007   0.650   3.124   5.557 -0.0987  0.0942 -0.2125
 4810SOL    HW115008   0.738   3.086   5.551 -1.1279 -2.8253  0.9719
 4810SOL    HW215009   0.601   3.082   5.487 -1.1595 -0.3621  0.7650
 4811SOL     OW15010   9.588   8.418   4.127  0.5403  0.3617  0.7359
 4811SOL    HW115011   9.525   8.464   4.182  1.1743  0.7345  1.1560
 4811SOL    HW215012   9.547   8.333   4.110  0.1003  0.4472  1.3390
 4812SOL     OW15013   5.994   1.776   3.932  0.6324 -0.2150 -0.2912
 4812SOL    HW115014   5.967   1.706   3.872  0.8459 -0.7753  0.2518
 4812SOL    HW215015   6.025   1.730   4.011 -0.7608  0.5306  0.7311
 4813SOL     OW15016   7.714   9.838   5.265  0.5496  0.0885 -0.0419
 4813SOL    HW115017   7.650   9.799   5.324  1.2157 -0.8516  0.0850
 4813SOL    HW215018   7.784   9.869   5.322  1.2665 -0.9580 -0.3175
 4814SOL     OW15019   5.978   3.445   4.300  0.0487 -0.0265  0.3588
 4814SOL    HW115020   5.976   3.351   4.283  0.3355 -0.0827  0.6284
 4814SOL    HW215021   6.033   3.481   4.230  0.4660 -0.1422  0.6231
 4815SOL     OW15022   2.975   5.481   7.724 -0.0975 -0.1690  0.0256
 4815SOL    HW115023   2.994   5.544   7.656  0.7295 -1.0812 -0.6209
 4815SOL    HW215024   3.010   5.520   7.804  0.3598  0.2162 -0.3566
 4816SOL     OW15025   8.666   9.542   9.546  0.3704  0.4016  0.0888
 4816SOL    HW115026   8.667   9.635   9.525  0.8512  0.0607 -1.4635
 4816SOL    HW215027   8.658   9.497   9.462 -1.3210 -0.9477  0.8930
 4817SOL     OW15028   5.863   2.388   5.293 -0.0899  0.3976 -0.2171
 4817SOL    HW115029   5.892   2.390   5.202  0.6577  2.5868  0.0228
 4817SOL    HW215030   5.943   2.377   5.344 -0.0985  2.2606  0.2650
 4818SOL     OW15031   9.920   8.298   3.904  0.4952  0.4868  0.3003
 4818SOL    HW115032   9.918   8.327   3.995  2.0396  0.3523  0.4103
 4818SOL    HW215033   9.861   8.223   3.901  0.6059  0.3541  1.2359
 4819SOL     OW15034   5.682   9.668   6.125 -0.3952  0.3163 -0.5202
 4819SOL    HW115035   5.708   9.734   6.061 -2.0290  0.9740 -0.5490
 4819SOL    HW215036   5.655   9.718   6.201 -0.3864 -0.3804 -0.0535
 4820SOL     OW15037   6.460   8.835   7.368  1.3367  0.6408 -0.0353
 4820SOL    HW115038   6.451   8.919   7.323 -3.5599  1.0510  1.0970
 4820SOL    HW215039   6.433   8.854   7.458  2.2788 -1.7838  0.8249
 4821SOL     OW15040   8.456   9.318   3.902  0.4247  0.4598 -0.8157
 4821SOL    HW115041   8.449   9.223   3.896  0.6674  0.4458 -0.8912
 4821SOL    HW215042   8.400   9.342   3.976 -0.1775  0.3273 -1.2186
 4822SOL     OW15043   1.388   8.809   7.827 -0.6318 -0.0144 -0.3854
 4822SOL    HW115044   1.378   8.743   7.759 -0.1599 -0.2750 -0.2090
 4822SOL    HW215045   1.473   8.850   7.808 -0.9193  0.5404 -0.4925
 4823SOL     OW15046   8.736   3.917   6.646 -0.2215  0.1285 -0.0143
 4823SOL    HW115047   8.793   3.876   6.581 -0.1558 -0.1202  0.2007
 4823SOL    HW215048   8.649   3.913   6.607 -0.0569  0.7674 -0.4697
 4824SOL     OW15049   7.139   4.769   8.613 -0.2042 -0.0723 -0.3485
 4824SOL    HW115050   7.118   4.748   8.522 -1.6316 -0.3124  0.0010
 4824SOL    HW215051   7.090   4.704   8.664  2.7452 -1.7249  0.5805
 4825SOL     OW15052   6.129   7.016   9.918 -0.3745 -0.0224  0.4528
 4825SOL    HW115053   6.057   7.075   9.896 -0.8217 -1.2185 -1.4508
 4825SOL    HW215054   6.188   7.020   9.843  0.1877 -1.0857  0.8195
 4826SOL     OW15055   8.887   3.145   9.883  0.3935 -0.4909 -0.1211
 4826SOL    HW115056   8.869   3.135   9.789 -0.9621  1.0152 -0.0636
 4826SOL    HW215057   8.856   3.233   9.904  0.1302 -1.0164  1.8638
 4827SOL     OW15058   6.078   8.295   6.698 -0.8109 -0.2763  0.0016
 4827SOL    HW115059   6.137   8.243   6.644  0.0468 -0.0130  0.6574
 4827SOL    HW215060   6.007   8.236   6.719  0.5505 -1.4943  1.4215
 4828SOL     OW15061   4.570   5.943   1.510 -0.5745  0.1897 -0.1232
 4828SOL    HW115062   4.523   5.989   1.441 -0.6236  0.5338  0.1385
 4828SOL    HW215063   4.620   5.875   1.464 -0.2118  0.7388 -0.5555
 4829SOL     OW15064   9.374   3.080   2.181  0.5371  0.2009  0.2515
 4829SOL    HW115065   9.344   3.052   2.094  0.2901  3.1185 -0.7095
 4829SOL    HW215066   9.293   3.097   2.230  0.6729 -0.0479  0.5646
 4830SOL     OW15067   2.974   9.717   8.375  0.3566  0.1479  0.3472
 4830SOL    HW115068   2.905   9.775   8.344  1.1324  1.3800  0.8215
 4830SOL    HW215069   2.957   9.634   8.332 -0.3102  0.9567 -1.0246
 4831SOL     OW15070   0.655   7.999   8.178 -0.2354 -0.0938  0.0239
 4831SOL    HW115071   0.679   7.914   8.140  0.4164 -0.0676  0.3819
 4831SOL    HW215072   0.679   7.992   8.270 -0.0776  0.5223  0.0310
 4832SOL     OW15073   6.762   3.167   1.355  0.0099  0.1744 -0.2947
 4832SOL    HW115074   6.692   3.178   1.291 -2.1344  2.0465  2.1384
 4832SOL    HW215075   6.822   3.239   1.338 -0.7024  0.8361 -0.0222
 4833SOL     OW15076   9.541   7.376   9.303  0.2272  0.2979  0.5165
 4833SOL    HW115077   9.580   7.301   9.349 -0.5093 -0.9775 -0.8442
 4833SOL    HW215078   9.482   7.336   9.239 -2.3337  2.1068  1.6117
 4834SOL     OW15079   7.421   1.935   4.084  0.6152 -0.1732  0.2963
 4834SOL    HW115080   7.417   1.896   4.171 -0.7641 -1.0652 -0.1358
 4834SOL    HW215081   7.347   1.996   4.081 -0.6454 -1.6737 -0.9105
 4835SOL     OW15082   3.338   0.796   1.453  0.4638  0.0946 -0.0366
 4835SOL    HW115083   3.261   0.780   1.398  0.3753 -2.4247  0.7017
 4835SOL    HW215084   3.303   0.807   1.541  0.9263 -3.1172  0.6763
 4836SOL     OW15085   4.054   6.953   0.332  0.0588 -0.8916 -0.0040
 4836SOL    HW115086   4.044   6.858   0.322 -3.6323 -0.5814 -0.7032
 4836SOL    HW215087   4.022   6.972   0.420 -0.3910 -0.2102 -0.3029
 4837SOL     OW15088   6.336   3.320   7.661  0.1622 -0.1869 -0.3286
 4837SOL    HW115089   6.353   3.242   7.609  0.3413 -1.4468  1.5430
 4837SOL    HW215090   6.277   3.372   7.607  0.0947 -1.5649 -1.6514
 4838SOL     OW15091   0.088   4.586   2.183 -0.1786 -0.3935 -0.1501
 4838SOL    HW115092   0.183   4.593   2.189 -0.2624  1.2849 -0.1950
 4838SOL    HW215093   0.066   4.633   2.102 -1.1464  0.6426  0.6821
 4839SOL     OW15094   8.064   0.170   2.418  0.8339  0.3158 -0.2284
 4839SOL    HW115095   8.098   0.204   2.336 -0.2487 -0.3765 -0.9911
 4839SOL    HW215096   8.042   0.247   2.470  1.6821  0.7566 -0.5204
 4840SOL     OW15097   3.825   9.343   0.699 -0.1769  0.0009 -0.4764
 4840SOL    HW115098   3.899   9.285   0.715 -1.5562 -1.5673  0.5711
 4840SOL    HW215099   3.815   9.392   0.781  0.2922  0.9301 -0.9646
 4841SOL     OW15100   1.248   2.866   2.633 -0.5392 -0.4563  0.4911
 4841SOL    HW115101   1.222   2.944   2.682  0.5961 -0.1700  0.6736
 4841SOL    HW215102   1.233   2.793   2.694 -1.5328 -0.3953  0.3447
 4842SOL     OW15103   2.125   0.806   5.537  0.0408  0.4473  0.1542
 4842SOL    HW115104   2.168   0.743   5.594 -0.2877 -0.7587 -0.8741
 4842SOL    HW215105   2.193   0.833   5.475 -0.5730 -1.5242 -1.5255
 4843SOL     OW15106   9.325   4.666   9.867  0.4624 -0.4275  0.1699
 4843SOL    HW115107   9.343   4.599   9.800 -0.9311 -0.0544 -0.6061
 4843SOL    HW215108   9.310   4.746   9.817 -2.4158 -0.5071  0.7641
 4844SOL     OW15109   7.039   4.285   4.504  0.2166  0.0022  0.0530
 4844SOL    HW115110   7.097   4.361   4.515 -0.0901  0.2144  0.2349
 4844SOL    HW215111   7.050   4.260   4.412  0.3471  0.2458  0.0000
 4845SOL     OW15112   1.084   0.799   4.441  0.3942 -0.0741  0.3227
 4845SOL    HW115113   0.996   0.795   4.477  0.6754 -0.6453  0.9590
 4845SOL    HW215114   1.142   0.783   4.515  0.9341 -2.8475 -0.5883
 4846SOL     OW15115   7.435   5.205   3.461 -0.0143  0.0919  0.0921
 4846SOL    HW115116   7.407   5.252   3.382  0.3126  1.2261  0.6228
 4846SOL    HW215117   7.365   5.142   3.477  0.8719 -1.5877 -2.2226
 4847SOL     OW15118   3.978   1.910   7.000  0.2705  0.4521  0.2527
 4847SOL    HW115119   4.009   1.952   6.920 -1.9510 -1.1947 -1.5946
 4847SOL    HW215120   4.023   1.825   7.001 -0.0806  0.2666  0.4961
 4848SOL     OW15121   6.146   6.732   7.165  0.6161  0.0383  0.6064
 4848SOL    HW115122   6.172   6.653   7.118 -0.9305 -0.3453  0.3571
 4848SOL    HW215123   6.074   6.704   7.221 -0.6340  1.4752 -0.2258
 4849SOL     OW15124   0.532   7.955   9.564 -0.3844  0.4773 -0.2636
 4849SOL    HW115125   0.540   7.871   9.519 -0.0193 -0.0101  0.6892
 4849SOL    HW215126   0.488   8.012   9.501 -0.4095 -0.3554 -1.0117
 4850SOL     OW15127   9.172   2.079   8.725 -0.7393 -0.3124 -0.1586
 4850SOL    HW115128   9.141   2.129   8.800  1.8734 -0.6362  1.2388
 4850SOL    HW215129   9.117   2.000   8.724 -1.5064  0.1937  0.7064
 4851SOL     OW15130   2.275   6.857   4.079  0.0114 -0.0363  0.2374
 4851SOL    HW115131   2.282   6.922   4.008 -2.1423  0.7828  0.6833
 4851SOL    HW215132   2.362   6.818   4.084  0.9482  1.6963 -1.1345
 4852SOL     OW15133   0.511   3.664   1.153  0.2157 -0.2135 -0.1119
 4852SOL    HW115134   0.582   3.713   1.111 -0.3450 -0.1310 -1.0120
 4852SOL    HW215135   0.515   3.577   1.113  0.7242 -0.6746  0.9174
 4853SOL     OW15136   1.351   1.636   7.810  0.0527 -0.1511 -0.3749
 4853SOL    HW115137   1.429   1.640   7.755  1.0856 -0.5506  1.0094
 4853SOL    HW215138   1.383   1.652   7.899 -1.5017  0.0686  0.1758
 4854SOL     OW15139   6.625   4.424   4.029  0.2476 -0.2415  0.4114
 4854SOL    HW115140   6.621   4.328   4.034  5.1216 -0.7745 -0.8143
 4854SOL    HW215141   6.638   4.452   4.119 -0.4487 -0.7663  0.6876
 4855SOL     OW15142   0.801   5.325   9.726 -0.1716  0.3580 -0.1549
 4855SOL    HW115143   0.840   5.405   9.761 -0.2853 -0.0630  0.9643
 4855SOL    HW215144   0.738   5.356   9.661  0.0448  1.1613  0.0061
 4856SOL     OW15145   2.252   2.899   5.954  0.3126  0.2807  0.0892
 4856SOL    HW115146   2.214   2.856   5.877  1.5933 -0.0773 -0.3645
 4856SOL    HW215147   2.224   2.991   5.946 -1.1105 -0.1211  0.2196
 4857SOL     OW15148   7.754   0.850   3.562 -0.4433  0.0236  0.2007
 4857SOL    HW115149   7.724   0.907   3.492  0.4889  0.3855  0.0833
 4857SOL    HW215150   7.799   0.908   3.623 -1.6126 -0.2147  1.3342
 4858SOL     OW15151   3.691   4.637   2.293 -0.4735  0.4875 -0.0708
 4858SOL    HW115152   3.786   4.649   2.306 -0.3201 -1.1028  0.5162
 4858SOL    HW215153   3.652   4.670   2.374 -0.3137 -0.0683  0.2356
 4859SOL     OW15154   0.680   2.866   4.894  0.7063  0.1396 -0.2195
 4859SOL    HW115155   0.755   2.871   4.835  1.9385  1.1312  1.3369
 4859SOL    HW215156   0.718   2.849   4.980 -1.0992 -2.6384  0.1918
 4860SOL     OW15157   7.971   3.738   8.349  0.0384  0.1927  0.5758
 4860SOL    HW115158   8.062   3.767   8.339 -0.5168  1.7163 -0.4959
 4860SOL    HW215159   7.968   3.698   8.436  1.0118  3.1538  2.1022
 4861SOL     OW15160   8.059   3.411   8.853 -0.0693  0.2150  0.5572
 4861SOL    HW115161   8.082   3.385   8.763 -0.0670  2.0269 -0.0133
 4861SOL    HW215162   7.995   3.346   8.881  0.8453 -1.0944 -0.2958
 4862SOL     OW15163   1.833   7.098   0.925 -0.4554 -0.2830 -0.0721
 4862SOL    HW115164   1.785   7.179   0.909  2.2127  1.2154 -1.0326
 4862SOL    HW215165   1.862   7.070   0.838  1.5329 -0.3336  0.5577
 4863SOL     OW15166   2.949   3.477   5.890  0.4452  0.0444  0.3146
 4863SOL    HW115167   2.920   3.533   5.962 -1.9189 -0.2885 -0.2873
 4863SOL    HW215168   2.938   3.531   5.812 -0.8899 -0.8695 -0.1677
 4864SOL     OW15169   7.417   2.615   4.979 -0.7264 -0.1985  0.7171
 4864SOL    HW115170   7.483   2.680   4.956 -0.0352 -1.3301 -0.7438
 4864SOL    HW215171   7.447   2.578   5.062  0.4469 -0.5968  0.1472
 4865SOL     OW15172   1.335   5.044   1.461  0.2063  0.6025 -0.3762
 4865SOL    HW115173   1.380   5.087   1.389 -0.3580 -0.1843 -1.2102
 4865SOL    HW215174   1.242   5.058   1.444  0.0193 -0.7916 -0.5743
 4866SOL     OW15175   1.038   4.150   4.334  0.0714  0.4639 -0.4505
 4866SOL    HW115176   0.954   4.147   4.380  0.5402 -0.8735  0.3867
 4866SOL    HW215177   1.071   4.239   4.348 -0.3183  0.4191  0.8675
 4867SOL     OW15178   8.137   1.589   0.606 -0.7121 -0.0132 -0.6688
 4867SOL    HW115179   8.222   1.549   0.586  0.7948  1.6185  1.9454
 4867SOL    HW215180   8.142   1.677   0.569 -0.7165  0.5343  0.5879
 4868SOL     OW15181   7.386   7.723   6.644 -0.0509 -0.0330 -0.0967
 4868SOL    HW115182   7.458   7.765   6.691  1.2423 -0.3637 -1.6857
 4868SOL    HW215183   7.335   7.796   6.610 -0.5499  0.2078  1.0957
 4869SOL     OW15184   0.177   3.684   0.334 -0.2009  0.4821  0.1327
 4869SOL    HW115185   0.165   3.750   0.266 -0.5349  0.7445  0.4390
 4869SOL    HW215186   0.188   3.734   0.415  0.0318  0.1719  0.2965
 4870SOL     OW15187   2.179   1.363   2.306 -0.1609  0.4071 -0.4532
 4870SOL    HW115188   2.138   1.291   2.354 -1.2850  1.0963 -0.3525
 4870SOL    HW215189   2.145   1.356   2.217  1.4377 -0.4856 -1.0419
 4871SOL     OW15190   3.359   8.915   0.905  0.3389  0.1350  0.0886
 4871SOL    HW115191   3.269   8.883   0.892  0.2536  0.1424  0.6090
 4871SOL    HW215192   3.414   8.839   0.888  0.1811 -0.0939  0.5837
 4872SOL     OW15193   4.946   9.760   8.669 -0.1072  0.2744 -0.0900
 4872SOL    HW115194   4.861   9.792   8.639 -1.4923 -2.9561  0.0051
 4872SOL    HW215195   4.939   9.759   8.765 -0.7854 -1.7880 -0.1140
 4873SOL     OW15196   3.020   8.019   6.077  0.1722  0.1642 -0.1945
 4873SOL    HW115197   3.083   8.089   6.095  1.1823 -0.8548  0.4530
 4873SOL    HW215198   2.939   8.064   6.054  0.5906  1.5442  0.8780
 4874SOL     OW15199   0.813   3.539   2.191 -0.1965  0.0549 -0.3699
 4874SOL    HW115200   0.876   3.468   2.199  0.3277  0.5741  0.2677
 4874SOL    HW215201   0.787   3.558   2.282 -1.2801 -0.1525 -0.6174
 4875SOL     OW15202   8.764   8.466   2.268 -0.3813  0.2508  0.0141
 4875SOL    HW115203   8.784   8.502   2.182 -0.4162 -1.0078 -0.5513
 4875SOL    HW215204   8.668   8.460   2.270 -0.3631 -0.1300 -0.0518
 4876SOL     OW15205   9.217   2.212   3.512  0.1638 -0.4801  0.2929
 4876SOL    HW115206   9.218   2.229   3.607 -0.8089 -0.8267  0.3675
 4876SOL    HW215207   9.298   2.163   3.496 -0.1220 -1.2348  1.0989
 4877SOL     OW15208   8.136   6.857   1.492 -0.7755 -0.1952  0.4369
 4877SOL    HW115209   8.216   6.834   1.443 -1.3239 -0.7616 -0.2125
 4877SOL    HW215210   8.118   6.948   1.467 -1.1726 -0.5428 -0.6217
 4878SOL     OW15211   5.054   4.819   7.601  0.3297 -0.1888 -0.0561
 4878SOL    HW115212   5.087   4.774   7.679  0.4952 -1.6294 -0.9174
 4878SOL    HW215213   4.960   4.804   7.602  0.2339  0.4054  0.2326
 4879SOL     OW15214   9.367   9.576   4.454 -0.1251 -0.0410  0.6226
 4879SOL    HW115215   9.421   9.608   4.382 -0.5483  0.2563  0.4375
 4879SOL    HW215216   9.368   9.646   4.519  0.0032 -0.1815  0.7734
 4880SOL     OW15217   1.906   0.262   2.040 -0.0415  0.1298  0.2876
 4880SOL    HW115218   1.981   0.220   1.999  0.4307  2.2668 -1.1742
 4880SOL    HW215219   1.938   0.294   2.124  0.7127  1.0982 -0.3638
 4881SOL     OW15220   0.381   5.679   4.936 -0.2258  0.2452 -0.1379
 4881SOL    HW115221   0.439   5.752   4.910 -2.0878  0.9355 -2.7100
 4881SOL    HW215222   0.350   5.642   4.853 -1.4896 -1.7372  1.1463
 4882SOL     OW15223   7.892   0.629   5.093  0.1664  0.0822  0.3473
 4882SOL    HW115224   7.812   0.681   5.082  0.5654  0.2530 -2.7054
 4882SOL    HW215225   7.884   0.590   5.180 -2.7668  0.8478  0.5279
 4883SOL     OW15226   3.618   2.183   6.138  0.0180  0.3145 -0.1868
 4883SOL    HW115227   3.641   2.267   6.100  0.6381 -0.8166 -2.5025
 4883SOL    HW215228   3.536   2.200   6.185  0.3878  2.2918 -0.1735
 4884SOL     OW15229   5.845   1.815   1.944  0.1446 -0.6203  0.0241
 4884SOL    HW115230   5.865   1.724   1.968 -1.0469 -0.7327  0.6298
 4884SOL    HW215231   5.768   1.838   1.996  0.9786  1.0604  0.5900
 4885SOL     OW15232   0.234   9.305   9.706 -0.0422  0.1453 -0.0069
 4885SOL    HW115233   0.167   9.357   9.751 -0.6501  0.0652 -0.8155
 4885SOL    HW215234   0.197   9.217   9.701  0.6827 -0.2160  0.7120
 4886SOL     OW15235   6.861   8.759   3.463  0.4260 -0.0100 -0.3085
 4886SOL    HW115236   6.823   8.674   3.486  1.6246 -0.6489 -0.6107
 4886SOL    HW215237   6.820   8.781   3.379 -2.6476  1.5061  1.4063
 4887SOL     OW15238   4.645   6.301   4.318 -0.2365 -0.2982  0.1484
 4887SOL    HW115239   4.714   6.366   4.324 -0.0655 -0.5879  2.6010
 4887SOL    HW215240   4.566   6.347   4.345  0.0060 -1.1429  2.6031
 4888SOL     OW15241   0.081   8.575   8.913 -0.0734  0.0845 -0.0691
 4888SOL    HW115242   0.077   8.654   8.859  0.7744 -1.3065 -2.3043
 4888SOL    HW215243   0.039   8.508   8.859  0.3246 -1.2747  1.2639
 4889SOL     OW15244   9.105   2.572   8.548 -0.2732 -0.2245  0.2256
 4889SOL    HW115245   9.113   2.604   8.637  1.9604 -0.6259  0.2188
 4889SOL    HW215246   9.062   2.643   8.501  3.1830  2.3435  0.5288
 4890SOL     OW15247   7.851   4.912   3.234  0.0171  0.0865  0.3060
 4890SOL    HW115248   7.764   4.950   3.250  0.5736  0.5685  2.4656
 4890SOL    HW215249   7.835   4.818   3.229 -0.6624  0.1865  0.4609
 4891SOL     OW15250   6.216   3.499   0.933 -0.0282  0.1771  0.0687
 4891SOL    HW115251   6.218   3.410   0.898 -0.4800 -0.1763  0.9071
 4891SOL    HW215252   6.156   3.546   0.876  0.3873  0.0143 -0.5153
 4892SOL     OW15253   0.394   1.148   2.052  0.5010 -0.5126  0.1231
 4892SOL    HW115254   0.390   1.204   1.974  1.5559 -0.6833 -0.0627
 4892SOL    HW215255   0.486   1.148   2.077 -0.0015  0.8353  2.3324
 4893SOL     OW15256   8.961   9.489   5.120 -0.1183  0.7838  0.6010
 4893SOL    HW115257   9.000   9.436   5.051  0.2623  1.8066 -0.0017
 4893SOL    HW215258   9.021   9.478   5.194  0.0069  0.4455  0.4528
 4894SOL     OW15259   0.226   1.662   9.470 -0.0323  0.0083 -0.3663
 4894SOL    HW115260   0.261   1.602   9.537  2.2654 -0.0875 -1.5642
 4894SOL    HW215261   0.177   1.605   9.410 -2.0473  0.0829  1.0688
 4895SOL     OW15262   0.699   7.141   3.559 -0.1945  0.0834  0.1484
 4895SOL    HW115263   0.785   7.131   3.600  0.3406  0.8424 -0.7534
 4895SOL    HW215264   0.716   7.132   3.465 -1.3393 -1.2203  0.0474
 4896SOL     OW15265   0.266   2.011   5.639 -0.0058  0.3620  0.2051
 4896SOL    HW115266   0.356   2.044   5.645  0.8770 -1.7359 -0.7121
 4896SOL    HW215267   0.242   1.990   5.729  0.5182  0.6634  0.4186
 4897SOL     OW15268   8.940   4.832   0.041 -0.4449 -0.1138 -0.1810
 4897SOL    HW115269   9.029   4.826   0.077 -0.6938 -1.1140  0.3070
 4897SOL    HW215270   8.895   4.755   0.076 -1.2162 -0.1680 -1.2465
 4898SOL     OW15271   4.004   5.750   0.056 -0.6264  0.0923  0.7659
 4898SOL    HW115272   3.940   5.820   0.049 -2.0261 -1.1356  0.7874
 4898SOL    HW215273   4.025   5.745   0.149  1.5186  2.1713  0.4910
 4899SOL     OW15274   9.083   1.871   6.633  0.1950 -0.1334  0.8132
 4899SOL    HW115275   9.161   1.850   6.582  0.6807 -0.9915  1.8541
 4899SOL    HW215276   9.032   1.790   6.633 -1.9431  1.0603 -1.8494
 4900SOL     OW15277   7.362   6.871   5.399 -0.3777  0.4185 -0.3009
 4900SOL    HW115278   7.361   6.880   5.494  1.3476 -2.4689  0.1020
 4900SOL    HW215279   7.432   6.929   5.369  0.8160 -0.5455  0.5297
 4901SOL     OW15280   9.736   9.380   1.098  0.2692  0.1312 -0.4266
 4901SOL    HW115281   9.759   9.410   1.010  0.0533  1.7654  0.0389
 4901SOL    HW215282   9.782   9.441   1.157  0.6800 -1.1264  0.6140
 4902SOL     OW15283   9.922   8.271   1.663  1.1311  0.1181 -0.4255
 4902SOL    HW115284   9.986   8.322   1.614  1.2535  0.9714  0.5648
 4902SOL    HW215285   9.933   8.301   1.754 -0.0022 -0.4196 -0.0940
 4903SOL     OW15286   5.085   9.545   0.835  0.0569  0.0760  0.5763
 4903SOL    HW115287   5.042   9.459   0.837  0.1985  0.0065  0.6859
 4903SOL    HW215288   5.166   9.530   0.786  0.9599 -0.2734  2.0867
 4904SOL     OW15289   8.326   2.019   1.956 -0.3309 -0.4299 -0.5971
 4904SOL    HW115290   8.255   1.956   1.968 -1.5414  0.9751 -0.1142
 4904SOL    HW215291   8.320   2.044   1.864 -0.1821 -0.6280 -0.6613
 4905SOL     OW15292   5.558   4.584   6.124 -0.5671 -0.7001 -0.4538
 4905SOL    HW115293   5.561   4.605   6.217  0.2930 -1.5302 -0.2787
 4905SOL    HW215294   5.638   4.623   6.088 -1.6098  0.9030 -1.1524
 4906SOL     OW15295   6.397   8.930   3.604 -0.0253 -0.3379  0.1174
 4906SOL    HW115296   6.438   9.008   3.566  0.8700  0.7947  3.1288
 4906SOL    HW215297   6.320   8.963   3.650 -0.8632 -1.5789 -0.3540
 4907SOL     OW15298   3.388   0.115   3.800 -0.4277  0.1921  0.4392
 4907SOL    HW115299   3.415   0.180   3.735 -1.3528  0.0774 -0.0848
 4907SOL    HW215300   3.463   0.106   3.858  0.5535  0.0183 -0.8323
 4908SOL     OW15301   6.965   8.077   9.459  0.0087  0.0308  0.1274
 4908SOL    HW115302   6.902   8.098   9.391  0.2056  1.2120  0.2807
 4908SOL    HW215303   6.912   8.059   9.537 -0.1752  0.0772  0.0128
 4909SOL     OW15304   0.845   8.140   6.530  0.0165  0.2767  0.0462
 4909SOL    HW115305   0.803   8.132   6.616  0.0707 -0.3054  0.0211
 4909SOL    HW215306   0.798   8.078   6.474 -0.8041  1.4813 -0.6720
 4910SOL     OW15307   0.688   2.712   7.574  0.4604  0.4144 -0.0725
 4910SOL    HW115308   0.640   2.794   7.589  0.8279  0.8495 -1.1961
 4910SOL    HW215309   0.736   2.697   7.656 -0.7406  0.5342  0.6776
 4911SOL     OW15310   4.420   9.507   4.715 -0.2495 -0.0261  0.7999
 4911SOL    HW115311   4.493   9.446   4.726 -0.8440 -0.7923  0.6181
 4911SOL    HW215312   4.460   9.594   4.718  0.4156 -0.3401  2.9103
 4912SOL     OW15313   5.013   6.789   3.587  0.2767  0.7107  0.3885
 4912SOL    HW115314   4.946   6.818   3.649  0.5497  2.0508  0.0904
 4912SOL    HW215315   4.965   6.737   3.522 -0.1900  0.2452  1.0975
 4913SOL     OW15316   7.433   1.664   2.720 -0.5700 -0.1901 -0.2271
 4913SOL    HW115317   7.503   1.690   2.781 -0.6572  0.5176 -0.4240
 4913SOL    HW215318   7.386   1.595   2.766 -1.9818  1.7686  1.4695
 4914SOL     OW15319   2.660   4.750   7.923 -0.3069  0.2160 -0.2004
 4914SOL    HW115320   2.635   4.688   7.991  0.3564  0.2112  0.0507
 4914SOL    HW215321   2.577   4.778   7.883 -0.6729 -0.0385  0.3773
 4915SOL     OW15322   9.331   9.721   0.712 -0.2909  0.1917  0.5003
 4915SOL    HW115323   9.293   9.654   0.655  1.3093  0.3086 -0.7415
 4915SOL    HW215324   9.364   9.672   0.788  0.2069 -0.3373 -0.0532
 4916SOL     OW15325   8.088   1.971   2.491  0.0061 -0.2198  0.4364
 4916SOL    HW115326   8.149   2.006   2.556 -0.7822  0.3577  0.8840
 4916SOL    HW215327   8.002   1.990   2.527 -0.5494  2.8778 -2.1131
 4917SOL     OW15328   8.866   4.188   2.398 -0.0495  0.9175  0.1706
 4917SOL    HW115329   8.803   4.125   2.363  0.1251  2.0856 -2.4398
 4917SOL    HW215330   8.819   4.271   2.399  0.6756  1.3304  0.6228
 4918SOL     OW15331   9.848   8.433   4.142 -0.3412 -0.1233  0.5301
 4918SOL    HW115332   9.753   8.444   4.138 -0.2649  0.8233  0.8511
 4918SOL    HW215333   9.867   8.424   4.236 -0.1266 -0.4167  0.4586
 4919SOL     OW15334   8.181   3.479   7.002  0.2031 -0.5131  0.0218
 4919SOL    HW115335   8.116   3.474   7.073  1.4503 -0.7499  1.1791
 4919SOL    HW215336   8.264   3.497   7.046  1.4833 -3.1089 -1.1034
 4920SOL     OW15337   7.776   3.878   0.867 -0.0013 -0.4874  0.0642
 4920SOL    HW115338   7.851   3.926   0.834 -0.2446 -1.0709 -1.4282
 4920SOL    HW215339   7.720   3.945   0.906  1.1800 -0.0255  1.0323
 4921SOL     OW15340   7.857   8.538   2.979  0.3955 -0.4318 -0.5775
 4921SOL    HW115341   7.832   8.498   3.062 -2.2153 -0.0552 -1.0998
 4921SOL    HW215342   7.843   8.632   2.992  1.0771 -0.2459 -1.0985
 4922SOL     OW15343   6.523   6.805   5.630  0.6325 -0.2486  0.5002
 4922SOL    HW115344   6.539   6.764   5.545 -1.6991  0.8820 -0.5559
 4922SOL    HW215345   6.567   6.890   5.625  0.8993 -0.3780  0.6212
 4923SOL     OW15346   0.351   0.673   5.083 -0.0127  0.4650 -0.3429
 4923SOL    HW115347   0.367   0.762   5.051  0.8875 -0.2666 -2.0962
 4923SOL    HW215348   0.394   0.671   5.169 -0.1080  1.7232 -0.2415
 4924SOL     OW15349   5.042   0.924   4.714 -0.4270 -0.3082  0.3905
 4924SOL    HW115350   5.008   0.912   4.803 -1.4635 -3.2216 -0.2765
 4924SOL    HW215351   4.969   0.901   4.657  0.6928 -0.0909 -1.1894
 4925SOL     OW15352   5.452   8.542   1.498 -0.3047 -0.8035  0.6782
 4925SOL    HW115353   5.492   8.607   1.556 -0.7504 -1.5935  1.9182
 4925SOL    HW215354   5.365   8.577   1.479 -0.6376 -1.1371  1.5464
 4926SOL     OW15355   3.822   8.802   4.810 -0.3813 -0.4201 -0.1084
 4926SOL    HW115356   3.731   8.802   4.840 -0.0411 -0.9910  0.9599
 4926SOL    HW215357   3.861   8.725   4.851  1.2051  1.0950  1.4008
 4927SOL     OW15358   7.535   7.591   1.151 -0.5798  0.7650  0.3600
 4927SOL    HW115359   7.623   7.574   1.117 -0.4011  0.5145  0.9366
 4927SOL    HW215360   7.529   7.687   1.152 -1.2671  0.7897 -2.0582
 4928SOL     OW15361   5.285   9.790   0.834  0.2414  0.4691  0.2310
 4928SOL    HW115362   5.228   9.840   0.892  0.0515  1.0894 -0.4725
 4928SOL    HW215363   5.343   9.742   0.893  0.3004  1.3760  0.9283
 4929SOL     OW15364   4.205   2.168   4.362 -0.3705 -0.2005  0.0413
 4929SOL    HW115365   4.246   2.084   4.342  0.0177  0.2125 -1.0116
 4929SOL    HW215366   4.131   2.172   4.302 -1.2955 -0.4389  1.1411
 4930SOL     OW15367   7.534   6.419   9.865  0.0631 -0.1025  0.0504
 4930SOL    HW115368   7.441   6.411   9.846 -0.4026  0.5813  1.8406
 4930SOL    HW215369   7.556   6.510   9.845  0.4003 -0.3048 -0.5252
 4931SOL     OW15370   3.306   9.524   1.183  0.6517  0.3231  0.0530
 4931SOL    HW115371   3.299   9.614   1.154 -4.0754  0.2893  0.2653
 4931SOL    HW215372   3.308   9.472   1.102  1.5938  0.5200 -0.0622
 4932SOL     OW15373   8.913   9.163   2.335  0.0540 -0.0685 -0.0867
 4932SOL    HW115374   8.926   9.108   2.412  1.1925 -0.3533 -0.4751
 4932SOL    HW215375   8.831   9.131   2.296  1.0538 -1.9803 -0.7103
 4933SOL     OW15376   5.128   4.482   0.261  0.3314 -0.0527 -0.3882
 4933SOL    HW115377   5.128   4.555   0.323 -0.4737 -1.4907  1.3877
 4933SOL    HW215378   5.199   4.426   0.291  1.2870  0.2081 -2.0588
 4934SOL     OW15379   5.419   4.258   7.240  0.1690 -0.2178  0.4392
 4934SOL    HW115380   5.412   4.210   7.323  1.2892 -0.7559  0.2381
 4934SOL    HW215381   5.398   4.192   7.173  1.6028 -0.4392  0.1675
 4935SOL     OW15382   5.853   9.528   5.291 -0.2603  0.0626  0.3028
 4935SOL    HW115383   5.863   9.434   5.275  0.5205  0.2543 -0.4340
 4935SOL    HW215384   5.783   9.534   5.356  0.3733 -1.0766  1.1290
 4936SOL     OW15385   7.487   5.995   3.913 -0.0490 -0.2642 -0.5184
 4936SOL    HW115386   7.463   5.924   3.972 -2.2941 -1.4968 -2.6930
 4936SOL    HW215387   7.444   6.072   3.950 -0.1947 -0.7002  0.2367
 4937SOL     OW15388   0.290   0.485   5.643 -0.5290 -0.0386 -0.3754
 4937SOL    HW115389   0.307   0.579   5.651  0.4535 -0.0370 -2.1274
 4937SOL    HW215390   0.362   0.444   5.691 -0.9820  0.0715  0.4287
 4938SOL     OW15391   0.589   8.451   8.195  0.3446  0.1441 -0.1891
 4938SOL    HW115392   0.515   8.432   8.253  1.3812  1.2920  1.6012
 4938SOL    HW215393   0.579   8.389   8.123 -1.9548 -0.1980  0.3423
 4939SOL     OW15394   2.602   6.209   1.771  0.1533  0.6980  0.8705
 4939SOL    HW115395   2.571   6.198   1.861 -0.1898  1.0037  0.7930
 4939SOL    HW215396   2.697   6.202   1.777  0.0753 -0.3886  1.0969
 4940SOL     OW15397   1.779   7.878   0.700 -0.1457 -0.1810 -0.0771
 4940SOL    HW115398   1.873   7.864   0.708 -0.2424 -1.5861 -1.0104
 4940SOL    HW215399   1.744   7.792   0.678 -1.7098  0.2378  0.6098
 4941SOL     OW15400   3.915   3.814   4.214 -0.5525  0.1504 -0.0596
 4941SOL    HW115401   3.945   3.843   4.128  2.0431 -1.0374  0.3677
 4941SOL    HW215402   3.964   3.867   4.277 -1.7603  0.3889  0.7236
 4942SOL     OW15403   7.130   3.902   7.152 -0.4811  0.5595  0.3215
 4942SOL    HW115404   7.162   3.975   7.099 -1.8522 -0.6251 -2.3157
 4942SOL    HW215405   7.195   3.893   7.222  0.3967  3.4393  0.0010
 4943SOL     OW15406   6.941   6.635   6.520  0.3541  0.0704 -0.5859
 4943SOL    HW115407   6.898   6.557   6.486  1.1663 -1.7585  2.2220
 4943SOL    HW215408   6.886   6.663   6.593 -0.7457  3.1733 -2.3958
 4944SOL     OW15409   2.978   8.795   9.629 -0.2034  0.1409 -0.0487
 4944SOL    HW115410   3.062   8.793   9.674  0.2666  0.1670 -0.9049
 4944SOL    HW215411   2.940   8.879   9.652  0.4846  0.5866 -0.4883
 4945SOL     OW15412   4.756   6.047   7.449  0.1574 -0.3082  0.3548
 4945SOL    HW115413   4.680   6.006   7.407  0.4483  0.3932 -0.9079
 4945SOL    HW215414   4.749   6.140   7.426  1.3287 -0.2196  0.2997
 4946SOL     OW15415   6.322   8.600   7.352 -0.4586  0.1613 -0.1447
 4946SOL    HW115416   6.398   8.559   7.394 -0.6748 -0.2222 -0.1155
 4946SOL    HW215417   6.350   8.689   7.333  0.3975 -0.3070 -1.1917
 4947SOL     OW15418   6.906   9.282   3.217 -0.5999  0.2932 -0.3622
 4947SOL    HW115419   6.879   9.372   3.237  1.2958  1.2498 -1.7699
 4947SOL    HW215420   6.977   9.292   3.154  1.0436 -2.1197  0.9256
 4948SOL     OW15421   4.536   7.761   2.042 -0.2765  0.7392  0.6872
 4948SOL    HW115422   4.521   7.677   2.085  1.5239 -0.8172 -1.4534
 4948SOL    HW215423   4.458   7.775   1.989 -0.3421  0.0771  0.5967
 4949SOL     OW15424   7.193   9.407   9.237 -0.6186  0.2379 -0.1733
 4949SOL    HW115425   7.109   9.419   9.193 -0.3099 -1.3083 -1.2561
 4949SOL    HW215426   7.184   9.324   9.283  0.1931  0.2465  0.0049
 4950SOL     OW15427   1.126   7.133   8.832 -0.2151 -0.2605  0.2129
 4950SOL    HW115428   1.168   7.151   8.748  0.2346  0.8572  0.6553
 4950SOL    HW215429   1.186   7.073   8.877 -1.2002 -2.1469 -0.8412
 4951SOL     OW15430   3.285   4.233   8.620  0.2929  0.0318 -0.7153
 4951SOL    HW115431   3.292   4.143   8.588  1.3117  0.2059 -1.0203
 4951SOL    HW215432   3.207   4.268   8.578 -0.8707 -1.0948  0.4045
 4952SOL     OW15433   7.116   1.669   9.507  0.4396  0.2468 -0.5242
 4952SOL    HW115434   7.069   1.745   9.471  0.3027 -0.2820 -1.4899
 4952SOL    HW215435   7.050   1.623   9.559  1.2427  2.3672  2.6476
 4953SOL     OW15436   6.737   7.966   7.587 -0.1146  0.2206  0.3132
 4953SOL    HW115437   6.711   7.875   7.577 -0.5546  0.1305  2.0208
 4953SOL    HW215438   6.657   8.012   7.611  0.2103  0.9768  0.0144
 4954SOL     OW15439   9.886   2.340   6.101 -0.4965 -0.1564 -0.2363
 4954SOL    HW115440   9.914   2.431   6.090  0.2835 -0.1611  1.4472
 4954SOL    HW215441   9.816   2.344   6.166  0.1315 -0.8200  0.5113
 4955SOL     OW15442   9.224   2.651   1.413 -0.3222 -0.0573 -0.0359
 4955SOL    HW115443   9.174   2.651   1.332  0.0263 -0.0641 -0.2548
 4955SOL    HW215444   9.211   2.563   1.449 -1.0429  0.1709  0.2744
 4956SOL     OW15445   1.969   0.451   3.084 -0.0631  0.0099 -0.3675
 4956SOL    HW115446   2.061   0.477   3.087  0.0688 -0.4934 -0.0053
 4956SOL    HW215447   1.963   0.393   3.008 -0.0177 -0.2129 -0.1992
 4957SOL     OW15448   0.159   8.311   9.516 -0.1044 -0.0096  0.6757
 4957SOL    HW115449   0.246   8.351   9.519 -0.0373  0.0723 -1.1338
 4957SOL    HW215450   0.163   8.252   9.441 -2.2881  1.7368 -0.9473
 4958SOL     OW15451   7.668   9.658   3.455 -0.4267  0.0939 -0.2679
 4958SOL    HW115452   7.649   9.720   3.525  2.1024 -0.7487  1.3074
 4958SOL    HW215453   7.713   9.710   3.388  1.3018  0.1247  0.8548
 4959SOL     OW15454   7.516   6.825   0.039  0.0693 -0.0890 -0.0557
 4959SOL    HW115455   7.433   6.787   0.067 -0.3064  1.5244  1.1953
 4959SOL    HW215456   7.509   6.917   0.064  2.8927 -0.2313  1.6768
 4960SOL     OW15457   1.803   5.282   4.076 -0.0241 -0.1804  0.3618
 4960SOL    HW115458   1.873   5.307   4.016 -0.2625  2.0329  0.9225
 4960SOL    HW215459   1.813   5.343   4.150 -1.1418 -1.3378  1.5042
 4961SOL     OW15460   1.198   0.191   6.333  0.0392  0.0762  0.1377
 4961SOL    HW115461   1.136   0.227   6.270  0.1411 -0.6149 -0.3756
 4961SOL    HW215462   1.264   0.147   6.279  1.1877  1.1142  0.6617
 4962SOL     OW15463   6.852   0.815   2.857  0.1580  0.3980 -0.0497
 4962SOL    HW115464   6.899   0.839   2.937 -0.5576  2.2073 -0.1201
 4962SOL    HW215465   6.873   0.884   2.795  0.9078 -1.1054 -1.5566
 4963SOL     OW15466   8.159   5.736   9.355  0.4149 -0.3216  0.9049
 4963SOL    HW115467   8.240   5.693   9.327 -0.3257 -0.4015 -1.3495
 4963SOL    HW215468   8.187   5.810   9.409  1.8435 -1.7188  2.1468
 4964SOL     OW15469   4.796   3.836   7.608 -0.5474 -0.0650  0.6515
 4964SOL    HW115470   4.786   3.929   7.629  1.0421 -0.0942  1.6819
 4964SOL    HW215471   4.856   3.802   7.674  0.0046 -1.5201 -0.5341
 4965SOL     OW15472   3.944   6.835   4.307  0.4673 -0.0263 -0.3482
 4965SOL    HW115473   3.915   6.904   4.366 -1.4011 -0.3456 -0.8296
 4965SOL    HW215474   3.959   6.881   4.224 -0.3104 -0.1026 -0.5400
 4966SOL     OW15475   8.469   8.851   9.694 -0.0920 -0.3214  0.3829
 4966SOL    HW115476   8.379   8.879   9.680  0.8107  2.0645 -1.2542
 4966SOL    HW215477   8.498   8.899   9.772  0.1129 -0.1677  0.2145
 4967SOL     OW15478   3.013   6.528   3.420 -0.2534 -0.2394 -0.0651
 4967SOL    HW115479   2.958   6.519   3.498 -1.2671 -1.2039 -0.8678
 4967SOL    HW215480   3.092   6.479   3.441  0.1469  0.7509  0.9109
 4968SOL     OW15481   9.648   5.625   5.948  0.2666  0.0205  0.5709
 4968SOL    HW115482   9.573   5.567   5.957 -2.2277  2.5058 -1.8941
 4968SOL    HW215483   9.675   5.615   5.856  1.5012  0.8143  0.8236
 4969SOL     OW15484   3.618   2.587   3.851  0.4438  0.3919  0.8508
 4969SOL    HW115485   3.600   2.681   3.851 -1.9808  0.0283 -1.5865
 4969SOL    HW215486   3.554   2.550   3.912  1.0241  0.2218  1.3754
 4970SOL     OW15487   0.285   3.923   2.432  0.9181 -0.1800  0.0995
 4970SOL    HW115488   0.220   3.863   2.395  1.5972 -0.4776 -0.6469
 4970SOL    HW215489   0.234   4.000   2.458  0.1579 -0.7255  0.2711
 4971SOL     OW15490   0.933   7.294   9.695  0.1601  0.0424 -0.0986
 4971SOL    HW115491   0.948   7.351   9.770  0.4481  2.5403 -1.8933
 4971SOL    HW215492   0.840   7.306   9.674  0.2147 -0.1761 -0.4760
 4972SOL     OW15493   5.449   5.587   9.505  0.0843  0.4292  0.3975
 4972SOL    HW115494   5.476   5.547   9.422 -1.9643 -0.2356 -0.0090
 4972SOL    HW215495   5.507   5.548   9.571  0.6733 -0.2730 -0.5186
 4973SOL     OW15496   8.266   8.493   8.856 -0.3129  0.3632 -0.2795
 4973SOL    HW115497   8.341   8.456   8.810 -0.0575 -0.2361  0.5870
 4973SOL    HW215498   8.197   8.426   8.847 -0.9172  1.1097 -1.4725
 4974SOL     OW15499   7.367   7.385   7.755 -0.0288 -0.2444  0.5633
 4974SOL    HW115500   7.284   7.342   7.773 -0.1325  0.3096  1.4538
 4974SOL    HW215501   7.427   7.352   7.822  0.3445 -0.2839  0.2158
 4975SOL     OW15502   1.373   3.216   0.916  0.0757  0.4049  0.3139
 4975SOL    HW115503   1.360   3.123   0.933 -0.0706  0.2164 -0.7298
 4975SOL    HW215504   1.302   3.260   0.963 -0.2238 -0.0617  0.3032
 4976SOL     OW15505   6.312   1.322   6.713  0.3819  0.2170  0.0264
 4976SOL    HW115506   6.325   1.283   6.626  3.0704 -0.5579  0.6996
 4976SOL    HW215507   6.277   1.251   6.766 -3.9564  1.3440 -0.8658
 4977SOL     OW15508   9.534   1.850   1.783 -0.6951  0.0545  0.5282
 4977SOL    HW115509   9.520   1.904   1.861  0.8334  0.4096  0.5811
 4977SOL    HW215510   9.453   1.799   1.774 -1.1863  0.5574  1.8999
 4978SOL     OW15511   3.797   7.331   2.941  0.6364  0.1444  0.5285
 4978SOL    HW115512   3.766   7.421   2.939  1.1383  0.3127 -0.9761
 4978SOL    HW215513   3.834   7.316   2.854  2.6275 -0.7830  1.4700
 4979SOL     OW15514   1.540   9.954   6.084  0.2536  0.5102 -0.0151
 4979SOL    HW115515   1.583   9.999   6.157  2.1008 -0.3239 -0.5216
 4979SOL    HW215516   1.530   9.864   6.114  1.0163  0.1658 -0.7551
 4980SOL     OW15517   0.741   8.462   1.738 -0.3323 -0.0638  0.2190
 4980SOL    HW115518   0.749   8.367   1.734  2.6557  0.1014  0.1901
 4980SOL    HW215519   0.795   8.495   1.666 -0.2977  1.6698  0.9716
 4981SOL     OW15520   1.611   9.086   0.765 -0.0271 -0.0623  0.0701
 4981SOL    HW115521   1.533   9.032   0.752 -0.9743  1.4939 -1.0813
 4981SOL    HW215522   1.677   9.025   0.796 -1.8534 -1.3330  1.7055
 4982SOL     OW15523   7.516   7.351   9.821 -0.6694  0.1372  0.2316
 4982SOL    HW115524   7.425   7.331   9.799 -0.6580 -0.8857  1.0229
 4982SOL    HW215525   7.568   7.300   9.758 -0.6552 -0.9833  1.1053
 4983SOL     OW15526   9.593   5.338   2.570  0.1298  0.0770  0.2175
 4983SOL    HW115527   9.597   5.253   2.527 -0.6767  0.3366 -0.4058
 4983SOL    HW215528   9.664   5.337   2.634  1.1999 -0.4150 -0.9538
 4984SOL     OW15529   6.776   0.759   2.474  0.3670 -0.3310 -0.1944
 4984SOL    HW115530   6.784   0.761   2.569 -2.0177  0.9303  0.0394
 4984SOL    HW215531   6.814   0.843   2.445 -0.5723  0.1052 -0.1782
 4985SOL     OW15532   7.457   8.750   3.957  0.6322  0.7086 -0.0319
 4985SOL    HW115533   7.499   8.674   3.918  2.4654  1.8291 -0.3429
 4985SOL    HW215534   7.405   8.714   4.029  1.5969 -0.8080 -0.0519
 4986SOL     OW15535   8.855   3.786   8.532  0.1127 -0.1404 -0.6825
 4986SOL    HW115536   8.904   3.704   8.542 -2.3298 -1.7735 -1.2345
 4986SOL    HW215537   8.851   3.822   8.620  0.5168 -1.0426 -0.2777
 4987SOL     OW15538   6.890   2.487   8.808 -0.3346 -0.2435 -0.1293
 4987SOL    HW115539   6.909   2.548   8.879 -2.4062 -0.9574  1.1008
 4987SOL    HW215540   6.968   2.432   8.803  0.2519  0.4571  0.9080
 4988SOL     OW15541   3.724   6.482   1.515 -0.8206 -0.4227 -0.1674
 4988SOL    HW115542   3.732   6.391   1.485  1.8628  0.7435 -3.7359
 4988SOL    HW215543   3.652   6.518   1.462  0.0467  0.1913 -0.9619
 4989SOL     OW15544   7.762   6.083   3.863 -0.8626 -0.2942 -0.6667
 4989SOL    HW115545   7.815   6.016   3.820 -0.3927  0.0787 -0.6697
 4989SOL    HW215546   7.680   6.038   3.883  0.1218 -1.4328  1.0437
 4990SOL     OW15547   3.470   6.451   5.013 -0.0620 -1.0574 -0.4498
 4990SOL    HW115548   3.391   6.432   4.962  0.0883 -1.9072 -0.3837
 4990SOL    HW215549   3.542   6.442   4.950 -0.0382  0.1693 -0.6202
 4991SOL     OW15550   7.160   2.059   8.723  0.3136 -0.9296 -0.1815
 4991SOL    HW115551   7.252   2.050   8.698  0.6356 -1.6418  1.1643
 4991SOL    HW215552   7.146   1.989   8.787 -0.1490  1.3496  2.3947
 4992SOL     OW15553   1.086   0.923   5.903 -0.4519  0.0378 -0.3754
 4992SOL    HW115554   1.156   0.962   5.956 -0.3986 -1.4121  0.6500
 4992SOL    HW215555   1.131   0.884   5.829 -0.1125 -1.1334  0.4240
 4993SOL     OW15556   0.406   1.116   8.580  0.9821 -0.0719  0.0135
 4993SOL    HW115557   0.320   1.136   8.617  0.7268 -2.0054  0.6007
 4993SOL    HW215558   0.463   1.108   8.657  1.3791 -0.1264 -0.2871
 4994SOL     OW15559   6.906   6.968   4.932 -0.1386  0.0630 -0.4492
 4994SOL    HW115560   6.983   6.943   4.881 -0.1333 -0.3661 -0.2386
 4994SOL    HW215561   6.939   7.028   4.998 -0.0588  0.2191 -0.6312
 4995SOL     OW15562   5.063   1.736   2.897  0.1786  0.1542 -0.0563
 4995SOL    HW115563   5.118   1.780   2.961  0.8175 -0.8424  0.1076
 4995SOL    HW215564   5.098   1.762   2.812  1.8250 -1.5252  0.0434
 4996SOL     OW15565   7.703   5.579   7.068 -0.0138  0.9108  0.3648
 4996SOL    HW115566   7.611   5.553   7.069  0.2999 -0.2841  0.4526
 4996SOL    HW215567   7.735   5.550   6.983  0.7594 -0.5761  1.1189
 4997SOL     OW15568   4.979   5.206   8.759  0.2300  0.4710 -0.7240
 4997SOL    HW115569   4.984   5.145   8.833  0.2231  2.1484  0.7240
 4997SOL    HW215570   4.900   5.179   8.711  0.2907 -0.7088 -0.1983
 4998SOL     OW15571   5.885   7.955   0.427  0.7628 -0.5672  0.3782
 4998SOL    HW115572   5.911   7.979   0.516 -1.0616  1.9061  0.3367
 4998SOL    HW215573   5.807   7.900   0.439 -0.7764  1.4908  0.3775
 4999SOL     OW15574   1.644   4.109   2.347 -0.3324  0.0988 -0.6721
 4999SOL    HW115575   1.617   4.142   2.261  0.1532 -0.0638 -0.8884
 4999SOL    HW215576   1.580   4.041   2.367 -1.5206  1.3271 -0.0974
 5000SOL     OW15577   2.651   1.190   8.053 -0.1316  0.3677 -0.0039
 5000SOL    HW115578   2.562   1.155   8.058 -0.7445  1.7963 -0.1624
 5000SOL    HW215579   2.641   1.272   8.005  1.6509 -0.5856 -2.1501
 5001SOL     OW15580   7.623   5.937   0.623  0.3812 -0.3061  0.6132
 5001SOL    HW115581   7.686   5.944   0.694  0.5814 -1.5710  0.5862
 5001SOL    HW215582   7.674   5.908   0.547  0.3759  2.1384 -0.4018
 5002SOL     OW15583   5.381   0.643   5.196  0.0501  0.0280 -0.0186
 5002SOL    HW115584   5.460   0.633   5.143  0.5885 -0.2031  0.7956
 5002SOL    HW215585   5.309   0.643   5.133  0.7495  1.1107 -0.8473
 5003SOL     OW15586   9.432   1.708   8.270  0.1977  0.0275  0.5113
 5003SOL    HW115587   9.354   1.735   8.221 -0.2881  0.4322  1.4620
 5003SOL    HW215588   9.460   1.787   8.315  0.6398 -0.3250  0.8668
 5004SOL     OW15589   9.128   3.434   2.918 -0.1629 -0.1468  0.1191
 5004SOL    HW115590   9.184   3.404   2.846 -0.5984  1.3490 -0.9100
 5004SOL    HW215591   9.051   3.378   2.913  0.8846 -1.7128  1.0561
 5005SOL     OW15592   9.356   9.083   0.136  0.3894  0.3862 -0.2076
 5005SOL    HW115593   9.328   9.000   0.096  1.2214  0.1554 -0.3426
 5005SOL    HW215594   9.276   9.135   0.143  0.2099  0.5004 -2.3616
 5006SOL     OW15595   1.345   6.582   4.304  0.0549  0.8811  0.0536
 5006SOL    HW115596   1.437   6.580   4.329  0.1101 -0.5550 -0.2130
 5006SOL    HW215597   1.331   6.671   4.270  1.0218  1.4942  1.1981
 5007SOL     OW15598   5.278   9.276   9.753 -0.2584  0.3328  0.1945
 5007SOL    HW115599   5.320   9.294   9.669  2.1712 -0.1139  1.2023
 5007SOL    HW215600   5.322   9.335   9.815 -1.4824  0.1561  1.2701
 5008SOL     OW15601   8.158   3.440   5.603 -0.1058  0.3446  0.3310
 5008SOL    HW115602   8.064   3.422   5.593 -0.1060  1.6327 -3.7636
 5008SOL    HW215603   8.201   3.358   5.577 -0.1802  0.9750 -1.9920
 5009SOL     OW15604   8.499   4.864   8.069 -0.1618  0.3279 -0.4728
 5009SOL    HW115605   8.560   4.796   8.040  0.9636 -0.2487  2.7918
 5009SOL    HW215606   8.412   4.829   8.048  0.4899 -0.8847 -1.2705
 5010SOL     OW15607   6.452   7.345   9.394 -0.4957 -0.1489 -0.0812
 5010SOL    HW115608   6.487   7.392   9.470 -1.4106  0.4037  0.0152
 5010SOL    HW215609   6.469   7.253   9.413  0.9513  0.0990 -0.0771
 5011SOL     OW15610   8.613   4.491   0.552 -0.1043  0.8718 -0.0465
 5011SOL    HW115611   8.536   4.496   0.495  0.4629 -1.1057 -1.0714
 5011SOL    HW215612   8.683   4.534   0.503  0.1504  0.0135 -0.4557
 5012SOL     OW15613   9.718   0.646   1.898  0.1034  0.5125  0.4749
 5012SOL    HW115614   9.697   0.722   1.844 -0.8868  0.4258  0.7109
 5012SOL    HW215615   9.686   0.669   1.985  1.6728  0.6414  1.0419
 5013SOL     OW15616   3.001   2.805   8.530  0.1294  0.3451 -0.4632
 5013SOL    HW115617   3.095   2.827   8.532  0.2361  0.0049 -1.3799
 5013SOL    HW215618   2.957   2.887   8.554  0.7066 -0.1159  2.6143
 5014SOL     OW15619   2.701   3.994   4.842 -0.0962 -0.0088  0.4116
 5014SOL    HW115620   2.790   3.964   4.826 -0.5775 -1.7567  0.8365
 5014SOL    HW215621   2.692   3.993   4.938 -1.0045 -1.2707  0.3369
 5015SOL     OW15622   5.487   8.838   1.253  0.1783 -0.4304 -0.6572
 5015SOL    HW115623   5.426   8.767   1.274 -0.6780  0.9132  1.8995
 5015SOL    HW215624   5.569   8.812   1.294 -0.1535  0.0349  0.3351
 5016SOL     OW15625   6.689   3.479   5.204 -0.8704 -0.0337 -0.1430
 5016SOL    HW115626   6.601   3.514   5.187 -0.6521  0.8676  0.4874
 5016SOL    HW215627   6.737   3.496   5.124 -1.1504 -0.1185 -0.3298
 5017SOL     OW15628   6.904   6.844   1.557  0.6542 -0.0289  0.2081
 5017SOL    HW115629   6.875   6.760   1.593  0.9947  0.1997  1.0219
 5017SOL    HW215630   6.883   6.838   1.463 -0.1452 -0.6635  0.4152
 5018SOL     OW15631   3.711   9.634   2.314 -0.2738  0.2010  0.4374
 5018SOL    HW115632   3.647   9.572   2.349  0.3454 -0.4088  0.5198
 5018SOL    HW215633   3.665   9.718   2.311 -1.1957 -0.3085  0.1083
 5019SOL     OW15634   9.476   1.651   6.784  0.0431  0.1672  0.1802
 5019SOL    HW115635   9.551   1.659   6.843  1.3903  0.2728 -1.4652
 5019SOL    HW215636   9.401   1.676   6.837  0.8966 -1.6933  2.4168
 5020SOL     OW15637   0.868   0.805   8.146 -0.0148 -0.1569  0.0684
 5020SOL    HW115638   0.799   0.792   8.081  0.0410  3.0563 -0.7850
 5020SOL    HW215639   0.943   0.835   8.096  1.5202 -1.9486  1.1815
 5021SOL     OW15640   2.830   7.728   0.084 -0.1194 -0.7216 -0.6525
 5021SOL    HW115641   2.909   7.675   0.090  0.9496  0.8988  0.1861
 5021SOL    HW215642   2.845   7.786   0.010 -0.3015 -0.0881 -0.2071
 5022SOL     OW15643   7.703   9.821   3.886 -0.4384  0.1496 -0.0228
 5022SOL    HW115644   7.738   9.831   3.798 -1.7682  0.4659 -0.5462
 5022SOL    HW215645   7.745   9.742   3.920  1.0417  0.7215 -0.4445
 5023SOL     OW15646   4.610   3.154   3.182  0.0853  0.2336  0.0471
 5023SOL    HW115647   4.537   3.201   3.140  1.7852  0.9492 -2.3320
 5023SOL    HW215648   4.686   3.211   3.169  1.3579 -1.1327  1.1563
 5024SOL     OW15649   1.726   5.772   1.245 -0.3031  0.1872 -0.2840
 5024SOL    HW115650   1.797   5.835   1.256  0.6734 -0.6711 -1.3573
 5024SOL    HW215651   1.730   5.748   1.152 -1.9250  0.0206 -0.3254
 5025SOL     OW15652   4.181   3.800   9.242 -0.0972  0.0547  0.3531
 5025SOL    HW115653   4.091   3.821   9.271  0.2836 -0.6735  2.2086
 5025SOL    HW215654   4.204   3.872   9.183 -1.9836  0.1165 -0.3891
 5026SOL     OW15655   1.458   7.678   2.551  0.6567 -0.0379 -0.6132
 5026SOL    HW115656   1.552   7.672   2.535  0.5451  0.1667 -1.3958
 5026SOL    HW215657   1.424   7.730   2.478 -0.1857 -0.8617 -0.8395
 5027SOL     OW15658   8.304   6.125   2.760 -0.1392 -0.2037 -0.0922
 5027SOL    HW115659   8.244   6.058   2.795 -1.6855  0.4176 -1.4597
 5027SOL    HW215660   8.329   6.176   2.837 -0.9350 -0.8278  0.6044
 5028SOL     OW15661   3.044   7.977   3.795  0.0595 -0.1375  0.6994
 5028SOL    HW115662   2.974   8.015   3.741 -0.1744 -0.6464  0.6442
 5028SOL    HW215663   3.077   8.052   3.845 -0.3652  0.1576  0.5524
 5029SOL     OW15664   0.489   1.505   0.286  0.5288  0.0169 -0.0174
 5029SOL    HW115665   0.441   1.547   0.214 -1.7121 -0.1300  1.2908
 5029SOL    HW215666   0.427   1.441   0.322  1.2439  0.6615  2.5571
 5030SOL     OW15667   2.460   8.860   8.278  0.1329 -0.3290 -0.1403
 5030SOL    HW115668   2.441   8.812   8.359 -1.3373 -0.5072 -0.5606
 5030SOL    HW215669   2.554   8.849   8.265  0.5788  0.4404  2.0004
 5031SOL     OW15670   3.111   0.863   6.497  0.1559 -0.3187 -0.1160
 5031SOL    HW115671   3.150   0.936   6.449  0.2752 -1.2218 -1.4585
 5031SOL    HW215672   3.017   0.880   6.496  0.1138 -0.5848 -1.1366
 5032SOL     OW15673   2.463   6.817   8.923 -0.6332 -0.0419  0.0724
 5032SOL    HW115674   2.417   6.895   8.955 -0.0016 -0.1977  1.3975
 5032SOL    HW215675   2.432   6.807   8.832  0.5947  2.7981 -0.7749
 5033SOL     OW15676   6.716   2.868   1.733  0.2315 -0.0703 -0.1531
 5033SOL    HW115677   6.693   2.888   1.823  0.3066  0.7642 -0.3085
 5033SOL    HW215678   6.636   2.882   1.683 -0.2418 -2.0676 -0.0208
 5034SOL     OW15679   1.091   6.961   5.349 -0.3377 -0.3390 -0.2036
 5034SOL    HW115680   1.055   6.888   5.398  1.1753 -1.3950 -0.5911
 5034SOL    HW215681   1.026   6.981   5.282 -0.4246 -1.8542 -0.5864
 5035SOL     OW15682   8.254   6.897   9.089  0.3683 -0.2391 -0.1240
 5035SOL    HW115683   8.163   6.920   9.067  0.3429 -0.6527 -0.4682
 5035SOL    HW215684   8.256   6.898   9.184 -0.0154 -0.2855 -0.1122
 5036SOL     OW15685   8.084   3.251   8.580  0.1346  0.2616  0.4930
 5036SOL    HW115686   8.024   3.178   8.595 -0.4168  0.8535  1.2634
 5036SOL    HW215687   8.029   3.318   8.538  0.6037  0.2858 -0.0989
 5037SOL     OW15688   0.654   2.557   5.790  0.5900 -0.0934 -0.1170
 5037SOL    HW115689   0.652   2.493   5.861  0.1381 -0.5062 -0.4852
 5037SOL    HW215690   0.720   2.621   5.816 -0.9753  0.8864  1.6111
 5038SOL     OW15691   3.902   9.390   4.130  0.0996 -0.2143 -0.1213
 5038SOL    HW115692   3.907   9.483   4.151  0.0143  0.2174 -1.8364
 5038SOL    HW215693   3.984   9.354   4.164  0.1444  0.4825  0.5390
 5039SOL     OW15694   1.798   7.138   2.898 -0.2629  0.2981  0.4472
 5039SOL    HW115695   1.749   7.076   2.843  0.3625  0.9978 -0.9367
 5039SOL    HW215696   1.782   7.107   2.988 -1.1618 -0.9830 -0.1132
 5040SOL     OW15697   7.222   0.954   3.418  0.3668  0.6870 -0.1493
 5040SOL    HW115698   7.253   0.869   3.451  0.6180  0.5351 -0.7757
 5040SOL    HW215699   7.201   1.004   3.498  0.6942  0.2173  0.2381
 5041SOL     OW15700   5.756   6.291   3.179 -0.0624  0.0443 -0.1773
 5041SOL    HW115701   5.681   6.322   3.230  0.9731  0.5094  1.1221
 5041SOL    HW215702   5.730   6.205   3.149 -0.9112 -0.0495  0.7550
 5042SOL     OW15703   8.006   3.707   1.063 -0.2546 -0.1323 -0.2297
 5042SOL    HW115704   7.955   3.643   1.112 -2.5515 -0.3089 -2.6825
 5042SOL    HW215705   7.989   3.790   1.108 -1.9438 -0.3507 -0.4323
 5043SOL     OW15706   7.164   0.607   9.339 -0.5922  0.3309 -0.0360
 5043SOL    HW115707   7.163   0.556   9.420 -0.6900 -2.0211 -1.4136
 5043SOL    HW215708   7.256   0.613   9.314 -0.5982  0.6866  0.0170
 5044SOL     OW15709   3.488   5.895   5.367 -0.1779  0.5893  1.1894
 5044SOL    HW115710   3.397   5.872   5.387  0.1293 -1.9022  0.1219
 5044SOL    HW215711   3.538   5.866   5.444 -0.0408 -0.3661  0.7565
 5045SOL     OW15712   9.888   1.413   7.069  0.1698 -0.3243  0.4651
 5045SOL    HW115713   9.859   1.381   7.154 -1.1933 -1.4185 -0.3687
 5045SOL    HW215714   9.853   1.502   7.063  0.6473 -0.0782  1.2075
 5046SOL     OW15715   9.849   4.931   8.648  0.2306 -0.1445  0.2444
 5046SOL    HW115716   9.830   4.994   8.718 -0.0881  0.2134 -0.1586
 5046SOL    HW215717   9.910   4.870   8.688  0.5675  0.4338  0.6422
 5047SOL     OW15718   2.619   9.522   3.177 -0.4024 -0.0558 -0.4291
 5047SOL    HW115719   2.687   9.521   3.110 -0.5874  2.2850 -0.7341
 5047SOL    HW215720   2.542   9.558   3.133 -1.6932 -2.0085  0.0929
 5048SOL     OW15721   5.616   9.033   9.660 -0.2513 -0.1611 -0.0237
 5048SOL    HW115722   5.545   9.068   9.606 -0.3598  0.1602  0.3248
 5048SOL    HW215723   5.588   9.050   9.750  0.0031 -0.5486  0.1305
 5049SOL     OW15724   4.878   0.864   2.576 -0.4040  0.0674 -0.3087
 5049SOL    HW115725   4.916   0.938   2.624 -1.6701  0.6174 -0.1389
 5049SOL    HW215726   4.826   0.904   2.506 -0.0227 -0.7012 -1.0605
 5050SOL     OW15727   1.146   8.705   4.622 -0.2035 -0.0348 -0.0766
 5050SOL    HW115728   1.142   8.639   4.552  2.1572 -1.3016  0.8790
 5050SOL    HW215729   1.230   8.749   4.608 -0.3989  0.7332  1.0588
 5051SOL     OW15730   2.942   6.977   3.179 -0.1850  0.1403  0.1344
 5051SOL    HW115731   3.004   7.050   3.170 -1.0039  0.7684 -0.5698
 5051SOL    HW215732   2.989   6.913   3.232  0.6818  1.0380  0.4986
 5052SOL     OW15733   9.621   9.889   1.498 -0.5911  0.0780  0.1000
 5052SOL    HW115734   9.623   9.943   1.577  0.5170  2.1045 -1.2029
 5052SOL    HW215735   9.671   9.811   1.521  0.9923  1.2833  1.0214
 5053SOL     OW15736   1.706   3.768   8.264  0.2427  0.2167  0.3019
 5053SOL    HW115737   1.781   3.746   8.320 -0.4768 -2.0224  0.4853
 5053SOL    HW215738   1.644   3.812   8.323  0.0262 -0.9733  0.9937
 5054SOL     OW15739   0.874   3.884   8.316 -0.1196 -0.2037 -0.5632
 5054SOL    HW115740   0.794   3.911   8.361 -1.2937 -2.1087 -1.4088
 5054SOL    HW215741   0.885   3.948   8.246  1.1848  2.2155  1.6384
 5055SOL     OW15742   2.367   5.577   2.400  0.3955 -0.5995 -0.2935
 5055SOL    HW115743   2.358   5.629   2.321  1.4027  0.0935  0.0314
 5055SOL    HW215744   2.422   5.503   2.375 -2.6803 -2.7773 -1.3053
 5056SOL     OW15745   1.635   1.732   2.157 -0.1285  0.0767 -0.3268
 5056SOL    HW115746   1.591   1.685   2.228  2.0504 -1.3700  0.1552
 5056SOL    HW215747   1.568   1.791   2.123 -1.8050 -0.5372  1.6787
 5057SOL     OW15748   2.809   5.593   0.454 -0.0844  0.6209 -0.5670
 5057SOL    HW115749   2.842   5.577   0.543 -0.7709 -1.5633 -0.6443
 5057SOL    HW215750   2.808   5.688   0.446 -0.0742  0.8910  1.7955
 5058SOL     OW15751   8.641   1.257   0.159 -0.6144  0.2570  0.2583
 5058SOL    HW115752   8.592   1.179   0.185 -0.9792 -0.3805 -2.0949
 5058SOL    HW215753   8.574   1.322   0.140 -0.3876  0.5099  0.3187
 5059SOL     OW15754   6.397   8.904   7.916  0.6126  0.6501  0.2423
 5059SOL    HW115755   6.357   8.821   7.940  1.2843  0.5504  1.0894
 5059SOL    HW215756   6.436   8.936   7.997  1.9396  0.8901 -0.4438
 5060SOL     OW15757   2.517   0.999   0.973 -0.2076  0.4050  0.0163
 5060SOL    HW115758   2.514   1.058   0.898  0.7742  0.0478 -0.3207
 5060SOL    HW215759   2.429   0.961   0.978 -0.5943  1.2456 -0.2871
 5061SOL     OW15760   8.470   9.081   9.895 -0.5820 -0.5867  0.6198
 5061SOL    HW115761   8.397   9.036   9.939 -0.4437  1.4368  3.1937
 5061SOL    HW215762   8.438   9.170   9.881  1.5763  0.6158  2.6219
 5062SOL     OW15763   8.764   2.746   6.971 -0.8836  0.1307  0.5884
 5062SOL    HW115764   8.854   2.714   6.978 -0.9566 -0.4378 -0.7248
 5062SOL    HW215765   8.754   2.806   7.045  1.4323  2.2281 -0.6568
 5063SOL     OW15766   8.609   9.109   1.501 -0.3766 -0.0894 -0.2108
 5063SOL    HW115767   8.666   9.139   1.571 -0.8047 -0.0137  0.1124
 5063SOL    HW215768   8.537   9.064   1.546 -0.5446 -0.2292 -0.6093
 5064SOL     OW15769   0.323   2.110   2.102  0.0553  0.0934 -0.5681
 5064SOL    HW115770   0.287   2.104   2.190 -0.4130  0.3962 -0.7359
 5064SOL    HW215771   0.317   2.021   2.067  2.0358 -0.4816  0.3839
 5065SOL     OW15772   7.292   6.637   2.499 -0.2462  0.0255 -0.0702
 5065SOL    HW115773   7.309   6.648   2.593 -0.1579  0.3510 -0.1226
 5065SOL    HW215774   7.304   6.724   2.462 -2.6743  0.4353 -0.0294
 5066SOL     OW15775   6.520   5.312   0.473 -0.2406  0.7866 -0.3312
 5066SOL    HW115776   6.521   5.217   0.457 -2.4678  0.1607  2.4932
 5066SOL    HW215777   6.605   5.329   0.515 -0.4721 -0.3434  0.6842
 5067SOL     OW15778   2.419   1.817   4.287  0.6805 -0.4821  0.1295
 5067SOL    HW115779   2.484   1.834   4.356 -0.3762 -1.5840  1.4521
 5067SOL    HW215780   2.341   1.789   4.335  0.1101 -1.9141 -1.5640
 5068SOL     OW15781   0.082   7.314   2.774 -0.0372 -0.1258  0.0453
 5068SOL    HW115782   0.072   7.220   2.758 -0.4633 -0.2410  0.9487
 5068SOL    HW215783   0.096   7.321   2.868  0.1251  0.7095 -0.0362
 5069SOL     OW15784   7.245   5.830   6.682  0.2202 -0.3447  0.3295
 5069SOL    HW115785   7.273   5.921   6.670  0.3560 -0.4167  0.0845
 5069SOL    HW215786   7.326   5.779   6.680  0.0584 -0.5993 -0.8658
 5070SOL     OW15787   7.416   2.846   5.857 -0.3053  0.2953  0.7568
 5070SOL    HW115788   7.437   2.756   5.881 -1.7188 -0.2856 -0.0553
 5070SOL    HW215789   7.432   2.897   5.937 -0.3537 -0.8211  1.4931
 5071SOL     OW15790   9.487   0.476   4.300 -0.1901 -0.0971  0.0210
 5071SOL    HW115791   9.520   0.387   4.298 -0.8816 -0.3444 -1.0109
 5071SOL    HW215792   9.454   0.488   4.389  3.5393  0.5309  1.4933
 5072SOL     OW15793   1.727   6.143   8.628 -0.7181 -0.0717 -0.5150
 5072SOL    HW115794   1.689   6.192   8.701  0.7674 -2.1596  1.8700
 5072SOL    HW215795   1.654   6.094   8.591 -1.1896 -0.6275  1.0541
 5073SOL     OW15796   3.157   9.449   7.430 -0.7030  0.3155 -0.4898
 5073SOL    HW115797   3.069   9.482   7.446 -0.6426  0.2368  0.0446
 5073SOL    HW215798   3.154   9.410   7.343 -1.0801  0.7039 -0.6477
 5074SOL     OW15799   1.255   7.852   6.912  0.4722 -0.3063  0.0783
 5074SOL    HW115800   1.296   7.794   6.848  1.9304 -0.3193  0.9625
 5074SOL    HW215801   1.222   7.793   6.979  2.0032 -0.1801  1.0045
 5075SOL     OW15802   1.025   4.626   8.808  0.1927  0.2790 -0.6641
 5075SOL    HW115803   1.024   4.721   8.794 -0.3386  0.4550  0.4269
 5075SOL    HW215804   1.099   4.611   8.867  0.7331 -0.0917 -1.4182
 5076SOL     OW15805   1.477   7.545   5.296  0.5050 -0.1532 -0.0603
 5076SOL    HW115806   1.475   7.450   5.289  0.2227 -0.2495  1.0911
 5076SOL    HW215807   1.392   7.569   5.332  0.7218  0.5002  0.0388
 5077SOL     OW15808   5.302   2.841   4.198 -0.6161  0.1430 -0.0908
 5077SOL    HW115809   5.246   2.859   4.273  0.8433  1.3228  0.7605
 5077SOL    HW215810   5.366   2.777   4.230 -1.0357 -0.6774 -0.8509
 5078SOL     OW15811   8.261   6.839   6.400 -0.5454 -0.6987 -0.2903
 5078SOL    HW115812   8.308   6.919   6.374 -0.2091 -0.9346 -0.4238
 5078SOL    HW215813   8.186   6.835   6.340  0.8689 -1.8713 -2.0860
 5079SOL     OW15814   9.503   0.802   9.307 -0.1640 -0.2301 -0.1450
 5079SOL    HW115815   9.508   0.882   9.361 -0.6404 -0.9327  0.9768
 5079SOL    HW215816   9.588   0.760   9.320 -0.5182 -0.7314  0.6093
 5080SOL     OW15817   1.776   1.213   1.133 -0.1891  0.3202 -0.2119
 5080SOL    HW115818   1.741   1.276   1.196  0.2014  2.0767 -1.6414
 5080SOL    HW215819   1.705   1.202   1.069  1.0314  2.4837 -2.1246
 5081SOL     OW15820   6.700   6.971   4.527 -0.4865 -0.4787 -0.1885
 5081SOL    HW115821   6.609   6.975   4.498 -0.4481  1.8123 -0.1649
 5081SOL    HW215822   6.750   6.952   4.448 -0.6394  2.8688 -1.2402
 5082SOL     OW15823   7.956   5.406   4.879  0.2704  1.0495  0.3549
 5082SOL    HW115824   7.930   5.316   4.899  2.2475  0.7918  2.1349
 5082SOL    HW215825   7.885   5.460   4.912  0.6818  0.2813  2.6560
 5083SOL     OW15826   8.281   6.776   7.574  0.3019 -0.2281 -0.0019
 5083SOL    HW115827   8.291   6.770   7.479  0.6795 -0.7088  0.0638
 5083SOL    HW215828   8.187   6.782   7.588  0.2530  0.0028 -0.4169
 5084SOL     OW15829   7.400   6.018   1.135 -0.3461  0.3533  0.1775
 5084SOL    HW115830   7.475   5.987   1.185 -0.5749 -0.4472  0.0527
 5084SOL    HW215831   7.434   6.033   1.047  0.4842  3.5748  0.9441
 5085SOL     OW15832   3.608   2.869   0.328  0.3358  0.3192 -0.4508
 5085SOL    HW115833   3.631   2.874   0.421 -2.0753  0.8256  0.1797
 5085SOL    HW215834   3.662   2.936   0.286  1.5801 -0.0363  0.5186
 5086SOL     OW15835   6.883   0.426   0.386 -0.0257  1.0222  0.1756
 5086SOL    HW115836   6.828   0.457   0.313  0.1635  0.7145 -0.0958
 5086SOL    HW215837   6.821   0.405   0.456 -0.1865  1.6384  0.2275
 5087SOL     OW15838   9.864   7.059   5.876 -0.7539  0.6857 -0.0415
 5087SOL    HW115839   9.941   7.071   5.821  0.3229 -1.8764  0.7229
 5087SOL    HW215840   9.791   7.052   5.815 -0.2266  1.9434 -0.8482
 5088SOL     OW15841   2.460   8.000   3.951  0.2740 -0.2898 -0.3580
 5088SOL    HW115842   2.442   7.931   4.015  0.5316 -0.2849 -0.2788
 5088SOL    HW215843   2.523   7.961   3.890 -1.1098 -0.8202 -1.5074
 5089SOL     OW15844   4.892   3.594   3.951 -0.0388 -0.3261 -0.3380
 5089SOL    HW115845   4.847   3.659   3.897 -0.5216  0.6011  1.1237
 5089SOL    HW215846   4.973   3.574   3.903  0.2128  1.5078 -0.7408
 5090SOL     OW15847   2.726   4.718   7.276  0.3564  0.5359  0.0079
 5090SOL    HW115848   2.651   4.677   7.318  0.4998 -1.1555 -1.2859
 5090SOL    HW215849   2.706   4.812   7.279 -1.8313  0.1390 -0.3204
 5091SOL     OW15850   1.244   2.661   9.387  0.4576 -0.6061  0.0061
 5091SOL    HW115851   1.155   2.661   9.353  0.7926  1.1523 -1.0072
 5091SOL    HW215852   1.245   2.732   9.452  1.9080  2.0002 -2.5715
 5092SOL     OW15853   9.421   0.129   5.298 -0.1269  0.4525 -0.4900
 5092SOL    HW115854   9.408   0.123   5.203  1.6158 -1.1857 -0.6808
 5092SOL    HW215855   9.477   0.206   5.309 -0.3191  0.6390 -0.7653
 5093SOL     OW15856   1.814   9.476   1.578  0.1872  0.0355 -0.8722
 5093SOL    HW115857   1.816   9.520   1.663  0.5997 -1.1598 -0.2327
 5093SOL    HW215858   1.723   9.446   1.569  0.6215 -1.7388  0.2008
 5094SOL     OW15859   8.557   3.525   0.968  0.0647  0.0279  0.3050
 5094SOL    HW115860   8.584   3.454   1.026 -0.2234 -0.6729 -0.3967
 5094SOL    HW215861   8.537   3.482   0.885 -0.1042  0.9351 -0.1408
 5095SOL     OW15862   6.191   3.471   5.248 -0.1452  0.0145 -0.5872
 5095SOL    HW115863   6.144   3.394   5.279 -1.6876  0.4867 -1.6255
 5095SOL    HW215864   6.144   3.545   5.286  1.0694  0.4745  0.0665
 5096SOL     OW15865   7.491   1.312   9.753 -0.0832 -0.1038  0.5320
 5096SOL    HW115866   7.476   1.269   9.837 -1.2809 -0.5498  0.1117
 5096SOL    HW215867   7.431   1.387   9.755  0.3262  0.2319  0.3135
 5097SOL     OW15868   8.736   4.766   9.077 -0.9301  0.1399  0.3313
 5097SOL    HW115869   8.651   4.758   9.036 -0.7592 -1.8762  0.3071
 5097SOL    HW215870   8.794   4.799   9.008 -1.8016  2.4136  0.5827
 5098SOL     OW15871   1.231   4.653   7.431 -0.8070 -0.0417  0.1435
 5098SOL    HW115872   1.279   4.682   7.508 -0.5946  0.1565 -0.0643
 5098SOL    HW215873   1.299   4.631   7.367 -0.8819 -2.2492  0.7182
 5099SOL     OW15874   6.653   6.349   9.869  0.2603 -0.3466  0.3008
 5099SOL    HW115875   6.623   6.317   9.784  2.2760 -1.6587  0.0046
 5099SOL    HW215876   6.744   6.376   9.853  0.2859  0.5384  1.7851
 5100SOL     OW15877   3.583   7.525   5.891  0.5602  0.2652 -0.1188
 5100SOL    HW115878   3.608   7.448   5.840 -1.1848  0.0386 -0.7131
 5100SOL    HW215879   3.536   7.581   5.828 -0.7650  0.4347  0.9812
 5101SOL     OW15880   0.907   6.802   6.242 -0.0174  0.6339  0.6748
 5101SOL    HW115881   0.910   6.865   6.170 -1.7802  0.2369  0.1991
 5101SOL    HW215882   0.916   6.716   6.199  0.0538  0.4497  1.0567
 5102SOL     OW15883   9.704   1.584   3.100  0.1807 -0.9225  0.2765
 5102SOL    HW115884   9.788   1.598   3.143  1.0230  0.0888 -1.6195
 5102SOL    HW215885   9.666   1.672   3.093 -1.3071 -1.4141  1.5578
 5103SOL     OW15886   6.157   3.167   6.109  0.3027  0.0630 -0.7023
 5103SOL    HW115887   6.248   3.137   6.105  0.6090  1.0368 -1.4922
 5103SOL    HW215888   6.124   3.133   6.192  0.6542 -2.2852 -1.4502
 5104SOL     OW15889   3.632   0.651   4.481 -0.5320  0.3583 -0.3788
 5104SOL    HW115890   3.694   0.724   4.484 -0.4237  0.2711 -0.5163
 5104SOL    HW215891   3.598   0.645   4.570  1.1288 -0.8786  0.2178
 5105SOL     OW15892   8.238   1.472   5.177  0.4198  0.3595  0.3828
 5105SOL    HW115893   8.290   1.422   5.240 -2.1712 -3.0063  0.2051
 5105SOL    HW215894   8.233   1.415   5.100 -2.7366  0.8069  0.1301
 5106SOL     OW15895   0.162   2.296   3.930  0.3215 -0.0081 -0.1304
 5106SOL    HW115896   0.107   2.335   3.999  0.1437 -1.4285  0.5626
 5106SOL    HW215897   0.099   2.257   3.869  0.4877  1.0636 -1.0224
 5107SOL     OW15898   2.429   5.253   1.482 -0.5490  0.6758  0.1433
 5107SOL    HW115899   2.417   5.325   1.543  1.1833  0.9777  0.1532
 5107SOL    HW215900   2.523   5.249   1.466 -0.8222 -0.2305 -1.5012
 5108SOL     OW15901   8.925   5.044   6.511  0.4255  0.3554 -0.4038
 5108SOL    HW115902   8.839   5.015   6.483 -1.2467  1.9540  2.5436
 5108SOL    HW215903   8.907   5.113   6.576  3.9485  2.5233 -1.4198
 5109SOL     OW15904   2.391   4.626   0.062  0.4886 -0.8135  0.2118
 5109SOL    HW115905   2.298   4.630   0.083  0.1343  0.1637 -1.3414
 5109SOL    HW215906   2.433   4.682   0.128 -0.1912 -0.2180  0.1544
 5110SOL     OW15907   5.151   6.947   8.332 -0.1815 -0.1103 -0.1868
 5110SOL    HW115908   5.146   6.973   8.241  0.2131 -1.0043 -0.4786
 5110SOL    HW215909   5.212   6.873   8.333  0.6954  0.5990  0.9653
 5111SOL     OW15910   8.274   1.340   4.705  0.4416  0.0113  0.0136
 5111SOL    HW115911   8.349   1.283   4.690  1.1364  0.2718  2.1695
 5111SOL    HW215912   8.263   1.389   4.624  1.7948 -0.9342 -0.7676
 5112SOL     OW15913   4.593   6.884   6.485 -0.6802 -0.0561 -0.0906
 5112SOL    HW115914   4.580   6.860   6.393 -1.9306 -1.4960  0.4289
 5112SOL    HW215915   4.628   6.805   6.525 -1.1089  0.2465  0.8958
 5113SOL     OW15916   7.864   2.425   6.959  0.2528  0.5134 -0.0163
 5113SOL    HW115917   7.866   2.370   6.881 -2.6839  2.0840 -1.3801
 5113SOL    HW215918   7.955   2.431   6.987  1.2174 -1.2948 -2.4410
 5114SOL     OW15919   4.912   3.111   3.271  0.1756 -0.0975 -0.2428
 5114SOL    HW115920   4.855   3.149   3.338  0.4614 -0.0003 -0.0546
 5114SOL    HW215921   4.889   3.018   3.270 -1.1531  0.2029 -1.3143
 5115SOL     OW15922   5.791   4.904   4.562  0.1116 -0.2934 -0.4358
 5115SOL    HW115923   5.701   4.876   4.582 -0.1968  0.4230 -0.7932
 5115SOL    HW215924   5.792   4.913   4.466 -0.1695  2.0847 -0.2759
 5116SOL     OW15925   2.735   8.833   8.294  0.6075 -0.0720  0.0539
 5116SOL    HW115926   2.797   8.761   8.287  0.5068 -0.0200 -1.8094
 5116SOL    HW215927   2.775   8.893   8.357  2.3811 -0.1290 -0.9656
 5117SOL     OW15928   5.251   4.743   3.267  0.1496 -0.1753 -0.2440
 5117SOL    HW115929   5.181   4.689   3.231 -1.2654  1.5910 -0.2627
 5117SOL    HW215930   5.245   4.826   3.220  1.3817  0.4936  0.7071
 5118SOL     OW15931   8.439   2.155   3.502 -0.5418 -0.3221 -0.4539
 5118SOL    HW115932   8.365   2.131   3.558  0.0238 -0.3685  0.2873
 5118SOL    HW215933   8.493   2.076   3.499 -0.2757 -0.1346 -0.5978
 5119SOL     OW15934   8.794   9.645   2.977 -0.1730  0.3820  0.6466
 5119SOL    HW115935   8.833   9.732   2.983  0.2491  0.4450 -1.7851
 5119SOL    HW215936   8.868   9.587   2.962 -0.4517 -0.4548  2.2729
 5120SOL     OW15937   9.275   7.166   6.483 -0.1066  0.5956 -0.7403
 5120SOL    HW115938   9.336   7.133   6.418  2.3202  1.1166  1.1078
 5120SOL    HW215939   9.300   7.258   6.495 -1.1860  0.7986  0.1462
 5121SOL     OW15940   5.661   9.066   3.965 -0.0039 -0.4555  0.8429
 5121SOL    HW115941   5.615   8.987   3.992 -0.2251 -1.2990 -1.7448
 5121SOL    HW215942   5.610   9.100   3.892  2.1552 -0.1275 -0.6179
 5122SOL     OW15943   4.552   0.032   1.850 -0.4757  0.4775  0.1917
 5122SOL    HW115944   4.614   0.095   1.888 -2.1018  1.5443  1.2330
 5122SOL    HW215945   4.591   0.008   1.766  0.8658  1.8363  0.3656
 5123SOL     OW15946   6.922   1.116   5.314 -0.3693 -0.0775  0.0046
 5123SOL    HW115947   6.969   1.084   5.238  1.4757 -1.2154  1.5334
 5123SOL    HW215948   6.958   1.204   5.329  1.4185 -0.9516  1.1821
 5124SOL     OW15949   0.880   6.521   9.492 -0.3678  0.1143 -0.0462
 5124SOL    HW115950   0.948   6.588   9.487 -0.7890  0.4662 -1.3437
 5124SOL    HW215951   0.850   6.510   9.402 -0.7180 -1.4020  0.2372
 5125SOL     OW15952   8.088   0.716   2.432  0.5018  0.6142 -0.2372
 5125SOL    HW115953   8.146   0.786   2.403 -0.2957  1.0997 -0.6908
 5125SOL    HW215954   8.045   0.685   2.352 -1.3891  1.6670  0.3077
 5126SOL     OW15955   2.017   7.806   0.814  0.2403  0.1236 -0.7388
 5126SOL    HW115956   2.096   7.763   0.848  0.4001  1.1354  0.2349
 5126SOL    HW215957   2.044   7.896   0.797 -0.4027  0.1668 -1.5865
 5127SOL     OW15958   4.854   4.164   5.914  0.0837  0.2049  0.0450
 5127SOL    HW115959   4.867   4.119   5.831 -1.7646 -1.3526  0.5236
 5127SOL    HW215960   4.867   4.096   5.980  1.0924  1.3136  1.0449
 5128SOL     OW15961   5.634   2.228   4.984 -0.5277  0.4568  0.1543
 5128SOL    HW115962   5.575   2.251   5.056 -0.7505 -0.8068  0.3937
 5128SOL    HW215963   5.659   2.138   5.001  1.6203  1.0080  0.1382
 5129SOL     OW15964   3.675   7.643   3.338  0.0318  0.4004 -0.1650
 5129SOL    HW115965   3.684   7.682   3.425 -2.5356 -0.0220  0.3825
 5129SOL    HW215966   3.660   7.550   3.355  0.4803  0.1391 -1.1344
 5130SOL     OW15967   8.697   1.241   9.436  0.4605  0.3814 -0.1373
 5130SOL    HW115968   8.622   1.287   9.398  0.3224  1.1255  1.0054
 5130SOL    HW215969   8.688   1.253   9.530  0.7457 -1.4930  0.1796
 5131SOL     OW15970   6.267   7.432   3.963  0.6218  0.0729 -0.7731
 5131SOL    HW115971   6.265   7.383   4.045  1.2607  2.0952  0.5290
 5131SOL    HW215972   6.175   7.449   3.943  0.3842 -1.5564 -1.2530
 5132SOL     OW15973   6.426   4.589   9.853 -0.0072 -0.2955 -0.7172
 5132SOL    HW115974   6.401   4.613   9.942  0.9657  0.7081 -0.6838
 5132SOL    HW215975   6.364   4.635   9.797  0.5627  0.6413 -0.5940
 5133SOL     OW15976   0.613   0.116   4.847  0.0405  0.1919 -0.0054
 5133SOL    HW115977   0.556   0.098   4.923  1.5762  0.8515  1.3681
 5133SOL    HW215978   0.671   0.040   4.842  1.3357  1.0898  0.8479
 5134SOL     OW15979   5.362   7.069   4.945 -0.1485  0.4735  0.0599
 5134SOL    HW115980   5.290   7.058   5.007  0.6947  1.9961  1.4026
 5134SOL    HW215981   5.417   7.136   4.985  1.3323  0.2865 -1.5583
 5135SOL     OW15982   1.289   9.120   7.743 -0.1567  0.5921 -0.2220
 5135SOL    HW115983   1.290   9.195   7.683 -1.9980  1.3449  0.6054
 5135SOL    HW215984   1.213   9.069   7.717  0.0911 -0.0586  0.3055
 5136SOL     OW15985   5.706   3.423   8.520  0.0310 -0.0804 -0.2806
 5136SOL    HW115986   5.751   3.377   8.450  1.8143  2.0793 -0.6682
 5136SOL    HW215987   5.615   3.428   8.490  0.2068 -1.5019 -1.1547
 5137SOL     OW15988   6.624   6.681   3.180  0.6190  0.1320  0.1283
 5137SOL    HW115989   6.632   6.738   3.257  1.8206  2.2621 -1.4599
 5137SOL    HW215990   6.530   6.679   3.161  0.3471 -0.1256  1.3904
 5138SOL     OW15991   3.275   1.882   2.465  0.1852  0.6243  0.3585
 5138SOL    HW115992   3.237   1.897   2.552 -2.0530  0.9615 -0.6212
 5138SOL    HW215993   3.355   1.935   2.465 -0.0080  0.9781  2.0549
 5139SOL     OW15994   3.435   8.638   3.069 -0.2644 -0.5075  0.2634
 5139SOL    HW115995   3.506   8.698   3.091 -1.5665  1.1012  0.2966
 5139SOL    HW215996   3.463   8.598   2.986  0.1015  1.1108 -0.4406
 5140SOL     OW15997   1.865   5.940   9.180 -0.4607  0.1711 -0.0479
 5140SOL    HW115998   1.794   5.905   9.234 -0.5592  0.1476 -0.1936
 5140SOL    HW215999   1.919   5.864   9.160 -0.6946  0.0958 -0.3949
 5141SOL     OW16000   5.923   0.593   8.147  0.1834  0.1066  0.2263
 5141SOL    HW116001   5.853   0.600   8.083  0.3849  1.1286  0.1032
 5141SOL    HW216002   5.906   0.663   8.210  1.0553  0.3337  0.2218
 5142SOL     OW16003   2.577   3.183   3.565  0.2200 -0.0114 -0.0083
 5142SOL    HW116004   2.579   3.216   3.655 -2.7343  0.3521  0.0153
 5142SOL    HW216005   2.484   3.169   3.547  0.8194 -1.0302 -2.6871
 5143SOL     OW16006   4.357   8.901   2.105  0.1163 -0.0023 -0.2147
 5143SOL    HW116007   4.412   8.977   2.124  0.8491 -0.4836 -0.3394
 5143SOL    HW216008   4.349   8.856   2.189  0.0597 -0.0235 -0.2314
 5144SOL     OW16009   3.899   8.232   0.438  0.0127  0.0148 -0.5580
 5144SOL    HW116010   3.878   8.141   0.459  1.9613 -0.2202  0.5814
 5144SOL    HW216011   3.867   8.281   0.514 -0.9209  0.2855 -1.1145
 5145SOL     OW16012   4.881   9.997   5.320  0.1447  0.1577  0.1372
 5145SOL    HW116013   4.891   9.916   5.371 -0.1391 -0.0174 -0.0790
 5145SOL    HW216014   4.819   9.973   5.251 -0.4833  0.7606  0.4895
 5146SOL     OW16015   8.147   2.324   5.374  0.1502 -1.0626  0.5989
 5146SOL    HW116016   8.072   2.352   5.323  1.8698 -0.9373 -2.0516
 5146SOL    HW216017   8.119   2.244   5.418 -0.5427 -3.1683 -3.2456
 5147SOL     OW16018   0.919   3.277   2.169  0.3812  0.0450  0.1641
 5147SOL    HW116019   0.875   3.262   2.253 -0.3580 -0.1164 -0.2486
 5147SOL    HW216020   0.945   3.189   2.140  0.4826  0.0824  0.1441
 5148SOL     OW16021   8.953   8.034   2.356 -0.1407 -0.0962 -0.3278
 5148SOL    HW116022   9.024   8.093   2.382  1.3826 -2.6201  1.6117
 5148SOL    HW216023   8.995   7.966   2.305 -1.4615 -0.7996 -0.5274
 5149SOL     OW16024   2.775   3.704   4.491  0.3834  0.2187 -0.0550
 5149SOL    HW116025   2.813   3.671   4.572  1.6119 -0.6419 -0.9476
 5149SOL    HW216026   2.850   3.720   4.433 -0.4486  0.9776 -0.9718
 5150SOL     OW16027   7.791   3.479   5.359 -0.2193 -0.6154 -0.1017
 5150SOL    HW116028   7.804   3.481   5.264 -2.4883 -2.0910 -0.5193
 5150SOL    HW216029   7.760   3.567   5.381  2.1734  0.3602 -0.3413
 5151SOL     OW16030   0.441   1.236   3.762  0.4852  0.2715  0.2652
 5151SOL    HW116031   0.445   1.294   3.687 -0.6326  0.5952  0.4419
 5151SOL    HW216032   0.510   1.171   3.746  0.1044  0.1893 -1.1568
 5152SOL     OW16033   0.724   4.400   9.129  0.5748 -0.1046  0.7800
 5152SOL    HW116034   0.667   4.349   9.187  1.4645  0.6357  2.3922
 5152SOL    HW216035   0.811   4.393   9.169  0.9101  1.8046  0.4772
 5153SOL     OW16036   5.729   4.273   1.696 -0.4613 -0.1336  0.2857
 5153SOL    HW116037   5.817   4.270   1.735 -0.2953 -0.5718 -0.1101
 5153SOL    HW216038   5.673   4.231   1.762 -0.4014  0.2850  0.6057
 5154SOL     OW16039   2.071   4.936   7.521 -0.4087 -0.0655 -0.1309
 5154SOL    HW116040   1.985   4.894   7.529 -0.1211 -0.3139  2.4014
 5154SOL    HW216041   2.052   5.028   7.507 -1.0649 -0.3455 -1.1661
 5155SOL     OW16042   8.694   2.903   4.363 -0.1949 -0.1537  0.3632
 5155SOL    HW116043   8.777   2.858   4.344 -0.2921 -0.6879  1.1873
 5155SOL    HW216044   8.657   2.856   4.437 -1.1369  0.2245  0.1469
 5156SOL     OW16045   5.584   1.057   9.656 -0.4782  0.4954 -0.3970
 5156SOL    HW116046   5.627   1.007   9.726 -0.4270  1.2769  0.1469
 5156SOL    HW216047   5.504   1.007   9.637 -0.4713  0.2525  0.1866
 5157SOL     OW16048   3.684   2.869   8.984 -0.3136  0.1867  0.1759
 5157SOL    HW116049   3.688   2.809   9.059 -0.0209  1.6589  1.3875
 5157SOL    HW216050   3.713   2.816   8.910 -2.0328 -1.7595  0.7846
 5158SOL     OW16051   9.666   4.340   7.454 -0.0952  0.1841 -0.2940
 5158SOL    HW116052   9.605   4.293   7.397 -1.6693  1.1858  0.5071
 5158SOL    HW216053   9.691   4.417   7.403 -0.9716  0.7308  0.0920
 5159SOL     OW16054   3.777   4.229   9.732 -0.0089  0.4251  0.0659
 5159SOL    HW116055   3.682   4.232   9.724 -0.0160 -0.7513 -0.5304
 5159SOL    HW216056   3.798   4.295   9.798 -1.0831  1.8738 -0.9631
 5160SOL     OW16057   0.651   4.414   7.124  0.7409  0.0928  0.0470
 5160SOL    HW116058   0.705   4.407   7.045 -1.0970 -1.2449 -1.1798
 5160SOL    HW216059   0.561   4.404   7.092 -0.1521  0.8976  2.1676
 5161SOL     OW16060   8.923   8.325   7.083 -0.4520 -0.2445  0.0815
 5161SOL    HW116061   8.985   8.267   7.039  0.8699  1.0988  0.1218
 5161SOL    HW216062   8.905   8.281   7.166 -0.0271 -0.9370 -0.1806
 5162SOL     OW16063   9.473   5.157   5.827  0.7455 -0.0588  0.0167
 5162SOL    HW116064   9.463   5.102   5.905  0.1840  0.4019  0.2773
 5162SOL    HW216065   9.409   5.227   5.839  3.1935  2.1762  1.0144
 5163SOL     OW16066   5.497   7.725   5.997  0.2132  0.1777  0.3328
 5163SOL    HW116067   5.579   7.677   5.987  0.6037  0.6715  1.0765
 5163SOL    HW216068   5.448   7.674   6.062  0.9567  1.1647  1.7268
 5164SOL     OW16069   9.761   9.266   3.114  0.0179  0.3055  0.0409
 5164SOL    HW116070   9.842   9.311   3.136  0.0226  0.7274 -0.8102
 5164SOL    HW216071   9.696   9.305   3.172  0.5537 -0.5753  1.2708
 5165SOL     OW16072   7.933   9.043   5.790  0.0264 -0.2676 -0.2211
 5165SOL    HW116073   7.880   9.027   5.868 -1.2061 -0.4327 -1.0684
 5165SOL    HW216074   7.920   8.966   5.736 -0.1363  0.4004 -1.1477
 5166SOL     OW16075   2.978   7.514   3.375  0.3991  0.3155  0.3043
 5166SOL    HW116076   2.893   7.475   3.356  0.3919  0.7270 -0.5547
 5166SOL    HW216077   3.008   7.470   3.454  0.0916 -0.9280 -0.2576
 5167SOL     OW16078   7.310   2.895   8.989 -0.0029 -0.2551 -0.5327
 5167SOL    HW116079   7.392   2.929   9.025  0.2581 -0.2492 -1.1216
 5167SOL    HW216080   7.314   2.917   8.896 -1.4746  1.3060 -0.2575
 5168SOL     OW16081   1.873   7.838   5.959 -0.1435 -0.3330  0.1576
 5168SOL    HW116082   1.844   7.923   5.928  2.1129  0.2510 -0.5513
 5168SOL    HW216083   1.941   7.857   6.023 -0.9672 -1.6111  1.4734
 5169SOL     OW16084   7.281   4.011   6.636 -0.2602 -0.1939  0.3984
 5169SOL    HW116085   7.189   4.007   6.664 -0.4705  0.4640 -0.1560
 5169SOL    HW216086   7.291   4.101   6.603  0.1063 -0.7767 -1.1563
 5170SOL     OW16087   8.589   6.695   2.755  0.0232  0.1630  0.3181
 5170SOL    HW116088   8.580   6.790   2.759  2.2075  0.3746  1.4021
 5170SOL    HW216089   8.499   6.663   2.746 -0.7328  2.3198 -0.4048
 5171SOL     OW16090   9.726   3.048   2.772  0.6460  0.8040 -0.4442
 5171SOL    HW116091   9.771   2.963   2.766  2.4316  1.6567  0.2341
 5171SOL    HW216092   9.797   3.112   2.778 -0.6178  2.0898  2.5465
 5172SOL     OW16093   0.644   5.214   1.573 -0.0773  0.9669  0.0713
 5172SOL    HW116094   0.575   5.188   1.634 -0.1024  0.6094 -0.1054
 5172SOL    HW216095   0.725   5.191   1.618 -0.0597  1.5810  0.3686
 5173SOL     OW16096   2.249   0.789   3.478 -0.0074  0.0518  0.0836
 5173SOL    HW116097   2.331   0.825   3.445 -0.1894  0.3360 -0.0644
 5173SOL    HW216098   2.276   0.723   3.543  0.3515 -0.4441 -0.5558
 5174SOL     OW16099   0.863   6.379   8.804 -0.4362  0.1082 -0.7602
 5174SOL    HW116100   0.916   6.410   8.730 -1.9434 -0.7491 -2.2916
 5174SOL    HW216101   0.920   6.319   8.852  0.6408  0.8230 -1.1124
 5175SOL     OW16102   1.181   7.062   3.438  0.0121 -0.2298  0.2012
 5175SOL    HW116103   1.160   7.134   3.379  2.0454 -0.0433 -0.3817
 5175SOL    HW216104   1.196   6.987   3.380  0.5657 -0.4205  0.5786
 5176SOL     OW16105   9.013   1.885   3.622 -0.1887  0.1577  0.2647
 5176SOL    HW116106   9.090   1.882   3.679 -0.6121  0.4469  0.8546
 5176SOL    HW216107   9.028   1.962   3.567 -0.1785  0.3609  0.5520
 5177SOL     OW16108   0.123   8.276   6.352 -0.2052 -0.1946  0.2833
 5177SOL    HW116109   0.209   8.237   6.338  0.4496  1.3640 -0.2552
 5177SOL    HW216110   0.082   8.276   6.266 -0.5629 -0.5139  0.4517
 5178SOL     OW16111   3.359   8.084   8.541  0.6165 -0.9019 -0.1797
 5178SOL    HW116112   3.274   8.056   8.575  0.7465 -4.4622 -2.2835
 5178SOL    HW216113   3.418   8.011   8.557  2.4867  0.1896 -1.5425
 5179SOL     OW16114   2.931   8.373   3.301 -0.1190 -0.3134 -0.3852
 5179SOL    HW116115   2.881   8.425   3.238 -3.4784 -0.0511  2.2197
 5179SOL    HW216116   2.887   8.288   3.301  0.9641 -0.8969  0.3446
 5180SOL     OW16117   7.337   2.451   1.319  0.0280  0.3037 -0.3126
 5180SOL    HW116118   7.284   2.528   1.296  1.4703  1.1636 -0.8741
 5180SOL    HW216119   7.306   2.426   1.406 -1.4979  0.5905 -0.7384
 5181SOL     OW16120   1.123   8.800   5.093 -0.2428 -0.0830  0.1709
 5181SOL    HW116121   1.126   8.729   5.028 -1.0249  1.2777 -1.4452
 5181SOL    HW216122   1.171   8.766   5.168 -0.2908 -2.1813 -0.6771
 5182SOL     OW16123   9.714   7.493   1.627 -0.4333  0.1169 -0.1592
 5182SOL    HW116124   9.654   7.541   1.570 -0.8398 -1.1320 -0.8410
 5182SOL    HW216125   9.794   7.483   1.575 -0.5422 -0.3837 -0.2422
 5183SOL     OW16126   8.715   0.746   3.280  0.5180  0.0403 -0.2728
 5183SOL    HW116127   8.775   0.752   3.354 -0.1511 -1.0806  0.3836
 5183SOL    HW216128   8.663   0.826   3.285  0.0966 -0.2943  0.8113
 5184SOL     OW16129   2.909   6.696   4.998 -0.3216 -0.0661  0.0526
 5184SOL    HW116130   2.868   6.610   4.989 -0.5375  0.0804 -0.4251
 5184SOL    HW216131   2.888   6.724   5.087 -2.0724  0.3982 -0.4589
 5185SOL     OW16132   0.771   0.091   3.686 -0.6819  0.1009 -0.2781
 5185SOL    HW116133   0.833   0.164   3.682  0.6930 -1.0496 -1.4827
 5185SOL    HW216134   0.700   0.116   3.627  0.3791 -0.0094 -1.6629
 5186SOL     OW16135   8.504   2.560   3.512  0.5300  0.9714  0.1090
 5186SOL    HW116136   8.585   2.560   3.563  0.0019  0.2543  0.9788
 5186SOL    HW216137   8.442   2.510   3.565 -0.1747  0.5872 -1.0257
 5187SOL     OW16138   0.852   4.900   9.548 -0.0720  0.0443  0.1708
 5187SOL    HW116139   0.832   4.978   9.600 -0.9962 -0.2915  0.3248
 5187SOL    HW216140   0.877   4.935   9.462 -0.4671  0.5166  0.2427
 5188SOL     OW16141   6.414   3.945   7.989 -0.2314  0.2672  0.5401
 5188SOL    HW116142   6.346   3.941   8.056  0.2236  2.4470  1.2095
 5188SOL    HW216143   6.366   3.942   7.906 -0.8056 -2.3617  0.8904
 5189SOL     OW16144   5.696   0.741   2.425 -0.2950 -0.4926 -0.1035
 5189SOL    HW116145   5.601   0.732   2.434 -1.0034  0.6604 -4.3974
 5189SOL    HW216146   5.708   0.820   2.373  2.9735 -1.3365 -0.8479
 5190SOL     OW16147   9.512   4.471   1.277  0.0662 -0.3811 -0.0321
 5190SOL    HW116148   9.424   4.438   1.292 -0.0175 -0.0838  0.1345
 5190SOL    HW216149   9.510   4.505   1.188 -0.6848  1.8138  0.7595
 5191SOL     OW16150   9.290   9.382   8.536 -0.1060 -0.0638 -0.3736
 5191SOL    HW116151   9.252   9.298   8.563 -0.0873  0.1516  0.3428
 5191SOL    HW216152   9.301   9.430   8.617 -1.9125  1.3969 -0.9159
 5192SOL     OW16153   9.901   5.538   2.334  0.3838 -0.0276  0.5154
 5192SOL    HW116154   9.807   5.528   2.323  0.4600  0.1028 -0.2867
 5192SOL    HW216155   9.910   5.610   2.397 -0.0461  1.1099 -0.6700
 5193SOL     OW16156   8.905   1.157   0.180 -1.0487  0.1052  0.4376
 5193SOL    HW116157   8.820   1.198   0.162  0.3416  2.3110 -1.6921
 5193SOL    HW216158   8.926   1.110   0.099 -0.0575 -0.0609  0.7878
 5194SOL     OW16159   0.065   0.500   5.516 -0.3036 -0.3463 -0.0295
 5194SOL    HW116160   0.045   0.555   5.592 -1.4836  2.7860 -2.3365
 5194SOL    HW216161   0.160   0.497   5.512 -0.2280  0.4153  0.9369
 5195SOL     OW16162   3.789   8.522   2.691  0.7581 -0.1940 -0.3970
 5195SOL    HW116163   3.772   8.447   2.634  1.8652 -0.0557 -0.9321
 5195SOL    HW216164   3.834   8.485   2.767  1.1182 -0.1065 -0.5654
 5196SOL     OW16165   5.357   1.942   1.233 -0.6181  0.2688 -0.1242
 5196SOL    HW116166   5.336   2.005   1.165 -0.0957 -1.0408 -1.5601
 5196SOL    HW216167   5.303   1.865   1.212 -0.8702  0.0250  1.2833
 5197SOL     OW16168   2.322   3.206   8.810 -0.5303 -0.2684  0.4622
 5197SOL    HW116169   2.229   3.227   8.795 -0.6790 -1.3386 -0.2242
 5197SOL    HW216170   2.329   3.113   8.789  1.1388  0.2461 -1.6487
 5198SOL     OW16171   4.689   0.618   9.252 -0.6168  0.3707 -0.2026
 5198SOL    HW116172   4.728   0.532   9.264  0.2120  0.5041 -1.6392
 5198SOL    HW216173   4.760   0.680   9.269 -1.0380  0.7427  0.2213
 5199SOL     OW16174   6.274   3.525   3.182  0.0129 -0.3728  0.7766
 5199SOL    HW116175   6.325   3.524   3.101  0.9845  0.4615  1.3467
 5199SOL    HW216176   6.293   3.441   3.224 -1.3496 -1.2831 -0.3355
 5200SOL     OW16177   7.028   8.450   0.074 -0.0164  0.7940  0.2407
 5200SOL    HW116178   6.965   8.520   0.092  0.3782  1.0177  0.8234
 5200SOL    HW216179   7.056   8.421   0.161  0.5665  0.6028 -0.0057
 5201SOL     OW16180   6.809   4.114   6.143  0.1691 -0.2056  0.0890
 5201SOL    HW116181   6.778   4.155   6.223 -1.6472 -0.3043 -0.5125
 5201SOL    HW216182   6.798   4.181   6.075 -0.1876 -0.7593 -0.4142
 5202SOL     OW16183   9.279   5.258   3.487  0.1413 -0.1439  0.0208
 5202SOL    HW116184   9.336   5.257   3.410 -1.5470 -2.7435 -1.3236
 5202SOL    HW216185   9.248   5.168   3.495 -1.9169  0.6562  2.1294
 5203SOL     OW16186   8.951   9.771   9.789 -0.4547  0.1313  0.4719
 5203SOL    HW116187   8.876   9.812   9.831 -1.8984 -1.2649 -0.6045
 5203SOL    HW216188   8.987   9.839   9.732 -1.1962  0.6764  0.6358
 5204SOL     OW16189   3.833   5.640   7.647  0.5599 -0.2411  0.6856
 5204SOL    HW116190   3.869   5.622   7.734  0.0361 -2.4931  0.4990
 5204SOL    HW216191   3.889   5.590   7.587 -0.7973 -1.0373  0.0445
 5205SOL     OW16192   0.367   0.015   4.977 -0.5315  0.2072 -0.3584
 5205SOL    HW116193   0.416  -0.031   5.044  0.2233  1.3863 -0.0748
 5205SOL    HW216194   0.289   0.048   5.022 -0.9262 -0.5210 -0.4946
 5206SOL     OW16195   9.505   2.926   8.857 -0.1859 -0.2707  0.2175
 5206SOL    HW116196   9.555   2.854   8.818 -1.2250 -0.1410 -1.4523
 5206SOL    HW216197   9.414   2.905   8.838 -0.5799  0.9333  0.6945
 5207SOL     OW16198   0.873   7.788   3.396 -0.1529 -0.0745  0.0377
 5207SOL    HW116199   0.878   7.760   3.487  1.7437  3.0727  1.0583
 5207SOL    HW216200   0.945   7.742   3.353  0.8206  0.6427  0.8655
 5208SOL     OW16201   5.658   5.040   3.167  0.1286  0.0701 -0.8070
 5208SOL    HW116202   5.685   5.018   3.078  2.3294 -1.1042  0.0806
 5208SOL    HW216203   5.680   5.133   3.176  1.6123 -0.2571 -0.9174
 5209SOL     OW16204   8.431   7.290   9.559  0.0576  0.2036 -0.1009
 5209SOL    HW116205   8.468   7.297   9.471 -0.4954  0.9944 -0.2766
 5209SOL    HW216206   8.452   7.373   9.601 -0.7206  0.2986  0.1060
 5210SOL     OW16207   4.305   8.054   1.937 -0.4409 -0.0757 -0.5733
 5210SOL    HW116208   4.326   8.052   2.030 -2.4059 -1.2825 -0.0986
 5210SOL    HW216209   4.340   7.972   1.903 -2.6658 -1.3245 -0.1029
 5211SOL     OW16210   7.672   6.996   0.851 -0.0189 -0.1520 -0.3168
 5211SOL    HW116211   7.629   6.992   0.765  0.6024  0.7653 -0.6908
 5211SOL    HW216212   7.687   7.089   0.865 -0.3418 -0.2776  0.9169
 5212SOL     OW16213   4.785   6.006   9.137 -0.1247  0.1688 -0.6161
 5212SOL    HW116214   4.765   6.099   9.122  1.8203  0.1813 -4.4894
 5212SOL    HW216215   4.710   5.960   9.098 -0.6472  0.0550  0.4800
 5213SOL     OW16216   2.016   4.810   2.732 -0.0612 -0.6134  0.2293
 5213SOL    HW116217   1.985   4.853   2.811  0.4266  0.2639 -0.0390
 5213SOL    HW216218   1.954   4.837   2.664  0.7749  0.4603 -0.1335
 5214SOL     OW16219   7.359   5.144   6.200 -0.2869  0.3123  0.2100
 5214SOL    HW116220   7.316   5.189   6.127  0.7955  2.0955  0.6103
 5214SOL    HW216221   7.451   5.139   6.173 -0.2755 -1.2150  0.4338
 5215SOL     OW16222   9.806   5.563   3.498  0.0392 -0.1473  0.0579
 5215SOL    HW116223   9.735   5.627   3.508 -1.2916 -1.4385 -0.8025
 5215SOL    HW216224   9.849   5.562   3.583  0.6821  2.5060 -0.1254
 5216SOL     OW16225   3.119   2.069   2.054 -0.5049 -0.4300  0.1689
 5216SOL    HW116226   3.027   2.088   2.039 -0.2661  0.7860  0.1034
 5216SOL    HW216227   3.151   2.145   2.103  0.9830  0.2711 -1.7573
 5217SOL     OW16228   4.509   2.337   4.287 -0.2429 -0.2546  0.0619
 5217SOL    HW116229   4.584   2.376   4.332  0.8843 -0.4515 -1.6056
 5217SOL    HW216230   4.443   2.328   4.356  1.7808 -1.5713  1.9508
 5218SOL     OW16231   7.885   3.952   6.256  0.0866 -0.2535 -0.5790
 5218SOL    HW116232   7.884   3.902   6.174 -1.7205  0.8216 -1.2905
 5218SOL    HW216233   7.810   4.012   6.248 -0.7660 -0.7797  2.2822
 5219SOL     OW16234   8.978   7.184   4.961 -0.3222  0.3661 -0.4219
 5219SOL    HW116235   8.972   7.138   4.878 -2.0392  0.0682 -0.1654
 5219SOL    HW216236   9.067   7.167   4.992  0.5119  0.8685 -2.3920
 5220SOL     OW16237   9.253   8.055   8.159  0.2251 -0.0932 -0.3957
 5220SOL    HW116238   9.221   8.083   8.073  1.8640  0.9014 -0.7177
 5220SOL    HW216239   9.340   8.093   8.166  0.5555 -1.0577  1.2760
 5221SOL     OW16240   4.571   8.176   7.276  0.1511  0.3896  0.6630
 5221SOL    HW116241   4.546   8.175   7.183  0.2120  2.2465  0.5823
 5221SOL    HW216242   4.488   8.187   7.322  0.0959 -0.7776  0.8537
 5222SOL     OW16243   8.536   4.764   0.250  0.5212 -0.0374  0.9000
 5222SOL    HW116244   8.572   4.699   0.190  1.0156  0.1556  0.9854
 5222SOL    HW216245   8.589   4.756   0.329  0.0118 -0.1407  1.2344
 5223SOL     OW16246   8.160   9.437   1.991  0.0572 -0.2584 -0.1833
 5223SOL    HW116247   8.122   9.419   1.906  2.4513 -2.1268 -0.9715
 5223SOL    HW216248   8.098   9.399   2.054 -1.1883  0.1853 -1.1025
 5224SOL     OW16249   5.736   7.241   7.755 -0.5924  0.0050  0.1514
 5224SOL    HW116250   5.736   7.320   7.701 -0.2291 -1.4129 -2.0504
 5224SOL    HW216251   5.643   7.220   7.767 -0.6815  0.5588  0.4521
 5225SOL     OW16252   6.849   2.563   7.452  0.3101 -0.0358 -0.3148
 5225SOL    HW116253   6.917   2.590   7.390  0.7688  0.2970  0.3121
 5225SOL    HW216254   6.891   2.574   7.538 -1.1603  2.0590  0.2081
 5226SOL     OW16255   5.148   3.971   1.991 -0.1927  0.7136  0.1767
 5226SOL    HW116256   5.200   4.050   1.972 -0.0436  0.4527 -0.5399
 5226SOL    HW216257   5.210   3.899   1.979 -0.9928  0.3031 -1.9211
 5227SOL     OW16258   1.871   0.446   1.275  0.2352 -0.4084 -0.6536
 5227SOL    HW116259   1.779   0.423   1.259  0.0783 -0.0662 -0.2621
 5227SOL    HW216260   1.868   0.507   1.348  0.7944 -0.5338 -0.5213
 5228SOL     OW16261   0.826   0.704   9.728 -0.4909  1.0377  0.3609
 5228SOL    HW116262   0.737   0.719   9.697 -0.4541  0.8084  0.1404
 5228SOL    HW216263   0.881   0.760   9.672 -0.4189  0.5815 -0.0332
 5229SOL     OW16264   6.725   5.757   5.308  0.1207  0.0730  0.0289
 5229SOL    HW116265   6.767   5.730   5.389  0.4206  0.1299 -0.1037
 5229SOL    HW216266   6.760   5.845   5.291  0.3629 -0.0908 -0.3603
 5230SOL     OW16267   5.642   0.137   4.400  0.6145  0.8576 -0.1365
 5230SOL    HW116268   5.626   0.171   4.312  0.5798 -1.2148 -0.9930
 5230SOL    HW216269   5.557   0.140   4.443  0.1463 -0.1608 -0.9562
 5231SOL     OW16270   4.765   0.858   6.755  0.2728  0.7561  0.7987
 5231SOL    HW116271   4.734   0.939   6.796 -2.5333  0.1881  0.0698
 5231SOL    HW216272   4.724   0.788   6.806  0.2641 -0.0839 -0.3080
 5232SOL     OW16273   5.279   0.054   2.521 -0.0184  0.4141  0.8919
 5232SOL    HW116274   5.313  -0.022   2.474 -0.4047  0.2790  0.8212
 5232SOL    HW216275   5.352   0.086   2.573 -0.1294 -0.6575  1.7477
 5233SOL     OW16276   1.649   2.666   7.422 -0.7237  0.2858 -0.3733
 5233SOL    HW116277   1.681   2.661   7.512 -1.0004  0.0308 -0.2871
 5233SOL    HW216278   1.723   2.701   7.372 -0.0559 -0.9640 -0.3052
 5234SOL     OW16279   4.583   6.972   4.112  0.1525  0.4413  0.1369
 5234SOL    HW116280   4.652   6.928   4.062  1.5698  0.9402  1.5670
 5234SOL    HW216281   4.519   6.999   4.046  2.7921  2.7260 -1.7252
 5235SOL     OW16282   9.717   5.800   6.172  0.1608 -0.5725 -0.0366
 5235SOL    HW116283   9.682   5.880   6.133 -1.0506 -0.4694  1.1999
 5235SOL    HW216284   9.687   5.730   6.112 -2.0464 -0.4615  0.8339
 5236SOL     OW16285   1.657   4.752   3.404 -0.1352 -0.6312 -0.3604
 5236SOL    HW116286   1.736   4.713   3.366 -0.3663 -0.2395 -1.2499
 5236SOL    HW216287   1.585   4.711   3.356 -0.4085  0.3294 -0.7808
 5237SOL     OW16288   7.384   8.020   8.882  0.2006  0.1402 -0.2877
 5237SOL    HW116289   7.466   7.989   8.843  0.2371 -0.5990  0.3486
 5237SOL    HW216290   7.410   8.092   8.939  0.2871  0.5000 -0.7749
 5238SOL     OW16291   2.844   6.094   0.292  0.1141  0.3325 -0.7539
 5238SOL    HW116292   2.793   6.172   0.313  0.2368  0.3182 -0.3810
 5238SOL    HW216293   2.866   6.103   0.200 -3.0729 -1.0885 -1.7815
 5239SOL     OW16294   5.720   2.979   7.168 -0.2451  0.7486  0.0622
 5239SOL    HW116295   5.627   2.997   7.182 -0.5800  0.1649 -1.2850
 5239SOL    HW216296   5.764   3.061   7.189 -1.1342  1.2677 -0.0761
 5240SOL     OW16297   5.768   6.003   4.801 -0.2752  0.5358 -0.1026
 5240SOL    HW116298   5.676   5.986   4.783 -0.4138  1.8919 -0.8118
 5240SOL    HW216299   5.803   5.919   4.832 -1.7473  0.0232  0.2308
 5241SOL     OW16300   7.297   0.033   9.664  0.0849  0.3402 -0.5258
 5241SOL    HW116301   7.307   0.094   9.737  0.6540 -0.8861  0.4611
 5241SOL    HW216302   7.227  -0.026   9.693 -1.2543  1.1520 -1.9421
 5242SOL     OW16303   3.172   8.245   0.157  0.3968 -0.3343  0.2690
 5242SOL    HW116304   3.102   8.182   0.140  1.8067 -1.8240 -0.2901
 5242SOL    HW216305   3.138   8.302   0.225 -1.1344 -1.3717  0.4054
 5243SOL     OW16306   3.724   3.115   2.856 -0.9580 -0.0353 -0.1155
 5243SOL    HW116307   3.784   3.101   2.928 -0.2535 -0.1954 -0.7195
 5243SOL    HW216308   3.647   3.155   2.896 -0.4001  0.2962  0.6470
 5244SOL     OW16309   0.759   0.559   5.579 -0.0059  0.3648 -0.2754
 5244SOL    HW116310   0.671   0.557   5.541 -0.2114 -0.7117  0.2299
 5244SOL    HW216311   0.818   0.558   5.503 -0.4098  1.4461 -0.6264
 5245SOL     OW16312   8.924   2.661   3.476 -0.0056 -0.0054 -0.3657
 5245SOL    HW116313   8.853   2.619   3.522  0.3066 -0.8055 -0.6041
 5245SOL    HW216314   9.002   2.613   3.501  0.2252 -0.2152 -1.4119
 5246SOL     OW16315   9.053   1.876   1.119 -0.5612  0.2029  0.2366
 5246SOL    HW116316   9.105   1.892   1.040  0.9303 -0.0004  1.1350
 5246SOL    HW216317   8.972   1.837   1.087 -0.3112  0.8294 -1.2489
 5247SOL     OW16318   1.149   2.939   8.392 -0.0777 -0.4132  0.6116
 5247SOL    HW116319   1.241   2.939   8.419 -0.6176  0.4495  2.6713
 5247SOL    HW216320   1.115   2.854   8.421  0.3547 -1.3433 -1.4386
 5248SOL     OW16321   3.269   8.413   2.626 -0.4672  0.0951 -0.4958
 5248SOL    HW116322   3.283   8.324   2.659  0.2244  0.5039  0.3459
 5248SOL    HW216323   3.250   8.465   2.705 -4.2402  0.1230 -1.1996
 5249SOL     OW16324   6.819   1.352   9.088 -0.0062  0.5278  0.1004
 5249SOL    HW116325   6.766   1.272   9.095  1.6677 -0.5796  0.7541
 5249SOL    HW216326   6.791   1.406   9.162 -1.3109  0.6769 -0.4783
 5250SOL     OW16327   9.425   0.412   9.424 -0.1368  0.2545 -0.2161
 5250SOL    HW116328   9.504   0.362   9.448 -1.0534 -1.1775 -0.0619
 5250SOL    HW216329   9.446   0.502   9.449  1.0187 -0.2831  0.9041
 5251SOL     OW16330   3.820   9.499   5.449 -0.0772 -0.1225 -0.4424
 5251SOL    HW116331   3.838   9.419   5.498 -1.2053 -0.4951 -0.6175
 5251SOL    HW216332   3.746   9.539   5.494  1.7011  1.9314  0.8954
 5252SOL     OW16333   7.496   4.214   3.236 -0.2075 -0.6683 -0.4088
 5252SOL    HW116334   7.500   4.234   3.330  0.5361  1.4568 -0.8506
 5252SOL    HW216335   7.587   4.204   3.210 -0.3201  0.1406 -1.1565
 5253SOL     OW16336   1.895   4.026   1.793  0.3493 -0.3502  0.2413
 5253SOL    HW116337   1.808   4.065   1.783  1.3112  1.6447 -1.0105
 5253SOL    HW216338   1.928   4.063   1.875  0.6619  0.2641 -0.1557
 5254SOL     OW16339   0.087   6.365   1.376 -0.4832  0.3095 -0.2921
 5254SOL    HW116340   0.041   6.424   1.436 -0.4620 -0.7570  0.7995
 5254SOL    HW216341   0.168   6.411   1.356 -1.4804  1.7000 -1.3499
 5255SOL     OW16342   7.205   8.146   5.838 -0.4646 -0.5937  0.5742
 5255SOL    HW116343   7.293   8.116   5.859 -0.6257 -0.8139  0.9437
 5255SOL    HW216344   7.153   8.126   5.917 -1.6267 -3.5956 -0.7794
 5256SOL     OW16345   6.204   2.895   9.664  0.2775  0.7515 -0.3176
 5256SOL    HW116346   6.151   2.940   9.598 -0.4154  0.7588  0.2343
 5256SOL    HW216347   6.222   2.809   9.626 -0.6550  0.5227 -0.2543
 5257SOL     OW16348   5.169   0.451   7.448 -0.3691 -0.4698 -0.1901
 5257SOL    HW116349   5.170   0.356   7.456 -2.2666 -0.4582  1.1063
 5257SOL    HW216350   5.138   0.468   7.359 -0.3812 -1.0688 -0.3029
 5258SOL     OW16351   4.967   0.647   6.088 -1.2450 -0.2516  0.1988
 5258SOL    HW116352   4.992   0.578   6.150 -0.7863 -1.5272 -1.3405
 5258SOL    HW216353   5.024   0.720   6.110  0.8254 -1.5935 -0.3742
 5259SOL     OW16354   2.143   5.806   6.543  0.0308  0.1137  0.3062
 5259SOL    HW116355   2.109   5.819   6.632 -0.3685 -0.9773  0.3265
 5259SOL    HW216356   2.164   5.894   6.513 -1.4416  0.6961  0.8518
 5260SOL     OW16357   6.032   5.743   3.045 -0.1356 -0.3007 -0.2988
 5260SOL    HW116358   6.000   5.657   3.073  0.6054 -0.4538  0.0886
 5260SOL    HW216359   6.017   5.800   3.121  0.6113 -0.4019 -0.0679
 5261SOL     OW16360   7.315   6.218   0.375  0.4624 -0.1257  0.3840
 5261SOL    HW116361   7.380   6.149   0.388  1.0461  0.3368  0.0032
 5261SOL    HW216362   7.231   6.175   0.386  0.8111 -0.2360  3.6797
 5262SOL     OW16363   2.682   2.440   5.209 -0.1096 -0.0826 -0.2399
 5262SOL    HW116364   2.710   2.530   5.192  0.6631 -0.3737 -0.5334
 5262SOL    HW216365   2.604   2.449   5.264  0.5453  0.7417  0.5648
 5263SOL     OW16366   6.834   7.542   3.108  0.5073  0.1765  0.5033
 5263SOL    HW116367   6.823   7.588   3.191  1.5075  2.5047 -0.5679
 5263SOL    HW216368   6.796   7.455   3.124 -0.7792  1.0666  2.8730
 5264SOL     OW16369   4.205   9.440   0.099  0.3149  0.2955  0.2916
 5264SOL    HW116370   4.301   9.448   0.106  0.3274  0.1138  0.3234
 5264SOL    HW216371   4.187   9.453   0.006  0.5115 -1.1312  0.0302
 5265SOL     OW16372   2.716   4.342   0.868  0.1331  0.1223 -0.7996
 5265SOL    HW116373   2.711   4.267   0.928 -0.7550 -0.3482 -1.4367
 5265SOL    HW216374   2.795   4.326   0.817  0.7186  0.3568  0.0072
 5266SOL     OW16375   8.571   5.948   5.435  0.4671  0.3451  0.1807
 5266SOL    HW116376   8.513   5.875   5.414  1.0854 -0.0248 -0.2854
 5266SOL    HW216377   8.658   5.909   5.438  0.6604  0.8119  1.2814
 5267SOL     OW16378   2.491   5.279   5.518 -0.1945 -0.2908 -0.2236
 5267SOL    HW116379   2.535   5.200   5.485 -1.8452 -1.5327  0.4160
 5267SOL    HW216380   2.466   5.257   5.608 -0.0098  1.2714  0.2413
 5268SOL     OW16381   7.588   2.603   0.599  0.1353 -0.0874 -0.3550
 5268SOL    HW116382   7.619   2.521   0.559 -1.0289 -0.9841  0.5090
 5268SOL    HW216383   7.659   2.630   0.657 -0.3582 -1.7600  1.1090
 5269SOL     OW16384   0.566   8.655   4.044 -0.3037 -0.1734  0.3844
 5269SOL    HW116385   0.533   8.740   4.073 -2.0470 -0.6395 -0.1266
 5269SOL    HW216386   0.591   8.669   3.953  1.5685  0.3203  0.9229
 5270SOL     OW16387   4.505   3.030   3.829  0.5437 -0.0827 -0.3408
 5270SOL    HW116388   4.546   3.116   3.817 -0.9720  0.6164 -0.7694
 5270SOL    HW216389   4.551   2.992   3.904  1.6663  0.8323 -0.5307
 5271SOL     OW16390   1.773   2.821   6.664 -0.1657  0.4456 -0.4232
 5271SOL    HW116391   1.745   2.836   6.754  1.1374  0.5268 -0.0139
 5271SOL    HW216392   1.695   2.786   6.620 -0.2293 -1.6817  1.2523
 5272SOL     OW16393   3.879   1.362   6.870  0.3499 -0.3985  0.4647
 5272SOL    HW116394   3.842   1.359   6.782  0.4990 -0.1917  0.3943
 5272SOL    HW216395   3.930   1.281   6.877 -3.4578 -2.9448  2.0780
 5273SOL     OW16396   9.092   6.653   6.781 -0.2428  0.4957  0.7491
 5273SOL    HW116397   9.123   6.584   6.722 -0.1691  1.6765 -0.6489
 5273SOL    HW216398   8.998   6.636   6.791 -0.4654  0.8410 -0.5467
 5274SOL     OW16399   1.612   2.083   8.668  0.0440 -0.1241 -0.0216
 5274SOL    HW116400   1.599   2.132   8.587 -1.2322 -0.7507 -0.2151
 5274SOL    HW216401   1.536   2.026   8.674 -0.0007  0.0808  1.7532
 5275SOL     OW16402   7.396   6.172   4.300  0.5392  0.2099 -0.1708
 5275SOL    HW116403   7.369   6.260   4.326  1.5719  0.5577 -0.2349
 5275SOL    HW216404   7.362   6.115   4.369 -0.6964  0.5620 -0.4607
 5276SOL     OW16405   0.672   8.402   3.690  0.4837  0.1274 -0.0029
 5276SOL    HW116406   0.615   8.455   3.635  0.5765 -0.9093 -1.1536
 5276SOL    HW216407   0.761   8.427   3.665  0.5395  0.7154  0.7583
 5277SOL     OW16408   0.747   7.323   9.013  0.7798  0.0006  0.2408
 5277SOL    HW116409   0.700   7.246   9.046  0.0036  0.6866  0.7704
 5277SOL    HW216410   0.755   7.309   8.919  2.2953 -1.6052  0.5499
 5278SOL     OW16411   9.096   2.842   0.336  0.0033  0.0248  0.1531
 5278SOL    HW116412   9.179   2.888   0.318  0.1997 -0.5432 -0.4201
 5278SOL    HW216413   9.123   2.757   0.371 -0.3513  0.1161  0.6503
 5279SOL     OW16414   8.653   6.070   6.412 -0.5272  0.2939 -0.3462
 5279SOL    HW116415   8.580   6.042   6.357  0.2550  0.0326 -1.2857
 5279SOL    HW216416   8.639   6.164   6.425 -0.5962  0.4130 -1.2207
 5280SOL     OW16417   2.309   6.193   2.274  0.3960 -0.4924  0.2043
 5280SOL    HW116418   2.322   6.099   2.287  0.9231 -0.7182 -1.6792
 5280SOL    HW216419   2.314   6.205   2.179  1.9695  1.6803  0.4844
 5281SOL     OW16420   8.367   7.556   6.351 -0.1563  0.3185  0.0821
 5281SOL    HW116421   8.418   7.624   6.393 -0.3324  1.6042 -1.6897
 5281SOL    HW216422   8.431   7.492   6.320  0.0706  0.1147  0.9396
 5282SOL     OW16423   1.741   9.620   5.347 -0.4684 -0.1338  0.6185
 5282SOL    HW116424   1.772   9.643   5.259  0.5319  3.0979  1.6711
 5282SOL    HW216425   1.664   9.676   5.361  0.7166  1.1504  2.5452
 5283SOL     OW16426   7.903   2.826   0.320 -0.1460 -0.0006  0.5608
 5283SOL    HW116427   7.976   2.790   0.370  0.7579  1.0225  0.0546
 5283SOL    HW216428   7.915   2.921   0.326  0.2382  0.1732 -1.8533
 5284SOL     OW16429   4.203   3.308   5.697 -0.3994  0.2409 -0.1049
 5284SOL    HW116430   4.241   3.384   5.652 -1.7024  1.8757  1.3867
 5284SOL    HW216431   4.145   3.268   5.632  0.9150 -0.0033 -1.1725
 5285SOL     OW16432   1.547   4.209   0.957 -0.2923 -0.0198  0.2737
 5285SOL    HW116433   1.550   4.218   0.862 -0.8672  0.9830  0.3402
 5285SOL    HW216434   1.614   4.270   0.990  0.7681 -1.2516  0.4836
 5286SOL     OW16435   8.760   8.217   0.312 -0.2305  0.8359  0.2921
 5286SOL    HW116436   8.706   8.252   0.384  2.2247 -0.1382  2.7636
 5286SOL    HW216437   8.780   8.294   0.258 -2.3376  1.5539  0.4470
 5287SOL     OW16438   2.451   4.620   2.351 -0.0527 -0.1917  0.2149
 5287SOL    HW116439   2.541   4.590   2.361 -0.4141 -1.3053  0.2865
 5287SOL    HW216440   2.451   4.710   2.384  1.0871 -0.0854 -0.0647
 5288SOL     OW16441   3.795   8.485   3.061  0.2680 -0.5842  0.2559
 5288SOL    HW116442   3.858   8.556   3.076 -1.0046  0.9105 -1.1724
 5288SOL    HW216443   3.836   8.431   2.993 -0.2859  0.8074 -1.2148
 5289SOL     OW16444   3.359   7.654   6.125 -0.2342 -0.0550  0.3871
 5289SOL    HW116445   3.382   7.584   6.064  1.0273 -0.8377  1.6918
 5289SOL    HW216446   3.267   7.638   6.147  0.1822 -1.6550  1.0759
 5290SOL     OW16447   3.531   2.331   2.346  0.2994  0.4819 -0.4321
 5290SOL    HW116448   3.624   2.341   2.367  0.4547  1.0578 -1.3259
 5290SOL    HW216449   3.507   2.248   2.386  0.8143  1.0315  1.0764
 5291SOL     OW16450   8.839   3.890   4.026 -0.4178  0.3292 -0.3536
 5291SOL    HW116451   8.892   3.898   3.947 -1.4050 -1.1154 -1.2087
 5291SOL    HW216452   8.892   3.835   4.085 -0.8015 -0.8920 -1.1041
 5292SOL     OW16453   9.601   5.019   4.151  0.0394 -0.1131  0.2910
 5292SOL    HW116454   9.678   4.971   4.183  0.0959 -1.5438 -1.8019
 5292SOL    HW216455   9.557   5.049   4.231  1.9940 -0.4659  1.5785
 5293SOL     OW16456   3.491   6.624   3.810 -0.4243  0.4161  0.3907
 5293SOL    HW116457   3.429   6.569   3.858 -0.1502 -2.0774 -1.8670
 5293SOL    HW216458   3.577   6.597   3.842 -0.2145 -1.5452 -1.5440
 5294SOL     OW16459   0.484   8.252   2.334  0.1639  0.0665 -0.4763
 5294SOL    HW116460   0.567   8.281   2.298 -0.5555  1.3169 -1.2193
 5294SOL    HW216461   0.496   8.254   2.429  0.7724  0.9140 -0.5629
 5295SOL     OW16462   4.488   1.915   5.045 -0.1656 -0.3673  0.3137
 5295SOL    HW116463   4.494   1.887   5.136  2.2980 -0.1354  0.2861
 5295SOL    HW216464   4.477   1.834   4.995 -0.5492 -0.5735  0.7222
 5296SOL     OW16465   6.209   4.164   2.899  0.2959 -0.0389  0.2595
 5296SOL    HW116466   6.164   4.079   2.902 -0.1069  0.1562  0.0061
 5296SOL    HW216467   6.239   4.171   2.808 -1.0095  0.7450 -0.1495
 5297SOL     OW16468   7.874   6.375   6.961  0.2743  0.0859  0.4870
 5297SOL    HW116469   7.781   6.396   6.960 -0.1066 -1.4178  0.8813
 5297SOL    HW216470   7.892   6.345   6.871  0.2873  0.0659  0.4961
 5298SOL     OW16471   5.093   3.567   8.423  0.1539 -0.2064 -0.2905
 5298SOL    HW116472   5.085   3.628   8.496 -0.8339 -0.7538  0.0883
 5298SOL    HW216473   5.029   3.598   8.359 -1.4172 -1.6180  0.5097
 5299SOL     OW16474   3.482   3.142   7.748  0.1922  0.7086 -0.2007
 5299SOL    HW116475   3.485   3.235   7.724  0.4854  0.3982 -1.4432
 5299SOL    HW216476   3.508   3.140   7.840  2.4136  1.6411 -0.7497
 5300SOL     OW16477   9.372   1.568   2.081  0.4762  0.6215  0.1524
 5300SOL    HW116478   9.467   1.563   2.072  0.6745 -1.7409  2.3436
 5300SOL    HW216479   9.356   1.552   2.174 -2.0661  1.5535 -0.0526
 5301SOL     OW16480   8.252   6.652   4.884  0.5962 -0.5478 -0.2925
 5301SOL    HW116481   8.267   6.703   4.805 -0.9958  1.1818  0.4420
 5301SOL    HW216482   8.285   6.707   4.955  0.8679 -1.5252  0.3518
 5302SOL     OW16483   8.364   6.537   5.627  0.0137 -0.3368  0.5880
 5302SOL    HW116484   8.378   6.509   5.537  0.4385 -1.7502  1.0670
 5302SOL    HW216485   8.319   6.463   5.669 -0.5339  0.4524  1.4363
 5303SOL     OW16486   6.021   1.326   1.989 -0.1251  0.0789  0.1473
 5303SOL    HW116487   6.097   1.294   2.037 -0.4278 -0.6888  0.1332
 5303SOL    HW216488   6.041   1.306   1.897 -1.0794 -1.7541  0.2927
 5304SOL     OW16489   5.538   6.947   6.752 -0.1985  0.1284  0.3613
 5304SOL    HW116490   5.522   6.899   6.833 -0.8487  0.3253  0.3540
 5304SOL    HW216491   5.480   7.023   6.757 -1.1382 -0.4654 -0.8023
 5305SOL     OW16492   1.697   7.686   5.359  0.1691  0.6790  0.2554
 5305SOL    HW116493   1.624   7.637   5.323  0.0600  1.4993 -0.7152
 5305SOL    HW216494   1.662   7.731   5.435 -0.5950  1.7403 -0.6911
 5306SOL     OW16495   1.903   5.589   4.486  0.1138  0.5657 -0.2428
 5306SOL    HW116496   1.845   5.602   4.561  0.1422  0.0530 -0.1334
 5306SOL    HW216497   1.883   5.663   4.428 -0.3816  0.5983 -0.0374
 5307SOL     OW16498   0.403   4.415   3.969  0.5160  0.0095 -0.1027
 5307SOL    HW116499   0.346   4.377   3.902  0.4031 -0.1974  0.1087
 5307SOL    HW216500   0.454   4.340   4.002  1.9327  0.4124 -1.2744
 5308SOL     OW16501   5.087   1.104   6.590 -0.5714  0.4491  0.1934
 5308SOL    HW116502   5.054   1.159   6.519 -1.6239 -0.3557  0.0312
 5308SOL    HW216503   5.149   1.044   6.547  1.8234  2.4690  0.6243
 5309SOL     OW16504   0.701   5.178   6.252  0.1317 -0.2539  0.1325
 5309SOL    HW116505   0.645   5.209   6.181  0.1968 -2.3527 -0.9189
 5309SOL    HW216506   0.781   5.230   6.243  0.2585 -0.6846 -1.5672
 5310SOL     OW16507   3.475   4.341   2.749  0.0812 -0.1292  0.5766
 5310SOL    HW116508   3.522   4.298   2.678  1.6755  0.9991  0.8960
 5310SOL    HW216509   3.480   4.279   2.822 -0.8927 -0.9564 -0.0257
 5311SOL     OW16510   5.735   5.254   9.836 -0.7199 -0.0415  0.2298
 5311SOL    HW116511   5.687   5.261   9.919 -1.2754  1.9074 -0.2069
 5311SOL    HW216512   5.699   5.177   9.794 -3.6547  1.4047 -0.1312
 5312SOL     OW16513   7.022   5.454   1.128 -0.6957  0.0362  1.1595
 5312SOL    HW116514   7.002   5.362   1.112 -1.1848  0.2614  0.4245
 5312SOL    HW216515   7.112   5.465   1.096 -1.3663  0.2860 -0.7761
 5313SOL     OW16516   6.530   5.852   6.295 -0.4815 -0.3079 -0.1350
 5313SOL    HW116517   6.453   5.835   6.349  0.2842 -1.4076  0.6587
 5313SOL    HW216518   6.600   5.870   6.358  0.0024  0.2911 -0.8287
 5314SOL     OW16519   1.102   7.911   8.825 -0.1833  0.1723  0.1385
 5314SOL    HW116520   1.152   7.992   8.821  0.2803 -0.1474 -0.5201
 5314SOL    HW216521   1.029   7.932   8.884  1.5276  0.1937  2.4018
 5315SOL     OW16522   3.351   4.617   5.607 -0.0248 -0.5652  0.1719
 5315SOL    HW116523   3.434   4.662   5.622 -1.4542  2.5153 -0.1947
 5315SOL    HW216524   3.368   4.559   5.533  2.4031 -2.0928  1.7849
 5316SOL     OW16525   1.578   2.042   5.840  0.3405 -0.4403 -0.7330
 5316SOL    HW116526   1.571   2.043   5.935 -0.2773 -1.2145 -0.7660
 5316SOL    HW216527   1.641   2.112   5.820  0.8831 -0.6318  0.2653
 5317SOL     OW16528   6.479   3.255   0.766 -0.6080 -0.6908  0.3623
 5317SOL    HW116529   6.454   3.259   0.859 -1.0821 -2.2594  0.3317
 5317SOL    HW216530   6.442   3.334   0.728 -1.1256 -0.4339  1.3639
 5318SOL     OW16531   7.094   4.211   9.545 -0.3904  0.6447 -0.1356
 5318SOL    HW116532   7.013   4.244   9.505 -0.5903 -0.3877 -0.6290
 5318SOL    HW216533   7.079   4.117   9.554  0.6757  0.4772 -0.0218
 5319SOL     OW16534   0.360   8.691   3.288  0.5589  0.0041 -0.3588
 5319SOL    HW116535   0.314   8.737   3.357  1.3740 -1.0461  0.9374
 5319SOL    HW216536   0.404   8.760   3.238 -0.2337  0.7900  0.0044
 5320SOL     OW16537   5.684   0.200   4.672  0.0085 -0.2189 -0.3089
 5320SOL    HW116538   5.637   0.194   4.588  0.5012 -0.7248 -0.5519
 5320SOL    HW216539   5.758   0.140   4.663 -1.3065 -2.2210  1.4068
 5321SOL     OW16540   4.191   4.224   2.157 -0.1171 -0.2954  0.0090
 5321SOL    HW116541   4.268   4.202   2.211 -0.9711 -0.1583  1.3432
 5321SOL    HW216542   4.159   4.139   2.126 -0.4744 -0.5332  0.9740
 5322SOL     OW16543   2.374   2.684   3.066  0.1480  0.3895 -0.0452
 5322SOL    HW116544   2.295   2.690   3.119 -0.1888  1.0331 -0.6020
 5322SOL    HW216545   2.346   2.632   2.990  0.5768 -0.3756  0.3126
 5323SOL     OW16546   1.377   1.455   5.225 -0.1698  0.0663 -0.1744
 5323SOL    HW116547   1.353   1.442   5.133  0.3830 -0.1534 -0.2853
 5323SOL    HW216548   1.357   1.548   5.241  0.0896  0.2035 -0.6236
 5324SOL     OW16549   7.879   6.826   6.449 -0.4409 -0.0435 -0.2656
 5324SOL    HW116550   7.825   6.779   6.385 -0.7411  2.3979 -1.9228
 5324SOL    HW216551   7.816   6.873   6.503 -0.0921  0.3717 -0.2122
 5325SOL     OW16552   3.748   0.100   3.466 -0.0971  0.2018 -0.0592
 5325SOL    HW116553   3.741   0.179   3.412  0.0721 -0.1886 -0.6581
 5325SOL    HW216554   3.839   0.073   3.457 -0.1422 -0.0349  0.1859
 5326SOL     OW16555   7.699   4.655   5.478 -0.6297  0.0082 -0.1181
 5326SOL    HW116556   7.635   4.635   5.409 -0.3405  1.6423 -0.9027
 5326SOL    HW216557   7.672   4.739   5.513  2.1342  1.7794 -1.8490
 5327SOL     OW16558   5.927   4.866   0.280 -0.5096  0.0650 -0.1887
 5327SOL    HW116559   5.849   4.920   0.297 -1.3436 -1.1053 -0.1400
 5327SOL    HW216560   5.906   4.781   0.320  0.3924 -0.5734 -1.0191
 5328SOL     OW16561   5.051   1.939   9.665 -0.3644  0.4759 -0.3414
 5328SOL    HW116562   5.115   1.950   9.735 -0.1139 -1.0572 -0.2973
 5328SOL    HW216563   4.970   1.974   9.701 -0.4908 -1.1969  1.1309
 5329SOL     OW16564   5.284   8.324   7.703  0.0470 -0.0320  0.5339
 5329SOL    HW116565   5.281   8.338   7.797 -1.1164 -0.0463  0.5129
 5329SOL    HW216566   5.240   8.400   7.665 -0.9336 -0.7968  0.1008
 5330SOL     OW16567   5.835   2.557   2.699 -0.5335  0.1044  0.3556
 5330SOL    HW116568   5.747   2.559   2.660 -0.5423 -0.8079  0.3062
 5330SOL    HW216569   5.886   2.618   2.646 -0.3302 -1.7095 -1.6632
 5331SOL     OW16570   0.045   2.366   5.478 -0.3550 -0.2843  0.6774
 5331SOL    HW116571  -0.040   2.323   5.469 -0.1876 -0.2950 -1.2504
 5331SOL    HW216572   0.100   2.302   5.523 -0.2105 -2.0409 -1.8117
 5332SOL     OW16573   3.018   6.433   7.554  0.4396 -0.1438 -0.3038
 5332SOL    HW116574   3.078   6.365   7.586  0.1151  0.0103  0.6762
 5332SOL    HW216575   2.932   6.404   7.586  0.3766  1.0240  0.6595
 5333SOL     OW16576   1.127   2.935   6.350 -0.2109 -0.4624  0.8019
 5333SOL    HW116577   1.042   2.962   6.384  0.9123 -0.1827  3.6467
 5333SOL    HW216578   1.127   2.840   6.362  0.6151 -0.2507  2.8413
 5334SOL     OW16579   7.420   5.348   8.124 -0.1201 -0.1207  0.1892
 5334SOL    HW116580   7.456   5.301   8.049 -0.1912 -2.1661  1.3640
 5334SOL    HW216581   7.329   5.320   8.128 -0.0954 -0.1019  1.0730
 5335SOL     OW16582   0.326   1.605   6.689  0.0783  0.2451  0.0205
 5335SOL    HW116583   0.337   1.640   6.601  0.6368  0.1869  0.0671
 5335SOL    HW216584   0.397   1.542   6.700 -0.0062  0.2248  0.4990
 5336SOL     OW16585   6.871   2.280   4.682 -0.2720  0.3519  0.3701
 5336SOL    HW116586   6.868   2.233   4.765 -0.0301  0.3013  0.3500
 5336SOL    HW216587   6.935   2.350   4.696  1.6124 -1.0991 -0.5194
 5337SOL     OW16588   6.695   5.016   5.210  0.4150  0.4193 -0.5479
 5337SOL    HW116589   6.665   5.014   5.301  1.7922 -0.9085 -0.0758
 5337SOL    HW216590   6.704   5.109   5.190  0.9365  0.7328  0.9817
 5338SOL     OW16591   6.085   1.427   5.132  0.5390  0.1493 -0.4119
 5338SOL    HW116592   6.019   1.365   5.101  1.7329 -0.1897 -2.4780
 5338SOL    HW216593   6.162   1.374   5.147  0.3766  0.5294  2.0799
 5339SOL     OW16594   9.682   2.625   0.832 -0.0615  0.0220 -0.2575
 5339SOL    HW116595   9.700   2.598   0.922 -5.0840 -1.8837  0.4932
 5339SOL    HW216596   9.627   2.702   0.840  1.4061  1.3470 -1.9393
 5340SOL     OW16597   0.232   4.181   9.704  0.1314 -0.2482  0.5489
 5340SOL    HW116598   0.294   4.200   9.633 -0.8505 -0.7774 -0.4986
 5340SOL    HW216599   0.286   4.170   9.782  1.4850 -1.9394 -0.5501
 5341SOL     OW16600   2.800   4.064   2.764 -0.6379 -0.1497  0.8825
 5341SOL    HW116601   2.848   4.010   2.701 -0.6718  1.4679 -0.6103
 5341SOL    HW216602   2.708   4.043   2.748 -0.6508  0.3234  0.3136
 5342SOL     OW16603   1.422   7.002   5.221  0.2348 -0.4317  0.1799
 5342SOL    HW116604   1.398   6.932   5.280  0.0128  0.4637  1.1800
 5342SOL    HW216605   1.482   6.962   5.158  1.0509 -1.2338  1.4459
 5343SOL     OW16606   4.739   3.866   7.978 -0.2576  0.4305 -0.3076
 5343SOL    HW116607   4.671   3.848   7.913 -0.1995  0.4347 -0.3696
 5343SOL    HW216608   4.718   3.954   8.010  0.0633  0.6777 -0.7587
 5344SOL     OW16609   4.656   1.678   5.940 -0.3234 -0.0648 -0.1960
 5344SOL    HW116610   4.713   1.750   5.966 -0.4614  0.2986 -0.8929
 5344SOL    HW216611   4.588   1.676   6.008 -0.6041  0.7877 -0.4440
 5345SOL     OW16612   0.770   3.996   2.117 -0.4913 -0.1961 -0.0008
 5345SOL    HW116613   0.815   4.081   2.119 -0.7430 -0.0633 -0.0017
 5345SOL    HW216614   0.750   3.979   2.209  1.0471 -1.0463  0.2033
 5346SOL     OW16615   1.823   0.527   7.393  0.3456  0.2111 -0.0987
 5346SOL    HW116616   1.767   0.546   7.468 -0.0967  0.6052 -0.5279
 5346SOL    HW216617   1.762   0.510   7.321  0.7777  1.2462 -0.7200
 5347SOL     OW16618   0.263   1.793   4.956 -0.0432  0.3741 -0.1568
 5347SOL    HW116619   0.236   1.841   4.878 -2.7970 -1.4269 -0.4746
 5347SOL    HW216620   0.189   1.734   4.974  1.1126 -0.3241  2.9506
 5348SOL     OW16621   9.139   9.926   7.671  0.6542 -0.4585  0.3518
 5348SOL    HW116622   9.114  10.017   7.688  1.6459 -0.2573  0.7846
 5348SOL    HW216623   9.059   9.876   7.687 -0.3240  0.4641 -1.3393
 5349SOL     OW16624   2.802   7.256   2.318  0.3658  0.3169  0.6183
 5349SOL    HW116625   2.737   7.319   2.351 -0.0763 -0.3789  1.1174
 5349SOL    HW216626   2.754   7.173   2.313  0.2387  0.4668 -2.3713
 5350SOL     OW16627   3.433   1.576   0.288  0.3278 -0.3949  0.8037
 5350SOL    HW116628   3.385   1.584   0.206 -1.2081  1.3026  1.7747
 5350SOL    HW216629   3.426   1.662   0.328  2.3190 -0.7534  2.0568
 5351SOL     OW16630   8.457   2.902   2.700 -0.3057  0.5608 -0.3439
 5351SOL    HW116631   8.401   2.855   2.762  0.1667 -2.4619 -2.0176
 5351SOL    HW216632   8.540   2.854   2.701  0.8271  2.4032 -0.9977
 5352SOL     OW16633   6.004   0.558   5.398  0.5069 -0.2532 -0.6390
 5352SOL    HW116634   6.071   0.536   5.463 -0.4170 -0.3361  0.3115
 5352SOL    HW216635   6.049   0.613   5.334  1.5052 -0.4055 -0.0799
 5353SOL     OW16636   4.143   0.207   2.339 -0.1154  0.3572  0.5071
 5353SOL    HW116637   4.236   0.200   2.358  0.1396  1.9465  0.0041
 5353SOL    HW216638   4.121   0.297   2.360 -0.8404  0.8827 -2.1692
 5354SOL     OW16639   7.338   9.634   3.124 -0.9306 -0.2315 -0.5729
 5354SOL    HW116640   7.349   9.629   3.029 -0.4127  0.8242 -0.5917
 5354SOL    HW216641   7.388   9.712   3.149  0.8799 -1.7670  0.8627
 5355SOL     OW16642   1.812   2.235   0.618 -0.5846  0.2396  0.1870
 5355SOL    HW116643   1.891   2.186   0.641  0.7603  2.2306  0.0820
 5355SOL    HW216644   1.828   2.323   0.652 -1.3171  1.5694 -2.6153
 5356SOL     OW16645   1.747   8.321   5.722  0.1516 -0.0808 -0.0818
 5356SOL    HW116646   1.662   8.352   5.752  0.7350 -0.6216  2.3718
 5356SOL    HW216647   1.728   8.273   5.642 -1.5283  1.5771 -0.7612
 5357SOL     OW16648   5.931   9.122   7.402 -0.3300 -0.5027  0.0542
 5357SOL    HW116649   5.941   9.081   7.488  0.9652 -0.1213  0.1081
 5357SOL    HW216650   5.923   9.216   7.422  1.3858 -0.2538 -0.2790
 5358SOL     OW16651   0.343   1.473   4.754 -0.2889 -0.3806 -0.5565
 5358SOL    HW116652   0.255   1.450   4.786 -0.6496  2.5679  0.9453
 5358SOL    HW216653   0.328   1.502   4.664 -1.2918  1.8801  0.2578
 5359SOL     OW16654   1.018   6.429   1.407 -0.1614  0.0431 -0.5722
 5359SOL    HW116655   1.004   6.522   1.387 -0.5435 -0.1166 -1.0746
 5359SOL    HW216656   0.980   6.418   1.494  3.9329  1.3633  1.6740
 5360SOL     OW16657   9.420   6.896   3.556 -0.0990  0.4595  0.0533
 5360SOL    HW116658   9.360   6.971   3.558 -1.5729 -0.6376 -1.1120
 5360SOL    HW216659   9.365   6.821   3.577  1.3590 -0.3258  1.2139
 5361SOL     OW16660   0.430   1.557   8.701 -0.5562 -0.1296  0.2811
 5361SOL    HW116661   0.340   1.546   8.670 -0.6547 -1.0662  0.8594
 5361SOL    HW216662   0.428   1.527   8.792  0.4563 -0.7042  0.1293
 5362SOL     OW16663   7.821   8.618   4.262  0.1165  0.0814  0.2864
 5362SOL    HW116664   7.825   8.675   4.185 -1.4728  1.6265  1.2684
 5362SOL    HW216665   7.913   8.599   4.283  0.6605  1.5311 -0.6365
 5363SOL     OW16666   9.866   6.856   4.812 -0.4260  0.5392  0.1484
 5363SOL    HW116667   9.844   6.787   4.749  1.6102 -0.9565  0.9494
 5363SOL    HW216668   9.804   6.926   4.793 -0.9872 -0.5078 -2.3826
 5364SOL     OW16669   1.124   7.676   9.164  0.3154  0.2587 -0.2316
 5364SOL    HW116670   1.110   7.664   9.258 -0.3621 -2.6778 -0.5987
 5364SOL    HW216671   1.048   7.724   9.134  0.1055  0.4593  0.5913
 5365SOL     OW16672   2.576   2.713   8.358 -0.2845 -0.3092  0.2383
 5365SOL    HW116673   2.533   2.774   8.418 -1.0981  0.8474 -1.4391
 5365SOL    HW216674   2.657   2.688   8.403 -1.3393 -0.3476  2.2519
 5366SOL     OW16675   9.922   4.444   0.208 -0.4740  0.3318 -0.4714
 5366SOL    HW116676  10.015   4.465   0.221  0.1571 -2.1780 -0.2669
 5366SOL    HW216677   9.895   4.501   0.136  1.1254  1.3752 -0.3085
 5367SOL     OW16678   5.224   8.654   9.581 -0.3515 -0.2176  0.5512
 5367SOL    HW116679   5.297   8.602   9.547 -0.1829  1.0411 -1.1899
 5367SOL    HW216680   5.161   8.657   9.509  1.0311  4.4696 -0.8642
 5368SOL     OW16681   5.004   6.703   9.587  0.0479 -0.6156 -0.3257
 5368SOL    HW116682   5.031   6.698   9.679  2.5725  2.5174 -0.7047
 5368SOL    HW216683   5.082   6.677   9.538 -0.5392 -0.1214 -1.5476
 5369SOL     OW16684   1.388   6.531   1.885  0.2093  0.3273 -0.6725
 5369SOL    HW116685   1.363   6.580   1.963  0.6627 -0.1954 -0.1822
 5369SOL    HW216686   1.438   6.593   1.832  1.6523  0.1453  0.4057
 5370SOL     OW16687   3.336   4.497   4.579  0.5933  0.2524  0.2285
 5370SOL    HW116688   3.294   4.493   4.665  1.0572  0.9595  0.4958
 5370SOL    HW216689   3.419   4.541   4.596  0.6042  0.5603 -0.6204
 5371SOL     OW16690   0.748   7.944   6.363 -0.2906 -0.0619  0.1266
 5371SOL    HW116691   0.783   7.939   6.274  3.3422 -0.9813  1.4114
 5371SOL    HW216692   0.741   7.853   6.391  3.2068  0.1165  2.1896
 5372SOL     OW16693   1.559   2.071   9.270 -0.0769  0.3599  0.2236
 5372SOL    HW116694   1.528   2.025   9.348 -2.5645  2.1721  0.4188
 5372SOL    HW216695   1.521   2.023   9.197 -2.3320  1.7254  0.4113
 5373SOL     OW16696   5.748   5.699   3.392  0.1372 -0.6322  0.3085
 5373SOL    HW116697   5.712   5.644   3.322 -1.8766  1.2872 -0.2932
 5373SOL    HW216698   5.693   5.681   3.468 -0.0387 -0.0362  0.3257
 5374SOL     OW16699   8.997   2.119   9.268  0.3024 -0.1448 -0.0718
 5374SOL    HW116700   9.045   2.056   9.214  0.1973  1.5088 -2.2353
 5374SOL    HW216701   8.955   2.066   9.336 -0.9254 -2.6229 -2.5763
 5375SOL     OW16702   3.511   2.697   5.958 -0.1277  0.0664 -0.0055
 5375SOL    HW116703   3.573   2.751   5.909 -0.3301 -0.1403 -0.4969
 5375SOL    HW216704   3.427   2.743   5.949  0.2359  1.2845  2.0967
 5376SOL     OW16705   4.302   0.403   6.824 -0.2060  0.2600 -0.2893
 5376SOL    HW116706   4.368   0.439   6.765  0.5000  0.2003  0.4425
 5376SOL    HW216707   4.222   0.398   6.771  0.1090  1.3103 -0.8875
 5377SOL     OW16708   8.438   3.569   0.310 -0.2496  0.3442  0.2093
 5377SOL    HW116709   8.365   3.528   0.356 -1.5342  0.3875 -1.6590
 5377SOL    HW216710   8.418   3.662   0.312 -1.2254  0.2392 -1.7416
 5378SOL     OW16711   0.460   5.875   9.620 -0.1914 -0.0544  0.2015
 5378SOL    HW116712   0.473   5.878   9.525  1.3890 -0.7196  0.3652
 5378SOL    HW216713   0.548   5.876   9.656 -0.6376 -2.2849  1.5654
 5379SOL     OW16714   6.374   8.859   6.529 -0.0929 -0.0622  0.5485
 5379SOL    HW116715   6.297   8.815   6.493  0.0132  0.9005 -0.9606
 5379SOL    HW216716   6.443   8.794   6.523 -0.5300 -0.5620  0.8457
 5380SOL     OW16717   2.038   1.462   5.658 -0.1083 -0.0441  0.0619
 5380SOL    HW116718   1.968   1.490   5.717 -0.2407 -0.0333 -0.0993
 5380SOL    HW216719   1.993   1.442   5.575  0.0747 -0.0671 -0.0317
 5381SOL     OW16720   9.438   4.387   5.689  0.4580 -0.4580 -0.0787
 5381SOL    HW116721   9.414   4.301   5.724  0.7841 -0.4468  0.1688
 5381SOL    HW216722   9.426   4.447   5.763 -1.2724 -0.0241 -0.6431
 5382SOL     OW16723   5.378   3.302   7.896  0.2324 -0.1334 -0.8155
 5382SOL    HW116724   5.454   3.360   7.905  0.7130 -0.9124  0.3145
 5382SOL    HW216725   5.416   3.214   7.892 -0.5458 -0.4468 -1.5910
 5383SOL     OW16726   5.972   1.708   9.271  0.1373 -0.3204 -0.0597
 5383SOL    HW116727   5.995   1.665   9.189  1.5294 -0.8073  0.5628
 5383SOL    HW216728   5.876   1.712   9.270  0.1173 -0.8283 -1.4372
 5384SOL     OW16729   9.049   7.056   2.153  0.3211  0.3056 -0.7619
 5384SOL    HW116730   9.143   7.059   2.169  0.4573  0.0414 -1.4875
 5384SOL    HW216731   9.018   6.980   2.203  0.2469  1.1991  0.6256
 5385SOL     OW16732   9.029   4.718   9.468 -0.0261 -0.1781  0.3641
 5385SOL    HW116733   9.022   4.707   9.563  2.3872  0.7848  0.7302
 5385SOL    HW216734   9.031   4.628   9.434 -0.3493 -0.5366  1.2657
 5386SOL     OW16735   7.659   7.168   5.750 -0.6781 -0.2132  0.2529
 5386SOL    HW116736   7.626   7.125   5.829 -0.4863 -1.4004 -0.2866
 5386SOL    HW216737   7.743   7.127   5.733 -1.8322 -1.9094 -1.9884
 5387SOL     OW16738   9.224   0.353   5.678 -0.5890  0.2867  0.3980
 5387SOL    HW116739   9.195   0.270   5.716 -0.6957  0.3899  0.5395
 5387SOL    HW216740   9.311   0.368   5.715  0.7034 -1.1864 -1.7542
 5388SOL     OW16741   5.793   4.633   0.682 -0.0516 -0.2055 -0.2579
 5388SOL    HW116742   5.794   4.585   0.599  1.4058 -2.1379  0.8214
 5388SOL    HW216743   5.878   4.677   0.685 -1.1170  2.0971 -0.9372
 5389SOL     OW16744   4.180   6.758   0.715  0.0661  0.2095 -0.2977
 5389SOL    HW116745   4.162   6.827   0.651  0.9119 -0.0943 -0.8830
 5389SOL    HW216746   4.127   6.781   0.791 -0.5480  0.8696 -0.9154
 5390SOL     OW16747   2.030   9.326   8.712 -0.6127  0.0375  0.3169
 5390SOL    HW116748   1.951   9.272   8.711 -0.6884  0.1356  0.7565
 5390SOL    HW216749   2.092   9.277   8.765  0.7991 -1.6416 -2.5981
 5391SOL     OW16750   6.324   7.704   5.164 -0.1101 -0.0261 -0.2555
 5391SOL    HW116751   6.355   7.785   5.123 -0.5443 -0.3522 -1.2425
 5391SOL    HW216752   6.293   7.732   5.251  0.5664  0.7131 -0.2422
 5392SOL     OW16753   0.942   5.451   8.118  0.1921 -0.1509  0.2842
 5392SOL    HW116754   0.980   5.533   8.149  0.6501 -0.0942 -0.3981
 5392SOL    HW216755   1.010   5.413   8.061 -1.0775  0.3785 -1.6948
 5393SOL     OW16756   6.637   7.875   6.966  0.1715  0.5124  0.0273
 5393SOL    HW116757   6.546   7.891   6.991 -0.2062 -0.6956 -0.4941
 5393SOL    HW216758   6.678   7.840   7.046 -0.4703 -1.2552 -0.3687
 5394SOL     OW16759   0.781   6.289   9.851 -1.2031 -0.3187 -0.2473
 5394SOL    HW116760   0.751   6.365   9.802  1.6811  1.1873  0.1254
 5394SOL    HW216761   0.759   6.309   9.942  0.3791  0.5644 -0.0326
 5395SOL     OW16762   4.013   3.787   1.551  0.1492 -0.3446  0.0574
 5395SOL    HW116763   4.101   3.751   1.540  1.5349  1.6912  3.1474
 5395SOL    HW216764   4.016   3.873   1.509 -0.0429  0.0910  0.9009
 5396SOL     OW16765   0.735   8.827   9.192  0.0998 -0.1052 -0.1430
 5396SOL    HW116766   0.806   8.778   9.149  0.9059 -0.0529  1.0677
 5396SOL    HW216767   0.665   8.763   9.203  0.2643 -0.3759 -0.6384
 5397SOL     OW16768   1.310   4.988   0.409 -0.3044 -0.0647 -0.3647
 5397SOL    HW116769   1.219   4.996   0.439  0.6167 -0.4212  2.9955
 5397SOL    HW216770   1.324   4.894   0.398  0.1287 -0.2212  1.1720
 5398SOL     OW16771   4.031   6.416   2.143 -0.5461  0.1418  0.0762
 5398SOL    HW116772   4.084   6.367   2.207 -1.4558  0.1520  0.8610
 5398SOL    HW216773   4.018   6.354   2.071 -1.1616 -0.5737  0.7845
 5399SOL     OW16774   7.015   2.286   1.197 -0.3303 -0.4508  0.3710
 5399SOL    HW116775   6.969   2.228   1.136 -0.3393 -1.5449  1.3733
 5399SOL    HW216776   7.003   2.245   1.283  2.2099 -0.6391  0.7281
 5400SOL     OW16777   2.542   6.127   4.097  0.1648  0.3651  0.2331
 5400SOL    HW116778   2.538   6.222   4.114  0.8348  0.5873 -0.7758
 5400SOL    HW216779   2.462   6.092   4.136 -1.2161  1.6555 -1.2960
 5401SOL     OW16780   1.543   2.105   7.002 -0.0588  0.1597 -0.0700
 5401SOL    HW116781   1.486   2.179   7.021  0.2092  0.5250 -0.6623
 5401SOL    HW216782   1.602   2.099   7.077 -1.0325 -0.3786  0.6642
 5402SOL     OW16783   9.748   6.675   0.683  0.5321  0.6295  0.4158
 5402SOL    HW116784   9.697   6.595   0.692 -0.0834  1.2056  2.5813
 5402SOL    HW216785   9.684   6.746   0.693  0.9571  1.4785 -2.0154
 5403SOL     OW16786   5.151   6.590   5.200 -0.8640 -0.4664 -0.0526
 5403SOL    HW116787   5.120   6.511   5.158 -2.8141 -0.1798  0.7535
 5403SOL    HW216788   5.148   6.657   5.131  1.8622 -1.2383 -1.0490
 5404SOL     OW16789   4.247   3.879   8.281  0.4197 -0.5759 -0.0402
 5404SOL    HW116790   4.224   3.943   8.348  0.5937  2.4138 -2.6000
 5404SOL    HW216791   4.343   3.880   8.279  0.4436 -1.4244  0.3126
 5405SOL     OW16792   0.442   1.025   0.563  0.2250 -0.0031  0.6729
 5405SOL    HW116793   0.459   0.931   0.568 -1.9682 -0.5318 -0.3983
 5405SOL    HW216794   0.494   1.055   0.489  2.6152  0.1244  2.3074
 5406SOL     OW16795   3.861   6.517   1.771 -1.0201  0.2082  0.4046
 5406SOL    HW116796   3.895   6.598   1.734 -0.4709 -1.0416 -2.0340
 5406SOL    HW216797   3.790   6.491   1.712 -0.0270 -1.9468  0.0549
 5407SOL     OW16798   0.785   3.423   3.359 -0.2125  0.2038  0.0707
 5407SOL    HW116799   0.736   3.373   3.293 -1.2603 -1.4526  1.9912
 5407SOL    HW216800   0.730   3.498   3.378 -1.2705 -0.7597  0.9847
 5408SOL     OW16801   5.551   0.194   3.716  0.3761  0.0668  0.0368
 5408SOL    HW116802   5.502   0.260   3.764  0.6989  0.5625 -0.3148
 5408SOL    HW216803   5.496   0.116   3.719 -0.9959  0.9256 -1.3444
 5409SOL     OW16804   9.825   5.426   8.996 -0.0136  0.4162 -0.2973
 5409SOL    HW116805   9.741   5.445   8.956  0.8884  1.1998 -1.9315
 5409SOL    HW216806   9.824   5.475   9.079 -1.8336 -1.0757  0.6213
 5410SOL     OW16807   4.876   0.291   1.645 -1.0700  0.1430 -0.2109
 5410SOL    HW116808   4.954   0.236   1.650 -0.5082  0.8699 -0.7284
 5410SOL    HW216809   4.829   0.258   1.568 -1.0013  0.0570 -0.2163
 5411SOL     OW16810   6.428   9.776   3.758 -0.0045  0.1208 -0.0071
 5411SOL    HW116811   6.414   9.871   3.757 -0.2468  0.2038  2.9185
 5411SOL    HW216812   6.342   9.739   3.739 -0.0372  0.4684 -0.5739
 5412SOL     OW16813   9.852   7.259   0.326 -0.1222  0.1830  0.0617
 5412SOL    HW116814   9.763   7.295   0.318 -0.1173  0.2084  0.1187
 5412SOL    HW216815   9.909   7.335   0.322 -0.1059  0.1708  0.0726
 5413SOL     OW16816   4.348   7.703   5.536  0.6248 -0.2844  0.0970
 5413SOL    HW116817   4.327   7.625   5.586 -0.5995  0.7341  1.2534
 5413SOL    HW216818   4.272   7.760   5.547  1.6091  1.2083 -0.4462
 5414SOL     OW16819   2.270   6.358   5.336  0.2781  0.1256  0.1352
 5414SOL    HW116820   2.326   6.282   5.319 -0.1287 -0.0638 -0.4087
 5414SOL    HW216821   2.274   6.370   5.431  0.7655 -0.2478  0.1681
 5415SOL     OW16822   7.585   9.866   1.695 -0.0582  0.0734 -0.3732
 5415SOL    HW116823   7.576   9.823   1.780 -2.1031  0.7539 -0.2072
 5415SOL    HW216824   7.653   9.932   1.709 -1.2238  1.0173  1.1235
 5416SOL     OW16825   6.002   8.100   2.055 -0.2177  0.1008 -0.1208
 5416SOL    HW116826   5.918   8.106   2.010  0.1353 -0.9015 -0.9509
 5416SOL    HW216827   6.067   8.122   1.988  0.2822 -0.8472  0.0414
 5417SOL     OW16828   5.653   6.519   7.137  0.1932 -0.0028 -0.3620
 5417SOL    HW116829   5.665   6.604   7.178 -0.9013 -0.4081  0.8939
 5417SOL    HW216830   5.585   6.534   7.071 -0.0229  0.0991 -0.1189
 5418SOL     OW16831   9.373   8.023   2.671  0.2851 -0.1606 -0.2158
 5418SOL    HW116832   9.422   8.068   2.601 -0.3811  1.2819  0.2128
 5418SOL    HW216833   9.381   8.081   2.747 -0.2454 -0.9914  0.4935
 5419SOL     OW16834   4.551   6.667   2.516 -0.7349 -0.1972 -0.0798
 5419SOL    HW116835   4.618   6.715   2.564 -0.2659 -1.9158  1.0921
 5419SOL    HW216836   4.574   6.679   2.424 -0.1221  1.0332  0.2184
 5420SOL     OW16837   9.050   0.042   3.319 -0.2026 -0.1889 -0.3851
 5420SOL    HW116838   9.005   0.019   3.400  1.5764 -0.2145  0.6381
 5420SOL    HW216839   8.982   0.085   3.266 -1.7530 -1.3719  0.5283
 5421SOL     OW16840   5.206   7.892   2.179 -0.2139  0.2659  0.0897
 5421SOL    HW116841   5.207   7.914   2.273 -0.7827  1.0832 -0.0847
 5421SOL    HW216842   5.270   7.822   2.171 -0.9327 -0.5782  1.2827
 5422SOL     OW16843   7.584   0.064   7.017  0.3848  0.1137 -0.0860
 5422SOL    HW116844   7.539   0.141   6.983  0.3465 -0.6915 -1.9626
 5422SOL    HW216845   7.585   0.002   6.944  0.8712 -1.4805  1.2098
 5423SOL     OW16846   8.755   0.609   1.964  0.3344  0.1867  0.0933
 5423SOL    HW116847   8.709   0.693   1.972 -0.4036 -0.2594  0.6193
 5423SOL    HW216848   8.827   0.627   1.903 -0.5203  0.9156 -0.7417
 5424SOL     OW16849   8.459   6.800   5.043 -0.5003  0.2103 -0.3302
 5424SOL    HW116850   8.532   6.849   5.005  0.1595  0.0288  0.6565
 5424SOL    HW216851   8.473   6.710   5.017 -0.6065  0.2394 -0.4891
 5425SOL     OW16852   1.982   0.119   8.950 -0.1229  0.3627  0.5638
 5425SOL    HW116853   1.953   0.132   8.860 -0.5838 -1.3250  0.4195
 5425SOL    HW216854   2.077   0.124   8.946 -0.0432 -1.1493 -0.3269
 5426SOL     OW16855   2.885   1.315   9.306 -0.1337 -0.1639  0.3380
 5426SOL    HW116856   2.896   1.298   9.400 -0.2554  0.1920  0.4152
 5426SOL    HW216857   2.926   1.400   9.291 -0.8707  0.1845  0.2311
 5427SOL     OW16858   0.685   3.797   4.605 -0.3294  0.1919  0.3882
 5427SOL    HW116859   0.655   3.832   4.521  0.4325  1.3165  0.5628
 5427SOL    HW216860   0.781   3.796   4.598 -0.2950 -0.7917  0.8285
 5428SOL     OW16861   2.911   2.172   3.622  0.2777  0.7577  0.2895
 5428SOL    HW116862   2.970   2.158   3.548 -1.0214  1.3203 -0.8940
 5428SOL    HW216863   2.956   2.235   3.677  2.8781 -2.1971  1.8942
 5429SOL     OW16864   4.205   4.981   2.813  0.5475 -0.3539  0.2612
 5429SOL    HW116865   4.197   4.921   2.888  2.7554  1.6054  2.2338
 5429SOL    HW216866   4.196   4.924   2.736 -2.8484 -2.3279  1.8870
 5430SOL     OW16867   5.470   5.564   0.886 -0.4835  0.2569  0.3221
 5430SOL    HW116868   5.461   5.468   0.885 -1.0272  0.3029  0.4062
 5430SOL    HW216869   5.547   5.581   0.832 -1.3616 -0.1272 -1.1230
 5431SOL     OW16870   4.552   3.831   7.460  0.3788  1.0328 -0.2920
 5431SOL    HW116871   4.637   3.823   7.503  0.5909  0.3346 -0.8397
 5431SOL    HW216872   4.570   3.879   7.379  0.3648  0.3195 -0.7227
 5432SOL     OW16873   4.579   8.366   4.622  0.2105 -0.0736 -0.3059
 5432SOL    HW116874   4.487   8.359   4.596  0.2118  0.5117 -0.4895
 5432SOL    HW216875   4.581   8.335   4.713  0.0632 -1.3309 -0.7169
 5433SOL     OW16876   7.108   4.886   2.640  0.8923  0.0854 -0.8015
 5433SOL    HW116877   7.106   4.939   2.560 -0.6815  1.0357 -0.1753
 5433SOL    HW216878   7.035   4.825   2.631  0.1872  0.7445  0.2431
 5434SOL     OW16879   7.079   6.496   1.981  0.9560  0.1526  0.3546
 5434SOL    HW116880   7.090   6.532   2.069  0.3155  1.5414 -0.1058
 5434SOL    HW216881   7.014   6.426   1.991 -0.0331  1.1025  0.8218
 5435SOL     OW16882   7.444   6.984   5.675  0.6583  0.1073 -0.4286
 5435SOL    HW116883   7.462   7.028   5.758 -1.5360  1.2008 -0.4675
 5435SOL    HW216884   7.470   6.893   5.691  1.7034  0.6016  0.9356
 5436SOL     OW16885   4.689   6.590   3.700 -0.0045 -0.7426  0.0594
 5436SOL    HW116886   4.610   6.624   3.657  1.0171  0.0700 -1.2641
 5436SOL    HW216887   4.681   6.495   3.693 -0.4193 -0.6492 -0.9348
 5437SOL     OW16888   7.694   0.072   0.537  0.6671 -0.2829 -0.9085
 5437SOL    HW116889   7.721   0.074   0.445 -0.8784  0.8367 -1.3802
 5437SOL    HW216890   7.618   0.014   0.538  1.4420 -1.3242 -0.0800
 5438SOL     OW16891   7.628   3.040   8.108 -0.2796  0.3798 -1.1226
 5438SOL    HW116892   7.684   3.074   8.178 -1.8365  1.1992 -0.2069
 5438SOL    HW216893   7.680   3.052   8.028  1.7574 -1.0697 -0.1082
 5439SOL     OW16894   9.035   7.038   9.228 -0.2597  0.1407  0.7176
 5439SOL    HW116895   9.121   7.070   9.254  1.5277 -0.5527 -3.4850
 5439SOL    HW216896   8.989   7.116   9.196  0.3527  0.0359 -0.5024
 5440SOL     OW16897   2.112   1.759   5.311 -0.0554 -0.2676  0.1328
 5440SOL    HW116898   2.156   1.688   5.264  0.8169 -0.4962  1.2553
 5440SOL    HW216899   2.029   1.721   5.338 -0.1881 -0.4141 -0.4627
 5441SOL     OW16900   1.455   0.946   6.694  0.2341 -0.0137  0.0137
 5441SOL    HW116901   1.539   0.925   6.736  1.7390  1.7856 -1.8506
 5441SOL    HW216902   1.412   0.862   6.683  2.5308 -1.2283 -0.3866
 5442SOL     OW16903   0.606   5.514   7.335  0.7900 -0.5061 -0.1993
 5442SOL    HW116904   0.610   5.582   7.402  0.3347  0.1353 -0.8037
 5442SOL    HW216905   0.513   5.488   7.333  0.9716 -1.2104  0.0826
 5443SOL     OW16906   7.225   0.440   4.396 -0.0907 -0.2207  0.0924
 5443SOL    HW116907   7.269   0.388   4.463 -1.0763 -0.4119  0.6108
 5443SOL    HW216908   7.259   0.406   4.313  1.5672  0.4111  0.4831
 5444SOL     OW16909   5.976   6.095   5.578  0.3005  0.7573 -0.0663
 5444SOL    HW116910   5.907   6.158   5.598 -0.5101 -0.1793  0.1647
 5444SOL    HW216911   5.950   6.058   5.494 -0.6370 -1.0953  0.9735
 5445SOL     OW16912   1.939   0.344   7.074  0.0471  0.1349 -0.4319
 5445SOL    HW116913   2.000   0.319   7.004  0.1626 -2.2089  0.4071
 5445SOL    HW216914   1.993   0.345   7.153 -0.6442 -0.1307  0.0522
 5446SOL     OW16915   6.756   0.236   1.989 -0.5230 -0.0299  0.2180
 5446SOL    HW116916   6.733   0.179   1.916  1.8420  0.4878 -1.0234
 5446SOL    HW216917   6.723   0.190   2.066 -0.8992 -1.8320 -0.9539
 5447SOL     OW16918   3.900   4.529   5.460  0.0002  0.1800  0.2816
 5447SOL    HW116919   3.872   4.488   5.378 -1.6136 -0.9861  1.3582
 5447SOL    HW216920   3.993   4.547   5.447 -0.3404  0.5733 -2.0040
 5448SOL     OW16921   2.505   2.779   0.440  0.2314 -0.4104 -0.5308
 5448SOL    HW116922   2.565   2.789   0.366  2.2686  1.5119  1.2199
 5448SOL    HW216923   2.440   2.848   0.427  0.6705  0.0196 -0.4855
 5449SOL     OW16924   1.463   2.434   5.417  0.1632 -0.7349  0.7042
 5449SOL    HW116925   1.388   2.457   5.362  1.1187 -0.1104 -0.3816
 5449SOL    HW216926   1.537   2.480   5.377  1.1142 -1.2609  1.8037
 5450SOL     OW16927   2.544   4.528   3.112 -0.0879  0.5306 -0.2293
 5450SOL    HW116928   2.637   4.515   3.129 -0.2044 -0.3427 -0.2070
 5450SOL    HW216929   2.521   4.457   3.051 -0.6072  1.0882 -0.6938
 5451SOL     OW16930   9.913   5.194   2.704  0.5746  0.4005 -0.1253
 5451SOL    HW116931   9.964   5.249   2.644  1.4967  1.0387  1.1941
 5451SOL    HW216932   9.837   5.247   2.726  0.4973  0.3724 -0.3205
 5452SOL     OW16933   5.460   1.787   3.287 -0.8351  0.1684 -0.0114
 5452SOL    HW116934   5.537   1.842   3.274  0.0942 -1.1386 -0.1545
 5452SOL    HW216935   5.416   1.825   3.364  0.1704  0.6821  0.3242
 5453SOL     OW16936   7.636   7.526   6.056 -0.2317  0.3483 -0.1416
 5453SOL    HW116937   7.714   7.505   6.107 -0.0876  0.4160 -0.3316
 5453SOL    HW216938   7.567   7.469   6.091 -0.2216  0.6408  0.3630
 5454SOL     OW16939   5.124   0.202   7.769  0.5525 -0.2610 -0.0329
 5454SOL    HW116940   5.125   0.109   7.749  0.1819 -0.1037 -0.8175
 5454SOL    HW216941   5.143   0.207   7.863  1.8163 -1.0571 -0.2244
 5455SOL     OW16942   9.658   5.844   2.259 -0.5594 -0.0768 -0.1855
 5455SOL    HW116943   9.704   5.890   2.330 -0.0865  1.2169 -1.2838
 5455SOL    HW216944   9.575   5.815   2.299 -0.3362  0.6747  0.8726
 5456SOL     OW16945   0.389   0.659   7.734 -0.4637 -0.0701  0.1888
 5456SOL    HW116946   0.317   0.664   7.797 -0.5575  0.6319  0.0364
 5456SOL    HW216947   0.352   0.611   7.659 -0.4644 -0.5799  0.5129
 5457SOL     OW16948   2.896   5.798   1.398  0.1373  0.2091 -0.2469
 5457SOL    HW116949   2.940   5.723   1.358 -2.3357 -1.1306 -0.6535
 5457SOL    HW216950   2.888   5.774   1.490  1.6916  1.1998  0.1654
 5458SOL     OW16951   6.498   5.957   4.098  0.5199 -0.2879  0.0089
 5458SOL    HW116952   6.538   6.043   4.087 -0.9755  0.5730  0.9217
 5458SOL    HW216953   6.497   5.943   4.193 -1.8930  0.0730  0.1063
 5459SOL     OW16954   8.081   9.453   2.661 -0.2062 -0.5233 -0.2500
 5459SOL    HW116955   8.130   9.512   2.718  0.0454 -1.7395  0.8289
 5459SOL    HW216956   8.075   9.500   2.577  1.6603  0.2147 -0.0087
 5460SOL     OW16957   1.464   5.848   4.578  0.2320  0.3675  0.4331
 5460SOL    HW116958   1.380   5.889   4.599  0.0002  0.0105  0.2176
 5460SOL    HW216959   1.441   5.774   4.522  0.4811 -1.0248  2.0871
 5461SOL     OW16960   0.304   0.331   7.195  0.3532 -0.1203  0.1559
 5461SOL    HW116961   0.343   0.253   7.235  1.2150  0.7142  1.0264
 5461SOL    HW216962   0.370   0.360   7.132 -0.1462 -0.3180 -0.4650
 5462SOL     OW16963   1.735   7.064   5.335  0.2928  0.0501 -0.7491
 5462SOL    HW116964   1.698   7.036   5.252  1.3157 -0.8340 -0.9384
 5462SOL    HW216965   1.688   7.013   5.401 -0.6707  0.9125 -0.7525
 5463SOL     OW16966   9.853   1.934   4.819  0.0552  0.0005  0.0528
 5463SOL    HW116967   9.885   1.990   4.889  0.3288  0.7023 -0.6161
 5463SOL    HW216968   9.766   1.907   4.848  0.2799  0.0419  0.7862
 5464SOL     OW16969   0.125   6.404   2.382 -0.0266  0.4465  0.0713
 5464SOL    HW116970   0.195   6.445   2.332 -0.8708  1.5482 -0.2426
 5464SOL    HW216971   0.111   6.320   2.338 -0.6068  1.3010 -1.4460
 5465SOL     OW16972   0.864   6.105   3.170 -0.0608  0.5036  0.1552
 5465SOL    HW116973   0.851   6.098   3.264 -0.9962 -0.1091 -0.0115
 5465SOL    HW216974   0.829   6.191   3.147  0.8274  0.9606  0.4620
 5466SOL     OW16975   2.171   3.879   7.672  0.1298 -0.1046  0.6171
 5466SOL    HW116976   2.230   3.954   7.678  0.7251 -0.3659 -1.2806
 5466SOL    HW216977   2.225   3.808   7.637 -1.1922 -0.4261 -0.9293
 5467SOL     OW16978   4.114   9.602   5.125 -0.1810 -0.1475  0.3897
 5467SOL    HW116979   4.042   9.540   5.115 -0.3812  0.1375  0.0225
 5467SOL    HW216980   4.159   9.599   5.040 -0.2995  0.3389  0.3101
 5468SOL     OW16981   6.262   8.256   7.990 -0.3711  0.3703 -0.6506
 5468SOL    HW116982   6.302   8.195   8.053  0.4430  0.3663 -1.1555
 5468SOL    HW216983   6.332   8.273   7.927 -0.8423  1.2313 -0.9413
 5469SOL     OW16984   4.154   9.446   5.503  0.1524 -0.4632  0.3459
 5469SOL    HW116985   4.176   9.367   5.454  0.6568 -1.1173  1.5768
 5469SOL    HW216986   4.233   9.500   5.499  0.2874 -0.6355  0.6571
 5470SOL     OW16987   1.508   8.946   1.910 -0.2048  0.3476 -0.4998
 5470SOL    HW116988   1.532   8.997   1.987  2.0334 -2.3982  0.8435
 5470SOL    HW216989   1.413   8.949   1.907 -0.4163  0.2383  2.6864
 5471SOL     OW16990   9.035   3.129   9.001  0.3093 -0.6623  0.1630
 5471SOL    HW116991   9.092   3.206   9.007  1.5723 -1.2599 -2.5786
 5471SOL    HW216992   9.096   3.055   8.992 -0.8855 -1.6150 -0.3415
 5472SOL     OW16993   9.369   2.636   7.097  0.0539 -0.0015  0.0149
 5472SOL    HW116994   9.407   2.559   7.141 -1.3519 -0.9541 -0.3794
 5472SOL    HW216995   9.444   2.693   7.080  1.3884 -1.9501 -1.0125
 5473SOL     OW16996   8.642   8.630   7.525  0.0079 -0.1174  0.0145
 5473SOL    HW116997   8.626   8.721   7.501  0.0660 -0.0565  0.2086
 5473SOL    HW216998   8.619   8.625   7.618 -1.5201 -0.6608 -0.3551
 5474SOL     OW16999   0.639   9.932   8.584  0.7543 -0.0428 -0.0386
 5474SOL    HW117000   0.628   9.932   8.679  1.7354 -1.3146  0.1046
 5474SOL    HW217001   0.649  10.025   8.561 -1.2243  0.4542  0.8399
 5475SOL     OW17002   7.321   8.168   5.009  0.2853 -0.4965 -0.3100
 5475SOL    HW117003   7.372   8.096   5.045 -1.3515 -1.3369  0.4399
 5475SOL    HW217004   7.382   8.242   5.007  0.9171 -0.8004  2.7790
 5476SOL     OW17005   8.897   0.664   6.309 -0.2788  0.4732 -0.0831
 5476SOL    HW117006   8.878   0.756   6.289  1.4202  0.5929 -1.3702
 5476SOL    HW217007   8.926   0.626   6.226  3.0595 -0.1006  1.1452
 5477SOL     OW17008   5.497   6.323   4.006 -0.2370  0.3079 -0.6215
 5477SOL    HW117009   5.525   6.268   4.079 -0.3966  1.1113  0.0639
 5477SOL    HW217010   5.573   6.380   3.989  0.2918 -0.7398 -1.9674
 5478SOL     OW17011   5.697   6.745   2.738  0.2606 -0.1988 -0.1433
 5478SOL    HW117012   5.631   6.712   2.677 -0.4761  1.0881 -0.0831
 5478SOL    HW217013   5.655   6.740   2.824 -0.7217  2.7399 -0.3426
 5479SOL     OW17014   1.755   2.820   4.139 -0.6349  0.2477  0.5587
 5479SOL    HW117015   1.718   2.733   4.152 -1.6277  0.2347 -1.7715
 5479SOL    HW217016   1.690   2.880   4.176 -0.0714  0.0451  1.9273
 5480SOL     OW17017   3.329   9.457   2.568  0.1816  0.6321  0.5685
 5480SOL    HW117018   3.424   9.468   2.562  0.3437  0.0675  1.8108
 5480SOL    HW217019   3.314   9.431   2.659 -1.1965  1.0246  0.4639
 5481SOL     OW17020   0.576   3.059   8.406 -0.2562  0.0567  0.0473
 5481SOL    HW117021   0.603   3.148   8.384 -0.3991  0.7076  2.2361
 5481SOL    HW217022   0.512   3.036   8.339 -0.4301  1.7160 -0.4037
 5482SOL     OW17023   6.685   3.323   0.456 -0.5744  0.3453  0.2926
 5482SOL    HW117024   6.660   3.237   0.491  0.1559 -0.9029 -2.0238
 5482SOL    HW217025   6.607   3.354   0.411 -0.6594  0.6287  0.6337
 5483SOL     OW17026   4.786   0.433   6.376  0.3231  0.0239 -0.2713
 5483SOL    HW117027   4.764   0.468   6.289 -1.5982 -0.6489 -0.1153
 5483SOL    HW217028   4.734   0.353   6.383  1.6986 -0.8178  0.8804
 5484SOL     OW17029   7.426   1.541   3.071 -0.0840  0.3050  0.3556
 5484SOL    HW117030   7.405   1.534   3.164 -0.9957  1.5865  0.2750
 5484SOL    HW217031   7.448   1.633   3.058 -1.8939  0.6103 -1.0307
 5485SOL     OW17032   9.602   0.886   1.847  0.3368 -0.1078  0.7044
 5485SOL    HW117033   9.612   0.946   1.921  0.6303 -0.0144  0.5923
 5485SOL    HW217034   9.627   0.939   1.771 -0.9342  0.1125  0.4058
 5486SOL     OW17035   8.125   2.192   9.068 -0.3150  0.0451  0.2449
 5486SOL    HW117036   8.037   2.177   9.102 -0.6603  1.2025 -0.0820
 5486SOL    HW217037   8.168   2.245   9.135 -0.2414  0.4124 -0.0888
 5487SOL     OW17038   1.338   7.924   6.144 -0.2876 -0.1590  0.4302
 5487SOL    HW117039   1.349   7.948   6.052 -0.8261  1.2681  0.7076
 5487SOL    HW217040   1.252   7.958   6.168 -0.6453 -1.5221  1.1717
 5488SOL     OW17041   5.225   1.017   0.363  0.0286 -0.1428 -0.2346
 5488SOL    HW117042   5.164   1.091   0.369  0.2088  0.2882 -2.8759
 5488SOL    HW217043   5.198   0.959   0.434 -1.3398  1.5461  0.7181
 5489SOL     OW17044   4.074   7.620   2.974  0.6084  0.0310  0.4389
 5489SOL    HW117045   4.112   7.532   2.975  0.5102 -0.0168 -0.1549
 5489SOL    HW217046   3.980   7.606   2.987  0.1486 -0.1866 -2.5665
 5490SOL     OW17047   0.949   8.980   1.161 -0.4151 -0.0043  0.5658
 5490SOL    HW117048   0.877   9.037   1.134 -0.8671 -1.3000 -1.1089
 5490SOL    HW217049   0.999   8.963   1.081  0.2696 -1.1842  1.2035
 5491SOL     OW17050   6.282   1.078   7.593  0.1583  0.1593  0.0515
 5491SOL    HW117051   6.299   1.053   7.502  0.9201 -1.7656  0.6558
 5491SOL    HW217052   6.367   1.106   7.626  0.3589 -1.1073  0.6872
 5492SOL     OW17053   3.797   3.228   7.034 -0.2783  0.0437 -0.6792
 5492SOL    HW117054   3.871   3.215   7.094 -0.1312  0.3209 -0.8002
 5492SOL    HW217055   3.765   3.139   7.016  0.0589 -0.0800 -0.6693
 5493SOL     OW17056   2.324   8.706   0.623  1.0124  0.0455  0.1313
 5493SOL    HW117057   2.289   8.618   0.607 -0.4418  0.4801  0.7426
 5493SOL    HW217058   2.347   8.706   0.716 -1.5761  1.0778  0.8847
 5494SOL     OW17059   5.649   8.579   8.313 -0.6383  0.0077  0.2540
 5494SOL    HW117060   5.694   8.496   8.298 -2.5257 -0.7755 -1.6390
 5494SOL    HW217061   5.630   8.612   8.225 -2.3097  1.0658  0.9619
 5495SOL     OW17062   8.132   3.953   2.737 -0.5490  0.1690  0.2502
 5495SOL    HW117063   8.186   3.975   2.661 -0.1029  3.9969  1.4404
 5495SOL    HW217064   8.173   3.876   2.775  1.6200  0.5318 -1.1979
 5496SOL     OW17065   4.925   2.296   9.824  0.2271  0.2743  0.3281
 5496SOL    HW117066   5.000   2.248   9.789 -0.2556 -1.4114  1.5001
 5496SOL    HW217067   4.906   2.362   9.757  0.2433 -1.8443 -1.8896
 5497SOL     OW17068   5.839   3.813   7.386 -0.6911 -0.6365 -0.2364
 5497SOL    HW117069   5.790   3.764   7.453  0.2547 -2.7811 -1.0516
 5497SOL    HW217070   5.801   3.785   7.303  0.2764 -0.4608 -0.7524
 5498SOL     OW17071   5.430   1.309   8.989 -0.0191  0.4675 -0.6019
 5498SOL    HW117072   5.352   1.346   9.029 -1.1148 -1.5223 -0.7955
 5498SOL    HW217073   5.441   1.358   8.908 -0.7320  1.1342 -0.3049
 5499SOL     OW17074   6.752   2.468   2.594  0.1082  0.5737 -0.3057
 5499SOL    HW117075   6.688   2.517   2.543 -0.8757  0.1791  0.5219
 5499SOL    HW217076   6.711   2.382   2.608  0.2631  0.7354  1.2926
 5500SOL     OW17077   2.126   0.363   0.340 -0.4098 -0.1776  0.5170
 5500SOL    HW117078   2.186   0.414   0.395 -0.9066 -0.6254  1.5031
 5500SOL    HW217079   2.130   0.405   0.255  2.2215 -0.9133  0.2071
 5501SOL     OW17080   3.288   4.583   4.869 -0.6910  0.2041 -0.1057
 5501SOL    HW117081   3.319   4.671   4.891  2.3011 -1.2069  1.8430
 5501SOL    HW217082   3.247   4.551   4.949  0.1901 -0.9392 -0.0896
 5502SOL     OW17083   9.016   8.568   2.034 -0.3574  0.0609  0.4054
 5502SOL    HW117084   9.100   8.591   1.994  0.8702 -2.3988  1.2915
 5502SOL    HW217085   9.026   8.593   2.126  0.2548 -1.9360  0.9480
 5503SOL     OW17086   4.943   7.559   4.402  0.1033 -0.3903  0.0513
 5503SOL    HW117087   4.891   7.629   4.362 -0.8857 -0.7719  0.6223
 5503SOL    HW217088   4.881   7.514   4.460  1.2523 -0.4595  1.2578
 5504SOL     OW17089   6.386   8.397   3.774  0.3850 -0.4141 -0.5581
 5504SOL    HW117090   6.297   8.363   3.763  0.3582 -0.1542 -1.2124
 5504SOL    HW217091   6.376   8.478   3.824 -0.0403  0.9422 -2.7045
 5505SOL     OW17092   6.514   0.503   5.282  0.1414  0.7479 -0.1722
 5505SOL    HW117093   6.554   0.482   5.198 -0.6609  0.7270 -0.5500
 5505SOL    HW217094   6.449   0.434   5.296 -0.6824  1.5000 -0.1879
 5506SOL     OW17095   9.940   1.320   1.261  0.3057 -0.2631  0.2349
 5506SOL    HW117096   9.876   1.384   1.291  0.8343  0.4547 -0.1335
 5506SOL    HW217097   9.895   1.271   1.193 -0.3568 -0.8032  1.0485
 5507SOL     OW17098   5.859   2.742   5.428 -0.1619 -0.1111 -0.2298
 5507SOL    HW117099   5.771   2.723   5.462  0.5131  0.1741  1.7377
 5507SOL    HW217100   5.882   2.663   5.379 -1.8763  0.1811 -1.6373
 5508SOL     OW17101   7.504   3.275   0.106  0.1057  0.0437  0.3357
 5508SOL    HW117102   7.548   3.239   0.183 -0.4360  0.3467  0.7978
 5508SOL    HW217103   7.414   3.242   0.113 -0.1519  0.7228  0.2634
 5509SOL     OW17104   6.822   6.288   7.595 -0.2747 -0.0153 -0.6427
 5509SOL    HW117105   6.851   6.260   7.508 -0.0188 -0.9063 -0.2811
 5509SOL    HW217106   6.839   6.382   7.597 -0.7118  0.0996 -1.7228
 5510SOL     OW17107   7.829   9.339   5.376 -0.7933  0.4105 -0.6635
 5510SOL    HW117108   7.880   9.338   5.295  1.2829 -3.0389  0.4592
 5510SOL    HW217109   7.894   9.354   5.445 -2.1048  0.7066  0.5582
 5511SOL     OW17110   1.086   0.574   0.039 -0.3207  0.2958  0.6449
 5511SOL    HW117111   0.997   0.545   0.060 -0.3834 -0.3026 -0.3982
 5511SOL    HW217112   1.122   0.505  -0.016  0.3539  1.1005  0.0335
 5512SOL     OW17113   2.726   8.495   0.149  0.4775  0.0747 -0.3185
 5512SOL    HW117114   2.764   8.494   0.237  0.3192  0.1208 -0.2508
 5512SOL    HW217115   2.679   8.578   0.144  1.4904  0.6332 -0.8692
 5513SOL     OW17116   3.680   6.013   5.235  0.1733  0.0788 -0.6546
 5513SOL    HW117117   3.603   5.981   5.283  0.3207 -1.0324 -1.1299
 5513SOL    HW217118   3.654   6.100   5.205 -1.4108 -0.7443 -1.8728
 5514SOL     OW17119   7.330   3.806   4.904 -0.2344 -0.5446  0.3371
 5514SOL    HW117120   7.302   3.842   4.820  1.0292 -2.6479 -1.0639
 5514SOL    HW217121   7.375   3.878   4.948 -0.7158  0.5169 -0.8538
 5515SOL     OW17122   8.467   0.722   7.131  0.3871  0.5018  0.2256
 5515SOL    HW117123   8.470   0.631   7.102 -2.0055  0.1616  0.8849
 5515SOL    HW217124   8.433   0.770   7.055 -0.1043  0.5600  0.4828
 5516SOL     OW17125   4.052   4.213   0.625  0.2177  0.4637  0.5145
 5516SOL    HW117126   3.983   4.149   0.602 -1.6521  2.4015  0.4293
 5516SOL    HW217127   4.010   4.270   0.689  2.0622  1.2359  1.0704
 5517SOL     OW17128   2.575   0.520   5.519  0.5831  0.1714 -0.1249
 5517SOL    HW117129   2.480   0.522   5.504  0.1710 -1.3074  1.7275
 5517SOL    HW217130   2.613   0.551   5.438 -1.5034  1.4831 -0.6928
 5518SOL     OW17131   9.517   2.239   9.692  0.0697  0.5481 -0.5516
 5518SOL    HW117132   9.484   2.167   9.637  2.9023 -1.5503  0.2683
 5518SOL    HW217133   9.587   2.278   9.640 -0.6235  1.9839 -0.4579
 5519SOL     OW17134   9.481   9.409   4.030  0.0209 -0.0260  0.1668
 5519SOL    HW117135   9.497   9.319   4.001  0.3487 -0.0660  0.4578
 5519SOL    HW217136   9.415   9.401   4.098 -0.1627 -0.0162 -0.0103
 5520SOL     OW17137   5.080   7.105   3.930 -0.6490  0.0422  0.0350
 5520SOL    HW117138   5.001   7.158   3.912 -0.6616 -0.1899 -0.5955
 5520SOL    HW217139   5.132   7.112   3.851  0.3277  0.8044  0.7262
 5521SOL     OW17140   0.029   0.365   6.266 -0.4301 -0.9995  0.0395
 5521SOL    HW117141   0.102   0.410   6.310 -0.2686  0.2832 -1.4642
 5521SOL    HW217142   0.069   0.290   6.223 -0.1043 -0.6795 -0.2206
 5522SOL     OW17143   7.301   6.198   5.443 -0.1842  0.4608 -0.0312
 5522SOL    HW117144   7.331   6.238   5.524 -1.0134  0.5169  0.2631
 5522SOL    HW217145   7.337   6.254   5.374  1.6897 -0.3703  0.2133
 5523SOL     OW17146   9.287   6.728   4.782 -0.0256 -0.0473 -0.0184
 5523SOL    HW117147   9.308   6.715   4.690 -0.0319 -0.8795  0.0859
 5523SOL    HW217148   9.276   6.639   4.816  0.8555  0.2122  0.9857
 5524SOL     OW17149   7.234   6.677   1.410 -0.7238 -0.3333 -0.2538
 5524SOL    HW117150   7.168   6.609   1.421 -0.9465 -0.1086 -0.2136
 5524SOL    HW217151   7.268   6.663   1.321 -0.9785 -0.3111 -0.3552
 5525SOL     OW17152   5.800   3.286   8.031 -0.0845 -0.1890 -0.4018
 5525SOL    HW117153   5.744   3.235   7.973  0.7166 -0.8390 -0.6293
 5525SOL    HW217154   5.889   3.273   7.996  0.3313 -0.0194  0.5502
 5526SOL     OW17155   9.343   3.851   3.354  0.1477  0.2329 -0.1155
 5526SOL    HW117156   9.293   3.878   3.431 -0.1825 -0.1530 -0.1883
 5526SOL    HW217157   9.299   3.893   3.281  0.3324  0.4272 -0.1160
 5527SOL     OW17158   9.795   0.643   8.988 -0.4482  0.2315  0.1553
 5527SOL    HW117159   9.703   0.660   8.971 -0.8137 -3.0110 -1.8885
 5527SOL    HW217160   9.796   0.556   9.029  1.7413 -0.8892 -2.0235
 5528SOL     OW17161   1.426   0.815   2.315  0.6689 -0.4336 -0.3854
 5528SOL    HW117162   1.339   0.817   2.355  0.0142 -0.5394 -1.7388
 5528SOL    HW217163   1.440   0.724   2.291  0.8007 -0.2791 -0.9132
 5529SOL     OW17164   3.327   1.713   4.755 -0.8943 -0.7371 -0.0517
 5529SOL    HW117165   3.385   1.658   4.807 -1.0609 -0.5094  0.3872
 5529SOL    HW217166   3.384   1.781   4.719 -0.8783 -0.5068  0.3881
 5530SOL     OW17167   6.618   9.384   1.465  0.7400 -0.2773  0.0686
 5530SOL    HW117168   6.657   9.471   1.468 -1.6082  0.9349 -1.3946
 5530SOL    HW217169   6.566   9.378   1.545 -0.1041  0.2438 -0.4165
 5531SOL     OW17170   9.835   9.534   0.460 -0.4385  0.2368  0.1807
 5531SOL    HW117171   9.892   9.609   0.479 -1.0803  0.8089 -0.0949
 5531SOL    HW217172   9.770   9.569   0.399  0.5719 -1.1279 -1.7673
 5532SOL     OW17173   8.467   7.769   2.570  0.3821 -0.0481  0.0599
 5532SOL    HW117174   8.502   7.701   2.628 -0.3617 -1.7178 -1.3673
 5532SOL    HW217175   8.491   7.741   2.482 -1.1722  0.7731 -0.6681
 5533SOL     OW17176   5.177   8.731   0.620 -0.2816  0.3321  0.0972
 5533SOL    HW117177   5.092   8.745   0.577 -2.2210 -2.2562  2.7476
 5533SOL    HW217178   5.226   8.677   0.558 -0.4974  1.7573 -1.4197
 5534SOL     OW17179   4.633   9.186   0.019  0.5427 -0.1720 -0.1382
 5534SOL    HW117180   4.713   9.203   0.068 -1.0460  0.3051  2.4931
 5534SOL    HW217181   4.619   9.091   0.028 -0.0370 -0.0039  0.8871
 5535SOL     OW17182   9.436   0.701   0.956  0.1688 -0.0769  0.4262
 5535SOL    HW117183   9.343   0.707   0.935  0.0856  0.1682  0.8506
 5535SOL    HW217184   9.439   0.695   1.052  0.6023  0.2528  0.4388
 5536SOL     OW17185   8.792   2.509   6.736  0.1318  0.9225 -0.0368
 5536SOL    HW117186   8.886   2.493   6.730 -0.0790 -0.3464 -0.4630
 5536SOL    HW217187   8.783   2.584   6.794  1.4794  2.0197 -1.1750
 5537SOL     OW17188   6.534   3.365   3.427 -0.1528  0.2683  0.3755
 5537SOL    HW117189   6.606   3.313   3.460 -0.5123 -0.0320  0.6954
 5537SOL    HW217190   6.478   3.303   3.380  0.3506  0.6873 -0.8217
 5538SOL     OW17191   5.369   2.738   4.896  0.2235  0.5556  0.0593
 5538SOL    HW117192   5.353   2.804   4.828 -0.7143 -1.0412 -1.3698
 5538SOL    HW217193   5.286   2.733   4.944 -0.2901 -0.6397 -0.8754
 5539SOL     OW17194   8.696   4.365   9.594  0.7393  0.0300  0.4456
 5539SOL    HW117195   8.672   4.281   9.556  1.3968  0.2362 -0.4689
 5539SOL    HW217196   8.747   4.409   9.525 -0.9966  1.8748  0.2362
 5540SOL     OW17197   7.412   2.918   3.359 -0.0894  0.3918  0.2924
 5540SOL    HW117198   7.406   2.826   3.333  1.0051 -0.0271  1.4526
 5540SOL    HW217199   7.398   2.917   3.453 -3.1784  1.7931 -0.0258
 5541SOL     OW17200   4.236   0.035   4.433  0.2909  0.4847 -0.4645
 5541SOL    HW117201   4.246  -0.060   4.420 -0.1670 -0.0843  2.4829
 5541SOL    HW217202   4.187   0.042   4.515 -0.3337  3.3093 -0.9860
 5542SOL     OW17203   1.766   4.727   7.073 -0.1466 -0.2515  0.3813
 5542SOL    HW117204   1.774   4.805   7.019 -1.1722 -0.0649  0.4780
 5542SOL    HW217205   1.856   4.700   7.090  0.2176  0.8330  0.2368
 5543SOL     OW17206   5.725   4.403   6.719  0.2779  0.1524  0.2694
 5543SOL    HW117207   5.786   4.359   6.660 -0.2914 -0.9392  0.4755
 5543SOL    HW217208   5.781   4.462   6.770  1.8336 -3.0477  2.6736
 5544SOL     OW17209   4.555   2.045   8.068  0.0726 -0.4318  0.5926
 5544SOL    HW117210   4.553   2.005   8.155  1.4984 -2.4284 -0.1987
 5544SOL    HW217211   4.641   2.086   8.063  0.2100 -0.7861 -0.0419
 5545SOL     OW17212   6.700   2.215   9.307  0.0878 -0.5104  0.1359
 5545SOL    HW117213   6.768   2.241   9.245 -0.0667 -1.3382 -0.4077
 5545SOL    HW217214   6.631   2.179   9.252 -1.8459  2.3825  0.4625
 5546SOL     OW17215   5.100   3.911   3.505 -0.0320 -0.6946 -0.4717
 5546SOL    HW117216   5.051   3.843   3.552  0.5600 -1.1569 -0.5088
 5546SOL    HW217217   5.033   3.970   3.471 -0.5500 -1.1818 -0.3122
 5547SOL     OW17218   6.455   6.449   9.256 -0.0228 -0.3177  0.1821
 5547SOL    HW117219   6.490   6.499   9.330  1.6251 -0.6553 -0.3278
 5547SOL    HW217220   6.430   6.515   9.192 -0.7154 -0.0596  0.6985
 5548SOL     OW17221   7.412   6.016   8.750 -0.2640  0.4086 -0.3968
 5548SOL    HW117222   7.316   6.022   8.747 -0.5580 -2.7282 -0.5581
 5548SOL    HW217223   7.438   6.002   8.659  0.3112  0.8370 -0.3018
 5549SOL     OW17224   7.435   1.588   8.813  0.0221 -0.3218  0.2581
 5549SOL    HW117225   7.449   1.654   8.745  2.2582 -0.0671  0.8882
 5549SOL    HW217226   7.443   1.504   8.767  2.3007 -0.1666  0.2318
 5550SOL     OW17227   9.599   7.171   8.529 -0.2402  0.0837 -0.3393
 5550SOL    HW117228   9.656   7.182   8.605 -1.6092 -2.0283  1.1063
 5550SOL    HW217229   9.522   7.224   8.548 -0.4798 -0.2498 -0.3733
 5551SOL     OW17230   5.478   8.995   4.744 -0.4517 -0.0503  0.2036
 5551SOL    HW117231   5.554   9.046   4.771 -0.7720  0.1854  0.6627
 5551SOL    HW217232   5.453   8.944   4.821 -1.3639  0.6213  0.3695
 5552SOL     OW17233   5.158   8.399   6.092 -0.4293  0.8728 -0.2892
 5552SOL    HW117234   5.134   8.318   6.138 -1.1995  0.9100 -0.6196
 5552SOL    HW217235   5.085   8.459   6.109 -0.6445  0.9400 -1.4200
 5553SOL     OW17236   5.426   2.265   1.755  0.3954  0.7940  0.1789
 5553SOL    HW117237   5.330   2.264   1.754  0.3898  0.0168  0.2367
 5553SOL    HW217238   5.450   2.241   1.665  0.5086 -0.3059  0.4797
 5554SOL     OW17239   6.715   7.804   1.323  0.4202  0.5268 -0.0928
 5554SOL    HW117240   6.757   7.889   1.307  0.1300  0.6504 -0.1982
 5554SOL    HW217241   6.665   7.818   1.404  0.9615  0.2396  0.3023
 5555SOL     OW17242   3.535   1.508   4.566  0.5737 -0.1431  0.2464
 5555SOL    HW117243   3.621   1.534   4.599  0.7286 -0.2122 -0.0937
 5555SOL    HW217244   3.482   1.587   4.572  0.6766 -0.0857  0.4086
 5556SOL     OW17245   8.256   7.397   5.298 -0.4415 -0.1064  0.0303
 5556SOL    HW117246   8.175   7.350   5.319  0.1081 -0.3456  1.7558
 5556SOL    HW217247   8.325   7.331   5.305  0.1355  0.5444  0.6849
 5557SOL     OW17248   6.755   8.127   6.009  0.0412  0.3232 -0.1769
 5557SOL    HW117249   6.728   8.108   6.099 -0.0764 -0.4935 -0.3784
 5557SOL    HW217250   6.757   8.222   6.005  0.3258  0.3738  0.7741
 5558SOL     OW17251   0.079   0.199   1.180 -0.0956 -0.1719 -0.3729
 5558SOL    HW117252   0.121   0.120   1.214  0.5206  0.1078 -0.4640
 5558SOL    HW217253   0.145   0.268   1.189 -1.5923  1.0681  2.4970
 5559SOL     OW17254   7.142   0.442   5.473 -0.1806  1.1963  0.2877
 5559SOL    HW117255   7.194   0.470   5.398  0.6879  1.2972  0.9218
 5559SOL    HW217256   7.051   0.460   5.447  0.0537  0.6802 -0.9663
 5560SOL     OW17257   0.309   7.503   4.408  0.1198  0.0685  0.0315
 5560SOL    HW117258   0.338   7.580   4.457  0.0919 -0.0412  0.2225
 5560SOL    HW217259   0.358   7.507   4.326 -1.2229  1.2871 -0.7560
 5561SOL     OW17260   4.600   2.140   8.630 -0.6654  0.4721 -0.1273
 5561SOL    HW117261   4.620   2.086   8.553 -2.2593  1.5088 -1.3344
 5561SOL    HW217262   4.648   2.222   8.614 -1.3216  0.8414 -0.2372
 5562SOL     OW17263   9.797   1.738   5.077  0.1593 -0.1043 -0.1807
 5562SOL    HW117264   9.771   1.798   5.147 -0.5425  2.3569 -2.3549
 5562SOL    HW217265   9.893   1.739   5.078  0.1984 -1.6884  1.9233
 5563SOL     OW17266   5.894   5.223   7.314 -0.2108 -0.5758 -0.5427
 5563SOL    HW117267   5.889   5.232   7.219 -1.2532 -1.8347 -0.6335
 5563SOL    HW217268   5.907   5.129   7.328  0.3347 -0.3532  0.5539
 5564SOL     OW17269   1.306   9.947   5.128  0.1372 -0.0450 -0.1786
 5564SOL    HW117270   1.232   9.896   5.158  0.3977 -0.7034 -0.6351
 5564SOL    HW217271   1.340   9.990   5.207  0.8484 -1.7794  0.5007
 5565SOL     OW17272   8.192   7.754   6.709 -0.1420 -0.3024 -0.3620
 5565SOL    HW117273   8.188   7.662   6.737  0.2812 -0.1707  0.1441
 5565SOL    HW217274   8.128   7.799   6.765  1.0617  0.0485  0.7799
 5566SOL     OW17275   5.174   2.738   3.028  0.3554  0.1716  0.0394
 5566SOL    HW117276   5.241   2.793   3.067  0.9397 -0.1421 -0.4976
 5566SOL    HW217277   5.091   2.771   3.063  0.7684  0.7700  0.4539
 5567SOL     OW17278   7.077   4.399   0.530 -0.1178 -0.1630  0.3406
 5567SOL    HW117279   7.080   4.373   0.622 -1.4170 -2.6982 -0.2678
 5567SOL    HW217280   7.163   4.373   0.495  0.5229  1.1419  0.8571
 5568SOL     OW17281   8.024   8.543   1.157 -0.0988  0.5286 -0.1391
 5568SOL    HW117282   8.117   8.551   1.180  0.0612 -2.6877  0.7914
 5568SOL    HW217283   7.978   8.577   1.234  0.2981  1.1178 -0.1520
 5569SOL     OW17284   7.559   7.963   9.230 -0.1586  0.0034  0.4236
 5569SOL    HW117285   7.587   7.872   9.219  2.1196  0.7593 -0.5734
 5569SOL    HW217286   7.581   7.984   9.321 -0.5734 -0.3799  0.6186
 5570SOL     OW17287   9.901   7.158   9.738 -0.2313  0.2881  0.4450
 5570SOL    HW117288   9.979   7.159   9.683  1.3982  0.5675  2.6281
 5570SOL    HW217289   9.906   7.075   9.786 -2.2093 -0.4815 -0.5444
 5571SOL     OW17290   9.926   0.820   0.728 -0.1258  0.4369  0.0522
 5571SOL    HW117291   9.867   0.892   0.710  0.4025  1.7013  2.8443
 5571SOL    HW217292   9.871   0.742   0.723 -0.8932  1.0569 -2.1441
 5572SOL     OW17293   3.173   9.667   8.571  0.0823 -0.1820 -0.3847
 5572SOL    HW117294   3.119   9.726   8.519  1.2396  0.3150 -1.0679
 5572SOL    HW217295   3.125   9.585   8.573 -1.3722  0.6423  0.2476
 5573SOL     OW17296   2.901   8.965   2.500 -0.3436 -0.1572 -0.2454
 5573SOL    HW117297   2.974   8.979   2.438  0.0665 -0.6707  0.1137
 5573SOL    HW217298   2.826   8.947   2.444  0.1855 -1.3727 -0.5977
 5574SOL     OW17299   7.142   3.511   6.204  0.0171  0.2089 -0.4297
 5574SOL    HW117300   7.172   3.427   6.239 -0.9830 -0.1747 -0.4586
 5574SOL    HW217301   7.067   3.488   6.149 -1.9350  1.3442  1.5968
 5575SOL     OW17302   2.663   3.429   3.102 -0.5652 -0.5198  0.3122
 5575SOL    HW117303   2.683   3.362   3.167  1.6033  2.0028  2.5237
 5575SOL    HW217304   2.580   3.467   3.131 -0.8745 -1.0218  0.1029
 5576SOL     OW17305   3.161   4.236   7.584 -0.4594 -0.5382 -0.1900
 5576SOL    HW117306   3.116   4.152   7.594  0.4597 -0.9405  0.8027
 5576SOL    HW217307   3.225   4.238   7.656  0.6657  0.2885 -1.1605
 5577SOL     OW17308   2.358   5.308   0.156 -0.3140 -0.1487 -0.1784
 5577SOL    HW117309   2.438   5.261   0.179  0.6662  0.6780 -1.7172
 5577SOL    HW217310   2.288   5.254   0.190  0.8446 -1.6261 -0.0356
 5578SOL     OW17311   2.477   4.471   2.848 -0.1681 -0.3509  0.7697
 5578SOL    HW117312   2.526   4.429   2.777  0.6917 -0.3918  1.3805
 5578SOL    HW217313   2.386   4.463   2.821  0.0285 -1.8533  0.4509
 5579SOL     OW17314   6.428   0.439   4.383 -0.2181 -0.2796 -0.3616
 5579SOL    HW117315   6.501   0.489   4.346  0.0425 -0.3261  0.0843
 5579SOL    HW217316   6.385   0.400   4.307 -1.3504  1.8138 -0.8933
 5580SOL     OW17317   1.658   4.320   7.345  0.6095  0.2290 -0.0051
 5580SOL    HW117318   1.685   4.268   7.269  0.9417  0.1634  0.1570
 5580SOL    HW217319   1.722   4.392   7.348 -0.8366  1.6303 -1.2512
 5581SOL     OW17320   4.730   8.670   4.366 -0.3097  0.3386 -0.1092
 5581SOL    HW117321   4.690   8.680   4.452 -1.3673 -0.0651 -0.5374
 5581SOL    HW217322   4.660   8.636   4.310  0.6633 -0.4989 -0.8701
 5582SOL     OW17323   3.312   9.917   7.689  0.4357  0.0025  0.1707
 5582SOL    HW117324   3.309  10.011   7.703  1.0246 -0.2044  1.8417
 5582SOL    HW217325   3.336   9.907   7.596 -0.3642  1.4676 -0.2138
 5583SOL     OW17326   9.531   1.568   6.523 -0.0936  0.0388 -0.0204
 5583SOL    HW117327   9.524   1.620   6.602  0.5063 -0.0296  0.0830
 5583SOL    HW217328   9.546   1.632   6.453  1.1185 -0.0026  0.1713
 5584SOL     OW17329   8.900   5.405   4.622  0.1234 -0.1138 -0.4051
 5584SOL    HW117330   8.917   5.452   4.704 -0.9372 -1.4415  0.6190
 5584SOL    HW217331   8.987   5.381   4.590  0.6127  1.3410 -0.2561
 5585SOL     OW17332   5.175   8.459   3.679  0.5014 -0.1050 -0.4846
 5585SOL    HW117333   5.120   8.386   3.649 -1.0735  0.6379  0.4528
 5585SOL    HW217334   5.121   8.537   3.664  1.3002  0.6621  0.4754
 5586SOL     OW17335   4.378   6.574   1.241 -0.6961  0.2080 -0.0246
 5586SOL    HW117336   4.406   6.611   1.325  1.2993 -1.9042  0.3231
 5586SOL    HW217337   4.451   6.591   1.182 -1.7574  0.9720 -1.1769
 5587SOL     OW17338   6.607   8.265   3.855  0.0977  0.0981 -0.0195
 5587SOL    HW117339   6.648   8.275   3.769  1.5531  2.1624  0.8387
 5587SOL    HW217340   6.521   8.307   3.846  0.1270  0.0626 -0.5251
 5588SOL     OW17341   7.953   8.845   2.756 -0.5481 -0.0040  0.4041
 5588SOL    HW117342   7.965   8.860   2.849  0.7636 -0.2398  0.2942
 5588SOL    HW217343   7.862   8.814   2.747 -0.4939 -0.5717  1.6665
 5589SOL     OW17344   8.139   7.820   4.911 -0.2800 -0.2091 -0.0696
 5589SOL    HW117345   8.198   7.810   4.986 -1.8013 -1.1562  1.0648
 5589SOL    HW217346   8.113   7.912   4.914  1.7854  0.4634 -1.1422
 5590SOL     OW17347   1.484   6.035   6.072  0.0539  0.3490  0.5906
 5590SOL    HW117348   1.576   6.027   6.047  0.5696  2.5219  1.5417
 5590SOL    HW217349   1.441   5.960   6.031  2.0754 -0.2012 -0.6483
 5591SOL     OW17350   2.489   5.639   8.913  0.0987 -0.2806 -0.1814
 5591SOL    HW117351   2.443   5.645   8.829  0.3310  0.2349 -0.2748
 5591SOL    HW217352   2.422   5.659   8.978 -0.3651 -1.8316 -0.1572
 5592SOL     OW17353   6.064   2.427   1.952  0.1263  0.0807  0.1771
 5592SOL    HW117354   5.988   2.369   1.939  0.1352 -0.2555  1.5294
 5592SOL    HW217355   6.080   2.425   2.046  2.0021 -0.0778 -0.1185
 5593SOL     OW17356   2.386   8.265   8.907  0.4714 -0.0107 -0.4510
 5593SOL    HW117357   2.336   8.186   8.928  0.9758 -0.3383 -0.4752
 5593SOL    HW217358   2.473   8.233   8.882  1.6130  0.6944  2.2455
 5594SOL     OW17359   4.992   9.278   0.632 -0.2681 -0.4392  0.0831
 5594SOL    HW117360   5.057   9.347   0.644 -1.1479  0.1661  1.5801
 5594SOL    HW217361   5.030   9.201   0.674 -0.1511 -0.3193  0.1939
 5595SOL     OW17362   5.465   0.355   8.592 -0.3259  0.6027 -0.1970
 5595SOL    HW117363   5.539   0.322   8.542 -0.5554  1.4215 -1.1046
 5595SOL    HW217364   5.500   0.369   8.680  0.5049  0.6722 -0.5277
 5596SOL     OW17365   5.354   2.809   7.145  0.2372 -0.3905  0.2236
 5596SOL    HW117366   5.280   2.844   7.096  0.8767  0.4357 -0.1636
 5596SOL    HW217367   5.379   2.878   7.206  2.8187  0.7728 -1.9442
 5597SOL     OW17368   5.651   4.995   8.505  0.0672 -0.6656 -0.1216
 5597SOL    HW117369   5.572   4.991   8.558 -0.8550  1.6581 -1.1997
 5597SOL    HW217370   5.630   4.943   8.427 -1.3142  1.6187 -1.3923
 5598SOL     OW17371   3.796   9.439   0.969 -0.3001 -0.1733 -0.0910
 5598SOL    HW117372   3.738   9.377   1.012  0.2396 -0.8995 -0.3857
 5598SOL    HW217373   3.741   9.514   0.949 -0.4513  0.4628  2.3979
 5599SOL     OW17374   1.501   9.815   1.929 -0.5324  0.4291  0.2197
 5599SOL    HW117375   1.456   9.777   2.005  1.6783 -1.2127  0.8141
 5599SOL    HW217376   1.508   9.908   1.951 -0.4536  0.0918  1.7928
 5600SOL     OW17377   6.608   2.697   6.781 -0.0448 -0.6872  0.2401
 5600SOL    HW117378   6.545   2.652   6.725 -1.3075  0.4014  0.7359
 5600SOL    HW217379   6.688   2.700   6.729 -1.1177  0.1353 -1.4723
 5601SOL     OW17380   4.304   7.944   1.628  0.1879  0.4231 -0.2192
 5601SOL    HW117381   4.217   7.953   1.668  0.0955  0.4811 -0.4319
 5601SOL    HW217382   4.314   7.850   1.614 -0.0665  0.4650 -0.6917
 5602SOL     OW17383   4.176   5.384   1.925 -0.5600 -0.7784 -0.0441
 5602SOL    HW117384   4.098   5.354   1.880 -1.0021  0.0255  0.1669
 5602SOL    HW217385   4.221   5.439   1.862 -2.3822  2.3077  1.1571
 5603SOL     OW17386   1.977   0.786   8.994 -0.0953  0.4351  0.1992
 5603SOL    HW117387   1.918   0.791   8.919 -0.5361  0.5839  0.5508
 5603SOL    HW217388   1.946   0.710   9.044 -1.0353  1.4712  1.2527
 5604SOL     OW17389   8.323   5.167   5.894  0.1424 -0.0932  0.9792
 5604SOL    HW117390   8.275   5.145   5.814  0.0748 -2.0760  1.5143
 5604SOL    HW217391   8.396   5.221   5.864 -1.5730  1.8222 -0.0195
 5605SOL     OW17392   9.682   7.831   1.884 -0.5376 -0.2065 -0.2022
 5605SOL    HW117393   9.703   7.761   1.946  0.1271  0.8380  0.7981
 5605SOL    HW217394   9.767   7.856   1.847 -0.6112  0.8536  0.3253
 5606SOL     OW17395   8.412   8.415   8.092 -1.0916 -0.1687 -0.0314
 5606SOL    HW117396   8.359   8.365   8.031 -2.6139 -0.0057  1.1024
 5606SOL    HW217397   8.421   8.502   8.052 -0.2272 -0.6865 -1.0050
 5607SOL     OW17398   7.590   8.187   8.323  0.4222  0.0863  0.2211
 5607SOL    HW117399   7.666   8.222   8.277  0.8677  0.2705  1.0669
 5607SOL    HW217400   7.624   8.159   8.408 -0.0943 -1.5941 -0.0931
 5608SOL     OW17401   5.364   9.491   3.893 -0.2941 -0.2718  0.3951
 5608SOL    HW117402   5.408   9.575   3.908  0.2027 -0.8779  2.6832
 5608SOL    HW217403   5.293   9.490   3.957 -0.8333 -1.2323 -0.2068
 5609SOL     OW17404   5.449   6.590   5.994  0.2445  0.5296 -0.5296
 5609SOL    HW117405   5.394   6.629   6.062  0.1315 -0.6022  0.0454
 5609SOL    HW217406   5.409   6.505   5.976  1.6749 -0.2396 -0.2352
 5610SOL     OW17407   7.122   8.338   9.574 -0.1846  0.7627  0.3143
 5610SOL    HW117408   7.028   8.320   9.565  0.0843  0.3110 -2.2736
 5610SOL    HW217409   7.133   8.358   9.667 -2.4128 -1.5607  1.2031
 5611SOL     OW17410   7.749   6.772   5.987  0.1633 -0.4082 -0.1765
 5611SOL    HW117411   7.774   6.756   5.896  1.3828 -2.5370  0.4687
 5611SOL    HW217412   7.655   6.751   5.990 -0.1594  0.7574 -1.1226
 5612SOL     OW17413   9.342   7.267   8.184 -0.0253 -0.2365 -0.4492
 5612SOL    HW117414   9.265   7.318   8.209  1.0299  1.7952 -1.1937
 5612SOL    HW217415   9.324   7.238   8.095  0.0966  0.2824 -0.6423
 5613SOL     OW17416   0.031   5.837   5.585  0.2748 -0.4594 -0.3474
 5613SOL    HW117417   0.013   5.766   5.523  2.7044 -0.6216 -1.0041
 5613SOL    HW217418   0.022   5.797   5.671 -1.1020 -0.8013 -0.6351
 5614SOL     OW17419   9.617   5.868   5.599 -0.3777  0.6326 -0.1244
 5614SOL    HW117420   9.700   5.915   5.591 -0.3763  0.5176 -0.8540
 5614SOL    HW217421   9.583   5.893   5.685  1.0022 -0.2853  0.7303
 5615SOL     OW17422   6.501   0.660   6.797  0.0069  0.0676  0.4376
 5615SOL    HW117423   6.438   0.633   6.731 -1.5723  2.4823  0.8517
 5615SOL    HW217424   6.514   0.754   6.782  2.3002 -0.0109  1.3934
 5616SOL     OW17425   3.846   0.529   7.957 -0.1735  0.0022 -0.4496
 5616SOL    HW117426   3.860   0.533   8.052 -0.5281  0.3959 -0.4076
 5616SOL    HW217427   3.837   0.436   7.937 -0.9216 -0.0360  0.0321
 5617SOL     OW17428   3.954   8.929   1.737  0.1504 -0.1916 -0.1407
 5617SOL    HW117429   4.002   8.848   1.723  0.5743 -0.1167  0.7674
 5617SOL    HW217430   3.894   8.935   1.663 -0.0082 -1.4212 -0.1292
 5618SOL     OW17431   4.285   6.259   0.544 -0.1882 -0.6974 -0.4366
 5618SOL    HW117432   4.228   6.318   0.495 -1.4320  0.0875  1.7943
 5618SOL    HW217433   4.342   6.317   0.594  2.5369 -1.4668 -2.3908
 5619SOL     OW17434   2.712   0.194   7.950 -0.1896  0.2130  0.1066
 5619SOL    HW117435   2.693   0.287   7.936  1.0678  1.1029  3.3506
 5619SOL    HW217436   2.627   0.155   7.971 -0.7614  0.5579 -1.4878
 5620SOL     OW17437   5.435   0.851   3.056 -0.2168  0.6408  0.5168
 5620SOL    HW117438   5.392   0.899   3.127  1.1443  0.8874  1.2144
 5620SOL    HW217439   5.470   0.772   3.098 -0.8883 -0.0770 -0.2532
 5621SOL     OW17440   3.497   0.068   2.036 -0.1774  0.7156 -0.3579
 5621SOL    HW117441   3.452  -0.010   2.003 -1.1945  0.9408  0.4569
 5621SOL    HW217442   3.468   0.138   1.979 -0.2430  0.7105 -0.3321
 5622SOL     OW17443   9.996   5.029   3.859  0.2845  0.7646  0.3191
 5622SOL    HW117444   9.911   5.050   3.895 -0.8577 -2.5681 -0.0891
 5622SOL    HW217445   9.987   5.045   3.765  0.3669  1.1404  0.3749
 5623SOL     OW17446   5.942   2.983   3.829 -0.2281  0.3265  0.0365
 5623SOL    HW117447   5.915   3.063   3.783  1.4756 -0.2001 -2.0268
 5623SOL    HW217448   5.862   2.953   3.874 -1.1910  2.5153 -0.0999
 5624SOL     OW17449   3.782   6.660   4.453 -0.1901  0.6711  0.5916
 5624SOL    HW117450   3.822   6.713   4.384 -1.1677  1.4740  0.6129
 5624SOL    HW217451   3.830   6.577   4.451 -0.9953  0.1695 -1.9134
 5625SOL     OW17452   2.689   5.292   1.896  0.0498 -0.3815 -0.3181
 5625SOL    HW117453   2.670   5.326   1.808 -1.4377 -0.0297  0.0998
 5625SOL    HW217454   2.779   5.317   1.912 -0.4688  2.0250 -0.6807
 5626SOL     OW17455   6.253   5.275   5.357 -0.0260 -0.6650  0.1450
 5626SOL    HW117456   6.174   5.227   5.334  0.0585 -0.3797 -0.7653
 5626SOL    HW217457   6.296   5.292   5.274 -0.0880  1.0672  0.4369
 5627SOL     OW17458   6.804   9.563   1.944 -0.1781  0.0111  0.0796
 5627SOL    HW117459   6.888   9.542   1.985 -0.5012 -1.1593  0.1707
 5627SOL    HW217460   6.739   9.549   2.013 -0.4595  1.0773  0.0620
 5628SOL     OW17461   8.694   7.500   9.926  0.0933 -0.1157 -0.5712
 5628SOL    HW117462   8.646   7.418   9.941  0.1185 -0.0978 -0.3991
 5628SOL    HW217463   8.628   7.568   9.938  0.3076 -0.0587  0.2789
 5629SOL     OW17464   1.991   2.930   6.879  0.2130  0.0730 -0.6526
 5629SOL    HW117465   1.916   2.957   6.932  1.4046  0.1557  1.0747
 5629SOL    HW217466   1.960   2.937   6.788 -1.5579  0.9826 -0.0262
 5630SOL     OW17467   4.179   3.097   0.568 -0.2619 -0.7913  0.1513
 5630SOL    HW117468   4.263   3.129   0.536 -0.0136 -1.5256  0.0566
 5630SOL    HW217469   4.120   3.105   0.493  0.1540 -1.8813 -0.3203
 5631SOL     OW17470   2.991   0.810   8.463  0.0901 -0.0257 -0.0135
 5631SOL    HW117471   3.077   0.846   8.443 -0.5154  0.6498 -1.6122
 5631SOL    HW217472   2.979   0.828   8.556  1.4786  0.2891  0.1277
 5632SOL     OW17473   6.418   9.382   7.336 -0.2758  0.4682  0.0273
 5632SOL    HW117474   6.480   9.331   7.389  0.0490  0.8451  0.0200
 5632SOL    HW217475   6.474   9.427   7.273 -0.7774 -1.0548 -1.5611
 5633SOL     OW17476   4.696   0.485   9.589 -0.6454  0.3840 -0.0094
 5633SOL    HW117477   4.664   0.519   9.673  0.1893  1.8255 -0.2432
 5633SOL    HW217478   4.637   0.523   9.524 -0.8093 -0.0945 -0.1439
 5634SOL     OW17479   3.961   6.581   9.296  0.0690 -0.3545 -0.8160
 5634SOL    HW117480   3.887   6.636   9.323  0.9068  0.3208  0.1980
 5634SOL    HW217481   3.926   6.527   9.225 -1.4377 -0.1626 -0.2641
 5635SOL     OW17482   9.422   9.728   7.824 -0.0014  0.2332 -0.0618
 5635SOL    HW117483   9.483   9.672   7.873  1.7307  0.1801 -2.0796
 5635SOL    HW217484   9.429   9.696   7.734 -2.1292  1.0789 -0.5840
 5636SOL     OW17485   3.134   3.203   7.438 -0.3048  0.5015 -0.3592
 5636SOL    HW117486   3.211   3.227   7.387 -0.8603  0.1343 -1.3990
 5636SOL    HW217487   3.101   3.124   7.395 -0.1275 -0.5242  1.2747
 5637SOL     OW17488   2.661   6.403   6.701  0.0080  0.1624  0.4290
 5637SOL    HW117489   2.693   6.447   6.623 -0.8717  2.5313  1.3165
 5637SOL    HW217490   2.581   6.451   6.725  0.3889 -0.3000  2.9276
 5638SOL     OW17491   1.971   7.083   4.864 -0.1161  0.0256 -0.3458
 5638SOL    HW117492   1.952   6.990   4.876 -0.2131  0.1691  0.6544
 5638SOL    HW217493   1.890   7.128   4.887 -0.0421  0.3712 -0.7316
 5639SOL     OW17494   8.693   4.620   1.830 -0.0162 -0.0030  0.2284
 5639SOL    HW117495   8.598   4.633   1.836  0.0192 -0.3086  2.2541
 5639SOL    HW217496   8.705   4.564   1.754 -1.5585 -0.7596  0.5037
 5640SOL     OW17497   5.003   7.735   7.941 -0.5360  0.0661 -0.3504
 5640SOL    HW117498   4.974   7.762   8.028 -0.2164  0.9313 -0.5055
 5640SOL    HW217499   4.949   7.787   7.881  0.1331  0.4192 -0.6527
 5641SOL     OW17500   5.507   5.363   7.999 -0.4366  0.0411 -0.1090
 5641SOL    HW117501   5.577   5.387   8.060 -0.4452 -1.1933  0.4060
 5641SOL    HW217502   5.437   5.425   8.018 -0.8759 -1.0141  1.9556
 5642SOL     OW17503   1.163   7.615   1.790 -0.1521  0.4224 -0.3694
 5642SOL    HW117504   1.110   7.546   1.750  0.6175  0.1179 -0.8793
 5642SOL    HW217505   1.121   7.631   1.875 -0.3068 -0.7239 -0.2158
 5643SOL     OW17506   2.724   2.157   9.236 -0.2299  0.6878  0.4280
 5643SOL    HW117507   2.692   2.075   9.274  0.0092 -0.4149 -1.6301
 5643SOL    HW217508   2.751   2.209   9.312  0.7238 -1.5948  1.7625
 5644SOL     OW17509   5.999   1.690   4.769  0.6613  0.2507  0.1821
 5644SOL    HW117510   6.077   1.742   4.751  0.5978  0.5965  0.8696
 5644SOL    HW217511   5.932   1.727   4.711  0.5754  1.0518  0.7702
 5645SOL     OW17512   7.396   2.899   6.523 -0.0054  0.4611 -0.2916
 5645SOL    HW117513   7.445   2.819   6.542  0.7087  1.1459  0.8903
 5645SOL    HW217514   7.461   2.961   6.491 -0.5275  0.6402 -1.0446
 5646SOL     OW17515   4.121   8.729   0.844  0.1706  0.0547  0.2823
 5646SOL    HW117516   4.074   8.710   0.762  2.0557 -2.2191 -0.3797
 5646SOL    HW217517   4.113   8.649   0.895 -0.2445  1.1507  1.9950
 5647SOL     OW17518   8.062   6.880   5.028 -0.0693  0.2904  0.4224
 5647SOL    HW117519   8.026   6.968   5.015  0.1463  0.5237  1.3414
 5647SOL    HW217520   8.063   6.869   5.123 -0.8023 -1.0099  0.2981
 5648SOL     OW17521   6.880   2.182   3.153 -0.2362  0.0216 -0.2620
 5648SOL    HW117522   6.949   2.233   3.196 -2.7782  3.1285  0.6022
 5648SOL    HW217523   6.819   2.160   3.224 -0.1091 -2.8764 -0.9367
 5649SOL     OW17524   2.076   0.479   4.532 -0.0419  0.2217 -0.2387
 5649SOL    HW117525   2.166   0.453   4.514 -0.0485  0.5419 -0.7696
 5649SOL    HW217526   2.037   0.493   4.445 -1.1913 -1.8442 -0.1235
 5650SOL     OW17527   1.912   1.414   9.877  0.1159 -0.0469 -0.2185
 5650SOL    HW117528   1.968   1.442   9.949 -0.8476 -0.5938  0.7921
 5650SOL    HW217529   1.872   1.494   9.844 -0.4070  0.1059  0.7282
 5651SOL     OW17530   7.355   1.715   0.294  0.4606  0.0060  0.0269
 5651SOL    HW117531   7.415   1.784   0.266  0.0946  0.6895  0.9107
 5651SOL    HW217532   7.277   1.761   0.323 -0.6639 -0.8882 -1.4263
 5652SOL     OW17533   7.350   8.796   5.111  0.2901 -0.4709  0.0852
 5652SOL    HW117534   7.257   8.797   5.132  0.4700 -0.8353  0.9082
 5652SOL    HW217535   7.366   8.707   5.080  0.5450 -0.6802  0.7986
 5653SOL     OW17536   4.328   3.003   1.511 -0.2448 -0.5519  0.2973
 5653SOL    HW117537   4.245   2.963   1.488  0.0434 -0.5875 -0.7250
 5653SOL    HW217538   4.368   3.026   1.427  0.7922 -0.5696  0.7697
 5654SOL     OW17539   7.320   5.139   4.395  0.5459  0.0679  0.3137
 5654SOL    HW117540   7.252   5.085   4.355  0.7020 -0.4941  0.8085
 5654SOL    HW217541   7.285   5.162   4.481  0.0490  1.5822 -0.2592
 5655SOL     OW17542   0.975   3.749   8.031 -0.5759 -0.2685 -0.3742
 5655SOL    HW117543   0.971   3.820   8.095 -1.8528  0.1817 -0.9224
 5655SOL    HW217544   1.001   3.673   8.082 -0.6101  0.2872  0.4969
 5656SOL     OW17545   8.482   1.585   7.954 -0.4138  0.5456 -0.4388
 5656SOL    HW117546   8.402   1.635   7.967 -1.0090 -0.5890  0.4968
 5656SOL    HW217547   8.498   1.542   8.038  3.1005  3.3301  0.5957
 5657SOL     OW17548   8.973   2.101   3.468  0.4595  0.1643 -0.2939
 5657SOL    HW117549   8.895   2.156   3.480  0.3542 -0.1553  0.5389
 5657SOL    HW217550   9.046   2.159   3.491  0.3750  0.0867  0.1876
 5658SOL     OW17551   2.243   6.541   8.427 -0.4039  0.8542 -0.1578
 5658SOL    HW117552   2.283   6.612   8.377  0.0840 -0.0882 -1.1514
 5658SOL    HW217553   2.171   6.510   8.371 -0.2150  0.1576 -0.0304
 5659SOL     OW17554   6.947   1.449   0.601 -0.0758  0.2812 -0.2184
 5659SOL    HW117555   6.950   1.356   0.578  1.0031  0.2453 -0.0043
 5659SOL    HW217556   7.025   1.463   0.655 -0.9477  1.0209  0.9085
 5660SOL     OW17557   9.580   8.653   9.583 -0.5076 -0.1878 -0.0107
 5660SOL    HW117558   9.558   8.562   9.600 -0.0626 -0.4011 -0.5426
 5660SOL    HW217559   9.666   8.665   9.623 -0.5120 -0.0363 -0.0444
 5661SOL     OW17560   7.292   5.744   0.992  0.3083  0.1292  0.0133
 5661SOL    HW117561   7.251   5.793   0.921 -0.4505 -0.9347 -0.2993
 5661SOL    HW217562   7.222   5.731   1.056  0.7568  0.2946  0.5426
 5662SOL     OW17563   4.777   9.652   2.603  0.2528  0.0375 -0.0706
 5662SOL    HW117564   4.713   9.601   2.552  0.0627  1.0006 -0.8238
 5662SOL    HW217565   4.746   9.742   2.597  1.1622  0.3859  0.3654
 5663SOL     OW17566   1.296   2.081   3.449  0.3025  0.3974 -0.4882
 5663SOL    HW117567   1.390   2.092   3.433  0.5774  0.0908  0.8704
 5663SOL    HW217568   1.263   2.170   3.455  0.8398  0.5249  0.8561
 5664SOL     OW17569   2.867   0.798   4.021  0.6135 -0.3014  0.5111
 5664SOL    HW117570   2.834   0.785   3.932 -0.5631  0.1828  0.8553
 5664SOL    HW217571   2.901   0.712   4.046 -2.3647 -1.5058  0.8879
 5665SOL     OW17572   4.966   8.644   6.328  0.2803 -0.3290  0.1722
 5665SOL    HW117573   4.918   8.573   6.284 -1.1276  0.0242  1.0661
 5665SOL    HW217574   4.961   8.718   6.266  0.1979 -0.4767  0.0010
 5666SOL     OW17575   8.853   1.761   0.963  0.5376  0.4451  0.1624
 5666SOL    HW117576   8.925   1.783   0.904 -0.2814  0.5618 -0.8349
 5666SOL    HW217577   8.788   1.830   0.950 -1.0489 -1.1900 -1.2562
 5667SOL     OW17578   3.680   4.356   4.093  0.0717  0.7449  0.4190
 5667SOL    HW117579   3.745   4.287   4.079  1.6855  2.2202  0.3442
 5667SOL    HW217580   3.634   4.364   4.009 -0.6661 -0.7045  0.6484
 5668SOL     OW17581   8.809   2.976   5.228  0.2488  0.2428  0.0789
 5668SOL    HW117582   8.837   2.931   5.308 -2.0736 -0.3138  0.6614
 5668SOL    HW217583   8.880   2.961   5.165  1.8029  0.0930  1.7981
 5669SOL     OW17584   8.660   5.633   5.139  0.4315  0.3979 -0.3443
 5669SOL    HW117585   8.658   5.549   5.184 -1.3991  1.3272  1.4739
 5669SOL    HW217586   8.660   5.611   5.046 -2.2053 -1.6695  0.0394
 5670SOL     OW17587   7.830   1.186   1.451  0.3819 -0.2512 -0.4451
 5670SOL    HW117588   7.833   1.147   1.538  1.7642  0.4551 -0.1415
 5670SOL    HW217589   7.920   1.217   1.436  0.2099 -0.5532 -2.2095
 5671SOL     OW17590   9.599   5.437   4.980  0.7646 -0.0364  0.2529
 5671SOL    HW117591   9.676   5.492   4.994  1.1554 -1.1096  2.7642
 5671SOL    HW217592   9.635   5.349   4.968 -0.0294 -0.5285  1.3486
 5672SOL     OW17593   0.993   0.652   7.511  0.3315  0.0398 -0.1199
 5672SOL    HW117594   0.918   0.680   7.458  0.0027 -2.4846 -1.1331
 5672SOL    HW217595   0.986   0.702   7.592 -2.6004 -0.2546 -0.0821
 5673SOL     OW17596   4.680   8.157   9.790  0.3131  0.2710 -0.5902
 5673SOL    HW117597   4.669   8.213   9.867  2.1146 -1.5382  1.1110
 5673SOL    HW217598   4.592   8.151   9.752 -0.1894  3.0290 -0.0224
 5674SOL     OW17599   7.349   8.404   7.904 -0.3006  0.2220 -0.2278
 5674SOL    HW117600   7.372   8.451   7.984 -0.4686 -0.2763  0.1134
 5674SOL    HW217601   7.321   8.473   7.843  1.0375  0.7496 -0.2944
 5675SOL     OW17602   6.517   5.023   9.746 -0.3995  0.4403  0.3727
 5675SOL    HW117603   6.470   5.036   9.664 -2.2717 -1.6820  1.0212
 5675SOL    HW217604   6.453   5.043   9.814  0.2164 -0.6572  1.3054
 5676SOL     OW17605   4.872   7.129   1.592  0.0315 -0.2759  0.2015
 5676SOL    HW117606   4.927   7.129   1.514  0.4052 -1.6182  0.4377
 5676SOL    HW217607   4.789   7.166   1.563  0.0894 -0.9540 -0.8997
 5677SOL     OW17608   7.249   4.953   7.776 -0.3570  0.2415  0.1125
 5677SOL    HW117609   7.191   4.877   7.779  1.3197 -1.1432  3.4130
 5677SOL    HW217610   7.191   5.028   7.779 -2.0143 -0.9626 -0.5487
 5678SOL     OW17611   1.624   5.140   7.900 -0.1389 -0.1735 -0.0907
 5678SOL    HW117612   1.649   5.210   7.839  0.2029 -0.2175  0.0004
 5678SOL    HW217613   1.652   5.060   7.857 -0.1863 -0.2288 -0.0193
 5679SOL     OW17614   5.700   9.676   5.146 -0.6667 -0.5947  0.1034
 5679SOL    HW117615   5.779   9.630   5.176 -0.0933 -0.6581 -1.4356
 5679SOL    HW217616   5.645   9.606   5.110 -1.7584 -0.6469  1.7654
 5680SOL     OW17617   9.267   5.609   5.305 -0.6464 -0.5569 -0.1609
 5680SOL    HW117618   9.302   5.559   5.232  0.0193 -0.2877 -0.0343
 5680SOL    HW217619   9.343   5.625   5.362 -1.2636 -1.2943  0.9041
 5681SOL     OW17620   4.180   3.605   2.402  0.0494 -0.2663  0.3609
 5681SOL    HW117621   4.273   3.619   2.380 -0.2149  1.0514 -0.0092
 5681SOL    HW217622   4.133   3.634   2.324 -0.6475 -2.4975 -0.1151
 5682SOL     OW17623   2.003   2.749   5.489 -0.3929  0.4842  0.2435
 5682SOL    HW117624   2.002   2.818   5.555 -0.0348 -0.5615  1.3958
 5682SOL    HW217625   1.950   2.679   5.527  0.3360 -0.3882 -0.3084
 5683SOL     OW17626   0.462   7.174   6.274 -0.3714 -0.3507  0.0704
 5683SOL    HW117627   0.469   7.180   6.369 -3.1626  2.5495  0.2602
 5683SOL    HW217628   0.375   7.136   6.258  1.3797 -4.2428 -1.5045
 5684SOL     OW17629   1.704   7.658   6.037  0.8565 -0.0664 -0.7618
 5684SOL    HW117630   1.767   7.726   6.013  0.9458 -0.2057 -0.9174
 5684SOL    HW217631   1.737   7.579   5.995  0.2668 -0.0213 -1.3140
 5685SOL     OW17632   0.100   1.721   8.297  0.3702 -0.5816 -0.5111
 5685SOL    HW117633   0.195   1.721   8.288  0.3970 -0.3819 -0.2133
 5685SOL    HW217634   0.077   1.628   8.305  0.5844 -0.6008 -0.1088
 5686SOL     OW17635   7.811   2.093   9.525  0.9730  0.4526  0.4101
 5686SOL    HW117636   7.810   1.999   9.538  0.5953  0.5439  1.1445
 5686SOL    HW217637   7.719   2.116   9.511  1.2248  0.5334 -1.2865
 5687SOL     OW17638   0.952   5.316   5.223 -0.5400 -0.7633 -0.4131
 5687SOL    HW117639   0.944   5.317   5.127 -0.6696 -0.1281 -0.3967
 5687SOL    HW217640   1.018   5.248   5.240 -1.1196 -1.4666 -0.8998
 5688SOL     OW17641   7.109   2.486   0.473  0.2426 -0.1114  0.2095
 5688SOL    HW117642   7.054   2.454   0.545 -0.0358 -0.4557 -0.1504
 5688SOL    HW217643   7.132   2.407   0.424  0.9764  0.0443  0.2943
 5689SOL     OW17644   3.227   7.033   3.991  0.8130  0.5809 -0.4648
 5689SOL    HW117645   3.289   6.960   3.990  0.4577  0.2692 -0.2053
 5689SOL    HW217646   3.241   7.078   3.907  0.8809  0.0822 -0.7238
 5690SOL     OW17647   9.570   2.556   2.973  0.5604 -0.0379  0.2343
 5690SOL    HW117648   9.615   2.473   2.961 -1.0215 -1.1899  1.8087
 5690SOL    HW217649   9.487   2.545   2.928  0.0270  0.4110  1.0908
 5691SOL     OW17650   8.780   1.770   5.820 -0.1025 -0.4265  0.3855
 5691SOL    HW117651   8.685   1.768   5.810 -0.0522 -0.6310 -0.0692
 5691SOL    HW217652   8.795   1.829   5.894 -0.5326  0.3990 -0.1809
 5692SOL     OW17653   1.683   4.509   6.069  0.0084  0.2568  0.6497
 5692SOL    HW117654   1.600   4.473   6.102  0.7801 -1.0611  1.2028
 5692SOL    HW217655   1.702   4.456   5.991  1.4464 -0.9923  1.7898
 5693SOL     OW17656   4.596   8.241   4.152 -0.0975 -0.1843 -0.3498
 5693SOL    HW117657   4.673   8.219   4.204 -0.6150  0.8512  0.9204
 5693SOL    HW217658   4.631   8.283   4.073  0.6640 -1.0085 -0.4676
 5694SOL     OW17659   2.292   9.945   2.801 -0.1716  0.5881  0.3438
 5694SOL    HW117660   2.294  10.002   2.724  0.1307  0.6794  0.4170
 5694SOL    HW217661   2.368   9.971   2.852  0.7225 -0.7288 -0.2456
 5695SOL     OW17662   8.344   3.119   6.040  0.0784  0.4248  0.3236
 5695SOL    HW117663   8.361   3.213   6.049  0.1720  0.3717  0.7150
 5695SOL    HW217664   8.421   3.086   5.995  0.0852  0.5212  0.2634
 5696SOL     OW17665   1.273   9.026   6.828  0.4643  0.2853  0.0463
 5696SOL    HW117666   1.365   9.043   6.849  0.3111  0.9500  0.1990
 5696SOL    HW217667   1.271   8.933   6.805  0.8354 -0.2504  1.9551
 5697SOL     OW17668   7.084   8.407   8.931 -0.3756 -0.0033 -0.6790
 5697SOL    HW117669   7.034   8.444   8.858  0.5560  0.5188 -1.0634
 5697SOL    HW217670   7.088   8.477   8.995  2.3071  1.0333 -1.8464
 5698SOL     OW17671   6.814   0.023   6.521  0.4569  0.4542 -0.2093
 5698SOL    HW117672   6.803   0.104   6.471 -1.6238  0.2437 -0.1746
 5698SOL    HW217673   6.842  -0.042   6.456 -1.3768  0.3858 -0.9870
 5699SOL     OW17674   2.109   4.124   9.512 -0.0851 -0.2628  0.5666
 5699SOL    HW117675   2.071   4.093   9.429 -0.5008  1.7431 -0.0466
 5699SOL    HW217676   2.090   4.217   9.513  1.1083 -0.0031  2.3202
 5700SOL     OW17677   2.046   5.997   3.495  0.3355 -0.0559  0.9502
 5700SOL    HW117678   1.994   5.987   3.575  0.3425  0.4391  1.0185
 5700SOL    HW217679   2.026   5.919   3.443 -0.8438  0.3578  0.7576
 5701SOL     OW17680   0.816   6.997   6.986 -0.4325 -0.5015  0.2624
 5701SOL    HW117681   0.868   7.067   7.027 -0.1553 -0.5629  0.0131
 5701SOL    HW217682   0.770   7.041   6.915  0.2785 -0.7098 -0.3377
 5702SOL     OW17683   8.344   4.261   2.341 -0.8316  0.0103  0.0000
 5702SOL    HW117684   8.255   4.224   2.335 -1.3095  1.1261  0.0113
 5702SOL    HW217685   8.348   4.298   2.429 -0.0382 -0.7862  0.3134
 5703SOL     OW17686   6.326   2.545   4.518 -0.6903  0.5737  0.5901
 5703SOL    HW117687   6.366   2.595   4.589  1.6100 -0.3439  0.0414
 5703SOL    HW217688   6.398   2.529   4.457 -2.1515 -0.3699 -0.9889
 5704SOL     OW17689   0.936   7.829   6.201  0.3884 -0.2844  0.4576
 5704SOL    HW117690   1.009   7.889   6.218  1.3609 -1.4037  0.4155
 5704SOL    HW217691   0.963   7.747   6.243  0.1462 -1.3557 -1.3649
 5705SOL     OW17692   1.995   4.148   5.803  0.1320 -0.7559  0.0482
 5705SOL    HW117693   1.922   4.086   5.806 -0.0530 -0.5637 -0.3789
 5705SOL    HW217694   2.001   4.183   5.892  1.2183 -2.5123  0.7044
 5706SOL     OW17695   5.747   1.455   1.383 -0.2474 -0.2752 -0.4105
 5706SOL    HW117696   5.811   1.514   1.424  0.0686 -0.1178 -1.1081
 5706SOL    HW217697   5.666   1.506   1.381 -0.0019  0.1083 -0.9124
 5707SOL     OW17698   8.515   7.818   4.648  0.0961 -0.2869  0.1444
 5707SOL    HW117699   8.597   7.849   4.610 -0.3608 -0.4876 -1.0543
 5707SOL    HW217700   8.540   7.780   4.732  1.3803 -1.2435 -0.6342
 5708SOL     OW17701   8.341   6.900   7.817 -0.0308  0.3319 -0.0019
 5708SOL    HW117702   8.359   6.843   7.743 -0.6144  0.3447 -0.1584
 5708SOL    HW217703   8.426   6.938   7.839  0.2154  0.0312 -0.4141
 5709SOL     OW17704   5.313   1.640   9.461  0.1614  0.6962 -0.4199
 5709SOL    HW117705   5.336   1.551   9.437  0.3415  0.6775 -0.1853
 5709SOL    HW217706   5.307   1.638   9.557 -2.7009  0.2311 -0.5077
 5710SOL     OW17707   1.030   4.829   6.142 -0.1427  0.2084  0.3274
 5710SOL    HW117708   1.100   4.770   6.114  0.7247  0.8406  1.0998
 5710SOL    HW217709   0.959   4.770   6.169  0.2268 -0.4518 -0.0968
 5711SOL     OW17710   7.048   1.844   8.936  0.0170 -0.3047 -0.3903
 5711SOL    HW117711   7.037   1.790   8.857  1.0135 -0.9034 -0.1254
 5711SOL    HW217712   7.140   1.836   8.958 -0.0264  0.7468  0.2160
 5712SOL     OW17713   7.716   5.595   0.986  0.1579  0.1865  0.1259
 5712SOL    HW117714   7.738   5.654   1.059  0.2113  1.1441 -0.6435
 5712SOL    HW217715   7.669   5.651   0.924 -1.7436 -1.0801  0.3319
 5713SOL     OW17716   4.942   0.842   4.071 -0.3606  0.1157 -0.1548
 5713SOL    HW117717   4.910   0.771   4.126  0.4852 -1.0183 -1.0841
 5713SOL    HW217718   5.018   0.877   4.119 -1.6679  1.4638  1.0511
 5714SOL     OW17719   8.430   2.795   8.507  0.4429 -0.0811  0.3166
 5714SOL    HW117720   8.357   2.821   8.564  0.5132  1.6171 -0.3077
 5714SOL    HW217721   8.496   2.862   8.521  0.8924 -0.2353 -0.9465
 5715SOL     OW17722   6.839   8.893   0.629  0.2635  0.3954 -0.3228
 5715SOL    HW117723   6.923   8.934   0.609  0.5512  0.0814  0.2153
 5715SOL    HW217724   6.833   8.894   0.724  0.0861 -0.4278 -0.3149
 5716SOL     OW17725   2.177   3.355   7.368 -0.5508  0.0461 -0.1309
 5716SOL    HW117726   2.183   3.420   7.438 -1.0204  0.3020 -0.3258
 5716SOL    HW217727   2.086   3.361   7.338 -0.1961  0.3738 -1.1723
 5717SOL     OW17728   2.929   1.598   5.520  0.3745 -0.0018  0.9079
 5717SOL    HW117729   3.001   1.594   5.582  0.3531  0.8088  1.0059
 5717SOL    HW217730   2.892   1.686   5.532  0.4371  0.2195 -0.3062
 5718SOL     OW17731   7.981   5.737   2.199  0.6109  0.4988 -1.1028
 5718SOL    HW117732   7.907   5.689   2.161  0.3906  2.4940 -3.5475
 5718SOL    HW217733   7.941   5.791   2.267  0.3302 -0.5014 -0.4621
 5719SOL     OW17734   6.435   3.567   5.160  0.4591 -0.4108  0.2783
 5719SOL    HW117735   6.352   3.537   5.199  0.9544 -1.2517  0.7252
 5719SOL    HW217736   6.439   3.660   5.180  0.2921 -0.6555  1.5274
 5720SOL     OW17737   9.285   7.108   3.288  0.2074  0.1765  0.3824
 5720SOL    HW117738   9.245   7.116   3.201 -1.8107  0.8759  1.3019
 5720SOL    HW217739   9.369   7.066   3.272  0.8309  2.1063 -2.1553
 5721SOL     OW17740   9.422   6.522   1.521 -0.0763  0.5355  0.5362
 5721SOL    HW117741   9.492   6.479   1.472 -0.0224  0.8598  0.3298
 5721SOL    HW217742   9.362   6.554   1.453 -1.4807 -1.4782  0.7318
 5722SOL     OW17743  -0.010   4.719   5.499  0.3604 -0.0384 -0.1003
 5722SOL    HW117744   0.049   4.751   5.431  0.1243  0.1958 -0.1971
 5722SOL    HW217745   0.034   4.642   5.535  0.1062 -0.6817 -1.1007
 5723SOL     OW17746   1.661   6.814   1.945  0.5859  0.2249  0.0010
 5723SOL    HW117747   1.688   6.894   1.991  0.3957 -0.0970  0.6732
 5723SOL    HW217748   1.741   6.761   1.942  0.0883 -0.7214  1.9777
 5724SOL     OW17749   2.366   8.434   6.718  0.1018  0.3583 -0.3718
 5724SOL    HW117750   2.446   8.482   6.739  1.6174 -1.5397 -1.5057
 5724SOL    HW217751   2.390   8.342   6.727 -1.5330 -0.3113 -2.1008
 5725SOL     OW17752   4.897   1.694   4.171 -0.6759 -0.1443 -0.0902
 5725SOL    HW117753   4.980   1.740   4.178 -1.4867  1.5941 -1.2905
 5725SOL    HW217754   4.891   1.667   4.079 -1.6932  0.3086 -0.1757
 5726SOL     OW17755   7.766   0.362   5.472 -0.2906 -0.0487 -0.6712
 5726SOL    HW117756   7.717   0.285   5.497 -1.0824  0.1585 -1.5261
 5726SOL    HW217757   7.805   0.340   5.387  0.9992 -0.1616 -0.0736
 5727SOL     OW17758   0.786   4.458   5.716  0.3176 -0.5225 -0.0659
 5727SOL    HW117759   0.707   4.446   5.769  0.5481 -1.9593 -0.0043
 5727SOL    HW217760   0.802   4.372   5.677  1.8944 -0.2982 -0.0076
 5728SOL     OW17761   1.871   4.028   8.889  0.0191  0.3481 -0.2020
 5728SOL    HW117762   1.899   3.942   8.858 -0.6502  0.1755 -0.3546
 5728SOL    HW217763   1.943   4.059   8.944  0.6526  0.0854 -0.8711
 5729SOL     OW17764   6.666   5.736   4.005 -0.4217  0.3391  0.3573
 5729SOL    HW117765   6.584   5.687   3.997 -0.7389  0.1670  3.4481
 5729SOL    HW217766   6.640   5.820   4.043  0.9013 -0.5789  3.6659
 5730SOL     OW17767   2.244   7.187   5.342  0.1086  0.2665 -0.1684
 5730SOL    HW117768   2.260   7.235   5.424  0.5027 -0.0550 -0.0577
 5730SOL    HW217769   2.172   7.235   5.301 -0.2625  0.2947  0.4827
 5731SOL     OW17770   8.530   2.789   4.526 -0.4911  0.0292 -0.4220
 5731SOL    HW117771   8.458   2.826   4.577  0.1849 -1.6344  1.9073
 5731SOL    HW217772   8.491   2.715   4.480 -0.7823  0.6313 -1.1580
 5732SOL     OW17773   2.428   1.331   6.425 -0.3268 -0.3808 -0.1100
 5732SOL    HW117774   2.458   1.389   6.495  0.5090  0.4802 -1.1359
 5732SOL    HW217775   2.415   1.246   6.467  0.5224  0.0183  1.0019
 5733SOL     OW17776   2.071   6.889   2.301  0.0759  0.4704 -0.4491
 5733SOL    HW117777   2.020   6.808   2.291  0.0854  0.4910 -0.6826
 5733SOL    HW217778   2.048   6.922   2.388 -0.5315  0.6316 -0.6632
 5734SOL     OW17779   8.633   5.660   4.838 -0.0586 -0.2339  0.0556
 5734SOL    HW117780   8.568   5.731   4.835 -1.2416 -1.1755  1.7667
 5734SOL    HW217781   8.713   5.703   4.869 -0.5136  0.5186  0.2239
 5735SOL     OW17782   5.608   0.958   2.663  0.5037 -0.3456 -0.8287
 5735SOL    HW117783   5.680   0.948   2.601 -0.3424  0.1499 -1.9233
 5735SOL    HW217784   5.611   0.878   2.717  1.9435 -0.2616 -0.7446
 5736SOL     OW17785   3.964   7.822   1.091 -0.4241 -0.1151 -0.0215
 5736SOL    HW117786   4.053   7.820   1.057 -0.2868 -2.0423  0.3700
 5736SOL    HW217787   3.965   7.763   1.166 -2.2763 -1.0021 -0.6477
 5737SOL     OW17788   2.024   2.494   8.722  0.5006  0.0385 -0.4857
 5737SOL    HW117789   1.982   2.565   8.769  0.5357 -0.3117  0.0898
 5737SOL    HW217790   2.113   2.526   8.704  0.0487  0.7139 -1.5660
 5738SOL     OW17791   4.129   9.649   2.118  0.4896  0.2507  0.3193
 5738SOL    HW117792   4.046   9.614   2.151  0.1098  0.2149 -0.6419
 5738SOL    HW217793   4.105   9.724   2.065  0.9488 -0.4865 -0.9826
 5739SOL     OW17794   7.607   3.990   8.109  0.3485 -0.1776 -0.0018
 5739SOL    HW117795   7.530   3.936   8.093  1.7676 -1.7390 -2.1805
 5739SOL    HW217796   7.586   4.075   8.071 -0.1392 -0.7560 -1.0711
 5740SOL     OW17797   8.402   1.896   6.225  0.3357  0.4246  0.4231
 5740SOL    HW117798   8.328   1.932   6.274  1.6552  0.9893  2.1474
 5740SOL    HW217799   8.445   1.838   6.288  1.3261  0.0703 -0.5532
 5741SOL     OW17800   2.258   9.750   8.788  0.3159 -0.5351  0.4979
 5741SOL    HW117801   2.283   9.751   8.695 -1.9463  1.3291 -0.1762
 5741SOL    HW217802   2.314   9.815   8.829  1.4057 -1.4472  0.5024
 5742SOL     OW17803   8.857   6.774   3.885  0.5683 -0.3158  0.5021
 5742SOL    HW117804   8.807   6.752   3.963 -0.0623  0.2520  0.2681
 5742SOL    HW217805   8.947   6.752   3.907  0.2527 -1.1271  1.0145
 5743SOL     OW17806   9.774   9.059   1.869  0.0881 -0.2315  0.1180
 5743SOL    HW117807   9.766   8.964   1.864 -0.4943 -0.1974  0.3250
 5743SOL    HW217808   9.832   9.075   1.944 -0.2080 -0.4078  0.3842
 5744SOL     OW17809   5.387   7.369   9.194 -0.0703 -0.1426 -0.2577
 5744SOL    HW117810   5.309   7.421   9.177 -0.0974 -1.0003 -3.3080
 5744SOL    HW217811   5.400   7.375   9.289 -1.9051  2.7046 -0.0834
 5745SOL     OW17812   0.867   8.410   4.468 -0.0380 -0.2273  0.8466
 5745SOL    HW117813   0.837   8.480   4.526 -0.2870 -1.1052  1.8263
 5745SOL    HW217814   0.844   8.439   4.380  1.0465  1.5030  1.0796
 5746SOL     OW17815   2.233   7.437   8.835  0.2977 -0.3088  0.4064
 5746SOL    HW117816   2.145   7.444   8.799  0.4960  0.0499 -0.0294
 5746SOL    HW217817   2.263   7.350   8.810  0.2399 -0.2533  0.1354
 5747SOL     OW17818   8.173   2.703   8.182 -0.3907  0.0937 -0.2456
 5747SOL    HW117819   8.161   2.791   8.148  0.4255  0.1937 -0.2743
 5747SOL    HW217820   8.267   2.690   8.185 -0.5030 -0.8942 -0.5292
 5748SOL     OW17821   5.554   1.044   6.225 -0.3857  0.0830 -0.2850
 5748SOL    HW117822   5.547   0.954   6.258 -0.5355  0.2815  0.2400
 5748SOL    HW217823   5.469   1.084   6.247 -0.0976  0.5299  0.0397
 5749SOL     OW17824   9.460   4.216   7.822  0.0884 -0.5164 -0.1454
 5749SOL    HW117825   9.517   4.140   7.817  0.6464 -0.0386 -2.0294
 5749SOL    HW217826   9.432   4.220   7.914  1.8299 -1.6611  0.4775
 5750SOL     OW17827   6.790   6.745   4.319 -0.3491  1.0684  0.1739
 5750SOL    HW117828   6.793   6.668   4.262  2.1405  0.2671  1.2174
 5750SOL    HW217829   6.817   6.818   4.263 -1.7415  1.0393 -0.5737
 5751SOL     OW17830   6.177   2.621   2.762 -0.1277  0.3039 -0.2935
 5751SOL    HW117831   6.270   2.606   2.779 -0.6489 -1.8361  1.0830
 5751SOL    HW217832   6.146   2.665   2.841 -0.8457 -1.7996  0.6591
 5752SOL     OW17833   6.909   2.915   6.834  0.2557  0.2291  0.4652
 5752SOL    HW117834   6.857   2.865   6.896  0.4131  1.4919  1.6680
 5752SOL    HW217835   6.850   2.932   6.761 -0.1963 -0.5648  0.6338
 5753SOL     OW17836   3.482   5.859   2.184 -0.1123  0.6374  0.1915
 5753SOL    HW117837   3.542   5.925   2.219  0.2469  0.5508 -0.2572
 5753SOL    HW217838   3.434   5.828   2.261  2.3244 -1.2792  1.0545
 5754SOL     OW17839   4.379   7.818   6.910 -0.3148 -0.3051 -0.5434
 5754SOL    HW117840   4.346   7.905   6.890  1.9400  0.0075 -3.6279
 5754SOL    HW217841   4.464   7.833   6.951 -0.3945 -1.0698 -0.0759
 5755SOL     OW17842   9.358   4.071   0.546  0.1995  0.0512  0.5515
 5755SOL    HW117843   9.425   4.139   0.540 -1.0181  1.2228 -0.6441
 5755SOL    HW217844   9.308   4.093   0.625  0.4108 -0.0472  0.7135
 5756SOL     OW17845   4.457   1.454   2.858 -0.6889  0.3555 -0.4817
 5756SOL    HW117846   4.405   1.374   2.866  1.3177 -0.8680  1.6246
 5756SOL    HW217847   4.469   1.484   2.948  1.7294  0.8469 -0.8819
 5757SOL     OW17848   0.579   4.930   0.387  0.1337 -0.3380  0.1431
 5757SOL    HW117849   0.578   4.840   0.356  0.7017 -0.1549 -0.4284
 5757SOL    HW217850   0.507   4.973   0.341 -1.5091 -0.9745  1.9667
 5758SOL     OW17851   1.532   5.118   6.440  0.2079 -0.2892 -0.5154
 5758SOL    HW117852   1.440   5.131   6.420  0.0128 -1.9882 -0.8868
 5758SOL    HW217853   1.538   5.026   6.468  2.0152 -0.7201 -2.0710
 5759SOL     OW17854   3.674   4.551   8.072  0.2997  0.1134  0.3194
 5759SOL    HW117855   3.718   4.630   8.104 -1.8141  1.8253 -0.7391
 5759SOL    HW217856   3.642   4.575   7.985  0.6775 -2.3728 -0.5856
 5760SOL     OW17857   8.594   8.237   5.584  0.0261 -0.1259  0.1525
 5760SOL    HW117858   8.598   8.150   5.543  0.3532 -0.3581  0.6590
 5760SOL    HW217859   8.525   8.229   5.650  1.0264 -0.4548  1.1937
 5761SOL     OW17860   8.232   1.275   9.320  0.1948  0.2400  0.1508
 5761SOL    HW117861   8.138   1.264   9.312  0.2245 -1.0920  1.3752
 5761SOL    HW217862   8.267   1.186   9.330  1.8693  0.4436 -2.7489
 5762SOL     OW17863   9.553   2.091   7.835  0.2717  0.0345  0.2422
 5762SOL    HW117864   9.597   2.093   7.750  1.6215 -0.9361  0.8777
 5762SOL    HW217865   9.465   2.125   7.817  0.9075  1.0188 -1.2912
 5763SOL     OW17866   5.102   7.010   6.380 -0.4084  0.3626 -0.4109
 5763SOL    HW117867   5.144   7.095   6.369 -1.9767  1.2084 -0.2071
 5763SOL    HW217868   5.160   6.962   6.438 -0.2461  1.8753  0.7569
 5764SOL     OW17869   6.653   1.077   8.886 -0.7285  0.0028  0.2414
 5764SOL    HW117870   6.614   1.066   8.800  0.3480  0.4492 -0.3195
 5764SOL    HW217871   6.581   1.105   8.942 -0.9797  2.2312 -1.0661
 5765SOL     OW17872   2.303   3.263   6.154 -0.4348  0.8490 -0.3937
 5765SOL    HW117873   2.272   3.189   6.208 -0.4427  1.1035 -0.0487
 5765SOL    HW217874   2.397   3.266   6.170 -0.2563  0.2117 -1.2762
 5766SOL     OW17875   8.152   7.506   1.192  0.4551 -0.3278 -0.1430
 5766SOL    HW117876   8.179   7.435   1.251  1.3072  1.1988  1.3616
 5766SOL    HW217877   8.142   7.463   1.107  0.0535 -2.4287  0.8878
 5767SOL     OW17878   2.150   2.907   0.298  0.0043  0.7189  0.1370
 5767SOL    HW117879   2.181   2.828   0.342 -1.6432  1.1472  2.2132
 5767SOL    HW217880   2.224   2.967   0.303 -0.0331  0.6685  2.2083
 5768SOL     OW17881   3.785   2.058   2.057 -0.2767 -0.5149 -0.1853
 5768SOL    HW117882   3.715   2.122   2.069  0.9601  0.5839  1.6332
 5768SOL    HW217883   3.788   2.043   1.962 -0.2409  2.5815 -0.7706
 5769SOL     OW17884   2.355   5.198   3.070  0.4250  0.4704  0.6915
 5769SOL    HW117885   2.261   5.196   3.055  0.5647  1.2678 -0.3214
 5769SOL    HW217886   2.394   5.206   2.983  1.4605 -0.4429  1.0458
 5770SOL     OW17887   0.698   0.026   0.356 -0.2873 -0.6433  0.6691
 5770SOL    HW117888   0.637  -0.009   0.291 -1.4067  0.2325  1.2182
 5770SOL    HW217889   0.656   0.105   0.389  1.9687  1.0315 -0.2136
 5771SOL     OW17890   8.701   0.952   1.323  0.4406 -0.9024  0.1350
 5771SOL    HW117891   8.656   1.019   1.373 -1.0046  0.6480 -2.9488
 5771SOL    HW217892   8.644   0.875   1.329 -0.4484 -0.2911 -0.2243
 5772SOL     OW17893   8.509   3.919   0.694 -1.1620 -0.0517  0.0798
 5772SOL    HW117894   8.586   3.971   0.714 -0.9329 -0.2077 -0.3842
 5772SOL    HW217895   8.437   3.982   0.692 -1.0290  0.1120  0.3767
 5773SOL     OW17896   8.535   7.741   5.496 -0.1221  0.8140  0.1838
 5773SOL    HW117897   8.475   7.708   5.429  0.5410  0.5788 -0.3088
 5773SOL    HW217898   8.592   7.667   5.516 -1.7254  0.1360  2.7220
 5774SOL     OW17899   3.735   7.921   9.069 -0.0382  0.4362 -0.1730
 5774SOL    HW117900   3.746   8.010   9.103 -0.3873  0.3187  0.2566
 5774SOL    HW217901   3.640   7.913   9.053 -0.0688 -0.0132  0.2225
 5775SOL     OW17902   0.431   6.992   1.543 -0.2329 -0.2400  0.1835
 5775SOL    HW117903   0.443   6.988   1.448  0.7432 -0.4944  0.3092
 5775SOL    HW217904   0.508   7.039   1.575  1.2036 -3.0407  1.1482
 5776SOL     OW17905   0.892   3.374   4.192  0.7850 -0.4433 -0.3988
 5776SOL    HW117906   0.932   3.294   4.226  1.2928 -0.7280 -1.6188
 5776SOL    HW217907   0.806   3.345   4.159  0.0870 -0.0789  1.0165
 5777SOL     OW17908   1.316   6.382   4.630  0.0951 -0.8789 -0.3521
 5777SOL    HW117909   1.380   6.450   4.650 -1.7279  1.3427 -1.4763
 5777SOL    HW217910   1.329   6.364   4.537 -1.4202  0.2793 -0.8296
 5778SOL     OW17911   3.523   8.568   9.251 -0.3702  0.3847 -0.6560
 5778SOL    HW117912   3.459   8.610   9.308 -0.6581 -2.1430  1.0929
 5778SOL    HW217913   3.480   8.562   9.166 -2.5949 -1.2728  0.4714
 5779SOL     OW17914   1.675   0.151   8.972 -0.2415 -0.1964  0.0678
 5779SOL    HW117915   1.724   0.223   8.933 -0.8267  0.0310 -0.2563
 5779SOL    HW217916   1.587   0.187   8.986 -1.1286 -1.4466 -1.9583
 5780SOL     OW17917  -0.008   6.317   2.609 -0.1275 -0.5043 -0.5662
 5780SOL    HW117918   0.018   6.367   2.531 -1.2300  1.3803  0.1961
 5780SOL    HW217919   0.017   6.374   2.682  2.4812 -2.9481  0.6359
 5781SOL     OW17920   2.308   0.832   5.351 -0.6304  0.3081 -0.1842
 5781SOL    HW117921   2.367   0.793   5.287  1.6590  0.0040  1.9532
 5781SOL    HW217922   2.346   0.918   5.370 -2.1031  1.0104 -0.2769
 5782SOL     OW17923   7.669   6.780   3.438 -0.1046 -0.6345  0.3473
 5782SOL    HW117924   7.673   6.831   3.357 -1.5754 -0.7141  0.2137
 5782SOL    HW217925   7.722   6.702   3.419 -1.2633 -1.1528 -0.9071
 5783SOL     OW17926   3.245   7.005   8.746  0.2070  0.9075  0.4441
 5783SOL    HW117927   3.159   6.967   8.727  0.5193 -0.1770  1.0853
 5783SOL    HW217928   3.228   7.073   8.811 -0.3372  1.7606 -0.5556
 5784SOL     OW17929   5.957   0.614   3.054  0.4725 -0.1209 -0.4875
 5784SOL    HW117930   6.050   0.620   3.033  0.2975  0.4175 -1.1524
 5784SOL    HW217931   5.925   0.704   3.047 -0.6499 -0.6172 -2.9942
 5785SOL     OW17932   7.267   4.657   9.471  0.1043 -0.1427  0.1912
 5785SOL    HW117933   7.334   4.712   9.513 -0.9630  0.3037  1.4015
 5785SOL    HW217934   7.262   4.690   9.381  2.2113 -0.8867 -0.2543
 5786SOL     OW17935   5.009   3.784   4.170 -0.3911  0.3425 -0.2417
 5786SOL    HW117936   5.079   3.822   4.118  1.7589 -1.6547  1.0092
 5786SOL    HW217937   5.002   3.694   4.139 -1.2929  0.0411  0.7551
 5787SOL     OW17938   6.151   5.143   3.523 -0.0954 -0.4451  0.4397
 5787SOL    HW117939   6.133   5.152   3.429 -1.4411  0.5123  0.7557
 5787SOL    HW217940   6.212   5.214   3.543 -2.6085  1.7380  0.9198
 5788SOL     OW17941   6.845   3.703   0.093  0.4802 -0.2977  0.3587
 5788SOL    HW117942   6.779   3.748   0.040 -0.7925 -1.7717  0.6422
 5788SOL    HW217943   6.823   3.727   0.184  0.3563 -0.7487  0.4504
 5789SOL     OW17944   1.524   1.311   8.363  0.5518 -0.5854  0.0414
 5789SOL    HW117945   1.507   1.393   8.411  1.9022 -1.4275  2.0825
 5789SOL    HW217946   1.612   1.323   8.327  0.2232 -0.6412 -0.7859
 5790SOL     OW17947   5.447   9.781   9.895 -0.3992  0.0818 -0.0424
 5790SOL    HW117948   5.396   9.852   9.934  0.6510  2.7031 -2.9904
 5790SOL    HW217949   5.524   9.773   9.951 -1.8726 -0.8351  1.9402
 5791SOL     OW17950   1.135   0.265   4.501  0.0722 -0.4337 -0.1453
 5791SOL    HW117951   1.059   0.313   4.469  0.0581 -1.0626 -1.0907
 5791SOL    HW217952   1.200   0.333   4.521 -0.8610  0.1332  1.0571
 5792SOL     OW17953   0.198   2.402   9.081  0.3536 -0.2908  0.3588
 5792SOL    HW117954   0.260   2.469   9.054  1.4483 -1.5298 -0.2958
 5792SOL    HW217955   0.252   2.328   9.108 -0.8152 -1.4328 -0.3051
 5793SOL     OW17956   6.819   5.752   8.413  0.0164  0.3311 -0.1774
 5793SOL    HW117957   6.734   5.709   8.410  0.1756 -0.0807  0.9265
 5793SOL    HW217958   6.881   5.682   8.435  0.4152  0.9197  0.6170
 5794SOL     OW17959   0.309   6.550   8.328 -0.2354  0.6715 -0.5732
 5794SOL    HW117960   0.358   6.497   8.391  1.1681  1.4330 -0.9810
 5794SOL    HW217961   0.227   6.502   8.316  0.5057 -0.8030 -0.0742
 5795SOL     OW17962   8.534   9.845   3.078 -0.1690  0.2066  0.2979
 5795SOL    HW117963   8.615   9.864   3.126 -0.6246 -0.7421  1.5280
 5795SOL    HW217964   8.485   9.927   3.079 -0.1949  0.2021  1.5883
 5796SOL     OW17965   5.658   6.456   5.391  0.0637  0.1482  0.2946
 5796SOL    HW117966   5.705   6.524   5.439  1.6366  1.3277 -2.6279
 5796SOL    HW217967   5.567   6.485   5.388  0.5620  1.7472 -0.1853
 5797SOL     OW17968   5.515   7.130   4.061  0.4726 -0.3657 -0.4297
 5797SOL    HW117969   5.486   7.045   4.026 -1.6146  0.3991 -0.6839
 5797SOL    HW217970   5.543   7.110   4.150 -0.6129 -1.2346 -0.2572
 5798SOL     OW17971   6.774   6.484   3.591 -0.2152 -0.0283 -0.0854
 5798SOL    HW117972   6.770   6.389   3.577  0.6181 -0.2581  1.1031
 5798SOL    HW217973   6.701   6.502   3.650  1.0237 -0.3338  1.6082
 5799SOL     OW17974   2.908   9.264   2.550  0.1217 -0.3382 -0.1043
 5799SOL    HW117975   2.815   9.276   2.534  0.6745  1.4015 -2.6983
 5799SOL    HW217976   2.924   9.171   2.531 -0.7136 -0.1159 -2.1603
 5800SOL     OW17977   5.878   1.273   5.023 -0.1454  0.0604 -0.2332
 5800SOL    HW117978   5.819   1.263   4.948  0.4637  1.9554 -1.0104
 5800SOL    HW217979   5.841   1.215   5.090 -0.1071 -2.5689 -2.3099
 5801SOL     OW17980   3.273   6.502   6.200 -0.4750 -0.1406 -0.3884
 5801SOL    HW117981   3.283   6.455   6.283  1.7873  2.2612  0.8394
 5801SOL    HW217982   3.344   6.469   6.146 -1.4553 -1.1085 -1.1292
 5802SOL     OW17983   5.887   8.755   2.922  0.3832  0.3383  0.3162
 5802SOL    HW117984   5.901   8.806   2.842  1.9314  0.5077  0.6667
 5802SOL    HW217985   5.838   8.814   2.979 -0.9328  0.1434 -0.5398
 5803SOL     OW17986   2.428   9.462   8.850 -0.6977 -0.0488  0.2158
 5803SOL    HW117987   2.410   9.552   8.822 -0.9146 -0.5273 -1.2300
 5803SOL    HW217988   2.357   9.441   8.910  0.1389  1.2244  1.7363
 5804SOL     OW17989   9.474   3.124   4.013 -0.5521 -0.1668  0.4998
 5804SOL    HW117990   9.397   3.151   4.064  0.0519  0.8287  0.9247
 5804SOL    HW217991   9.494   3.201   3.959  0.7505 -0.0476  1.1383
 5805SOL     OW17992   0.247   5.627   7.044  0.5346 -0.6707 -0.2394
 5805SOL    HW117993   0.264   5.541   7.081  1.5031 -0.8067 -0.9425
 5805SOL    HW217994   0.318   5.640   6.980  0.3322  0.5831 -0.2406
 5806SOL     OW17995   6.877   9.623   5.258  0.3021 -0.4987 -0.2530
 5806SOL    HW117996   6.850   9.694   5.200  0.8476 -1.5937 -1.9355
 5806SOL    HW217997   6.846   9.543   5.214 -1.3786 -1.2812  2.1762
 5807SOL     OW17998   8.994   1.225   2.498 -0.0510  0.4426 -0.1420
 5807SOL    HW117999   8.947   1.251   2.419 -1.7024 -0.5960  0.4353
 5807SOL    HW218000   9.038   1.304   2.528  1.7544  0.5452 -2.8088
 5808SOL     OW18001   4.614   2.327   3.668  0.2230  0.4248 -0.1281
 5808SOL    HW118002   4.559   2.390   3.621 -0.5307  1.1801  1.6959
 5808SOL    HW218003   4.659   2.278   3.598 -1.3911  0.9965 -1.6364
 5809SOL     OW18004   9.009   2.637   3.144  0.7362 -0.2142  0.4368
 5809SOL    HW118005   8.973   2.725   3.139  1.3003  0.0080  0.1937
 5809SOL    HW218006   8.965   2.598   3.220 -0.7720 -0.3209 -0.4567
 5810SOL     OW18007   3.537   0.908   6.278 -0.1077  0.2839 -0.3551
 5810SOL    HW118008   3.532   0.835   6.339 -0.4976 -2.2033 -3.1116
 5810SOL    HW218009   3.451   0.948   6.281 -0.3126 -0.1933  0.2843
 5811SOL     OW18010   3.316   1.871   3.155  0.1528  0.0100  0.6404
 5811SOL    HW118011   3.324   1.793   3.101 -0.1400 -0.5740  1.4102
 5811SOL    HW218012   3.231   1.862   3.198 -1.1790  2.1301 -1.3314
 5812SOL     OW18013   4.409   3.242   8.611 -0.1342 -0.2505  0.4214
 5812SOL    HW118014   4.392   3.328   8.573  1.3350 -0.0781  0.0665
 5812SOL    HW218015   4.439   3.189   8.537  1.9542 -0.1491  1.1312
 5813SOL     OW18016   3.702   0.967   2.056  0.1976  0.0384  0.1724
 5813SOL    HW118017   3.641   0.974   2.129  0.5722 -0.4384  0.5304
 5813SOL    HW218018   3.761   0.895   2.080  0.7673  0.3536 -0.2699
 5814SOL     OW18019   9.001   9.820   4.156 -0.5770  0.5987  0.2951
 5814SOL    HW118020   8.964   9.812   4.068 -0.3186  0.6774  0.1768
 5814SOL    HW218021   8.946   9.764   4.211 -0.3033 -0.0294 -0.0531
 5815SOL     OW18022   2.702   5.756   4.221  0.2909 -0.1996  0.5954
 5815SOL    HW118023   2.616   5.729   4.254 -1.1556  2.3103 -0.8451
 5815SOL    HW218024   2.743   5.674   4.193 -3.4308 -1.2668 -2.7086
 5816SOL     OW18025   2.397   7.212   1.421  0.1006 -0.1900  0.8749
 5816SOL    HW118026   2.400   7.307   1.436 -1.0539 -0.0741  0.4438
 5816SOL    HW218027   2.456   7.176   1.487  1.9036  0.9358 -0.0607
 5817SOL     OW18028   7.662   5.339   7.640  0.5588 -0.0599 -0.3371
 5817SOL    HW118029   7.681   5.356   7.547 -1.9020 -0.0134 -0.8923
 5817SOL    HW218030   7.574   5.372   7.653  0.8133 -0.1625  2.0401
 5818SOL     OW18031   1.719   1.398   2.660  0.5267  0.3895  0.0725
 5818SOL    HW118032   1.719   1.469   2.597  1.2611  0.6692  0.3725
 5818SOL    HW218033   1.673   1.433   2.737 -0.3490  0.0560 -0.2847
 5819SOL     OW18034   9.803   7.073   8.753 -0.6124  0.6398  0.1167
 5819SOL    HW118035   9.766   6.985   8.749  0.3978  0.2224 -0.6825
 5819SOL    HW218036   9.885   7.066   8.704 -1.0144  2.2676 -0.8500
 5820SOL     OW18037   6.556   2.679   8.219  0.1410  0.0370  0.0589
 5820SOL    HW118038   6.555   2.732   8.139  1.2018  0.7186  0.4782
 5820SOL    HW218039   6.469   2.693   8.257 -1.2782 -2.1220 -2.0856
 5821SOL     OW18040   2.314   3.305   2.454  0.1164  0.0988 -0.2596
 5821SOL    HW118041   2.406   3.297   2.432 -0.1093 -0.8757 -0.8922
 5821SOL    HW218042   2.290   3.393   2.426  1.1657  0.8926  1.1708
 5822SOL     OW18043   7.527   2.148   3.284  0.1844  0.1846 -0.2155
 5822SOL    HW118044   7.525   2.224   3.342  3.9032 -1.1872  2.0821
 5822SOL    HW218045   7.613   2.152   3.243 -0.6692 -1.2834 -2.2937
 5823SOL     OW18046   7.309   4.043   5.736  0.4820  0.2807 -0.2091
 5823SOL    HW118047   7.284   3.984   5.807 -1.0016  1.3794  0.2313
 5823SOL    HW218048   7.282   4.129   5.766 -0.2421  0.7714 -2.1295
 5824SOL     OW18049   3.323   4.211   9.855 -0.5874 -0.6059 -0.5234
 5824SOL    HW118050   3.322   4.234   9.948 -0.1476  1.5892 -1.0061
 5824SOL    HW218051   3.254   4.264   9.817  1.2287  0.8972 -1.9137
 5825SOL     OW18052   9.792   1.623   5.393  0.5138 -0.2321  0.0249
 5825SOL    HW118053   9.791   1.708   5.436  0.2455  1.0010 -2.2589
 5825SOL    HW218054   9.700   1.607   5.370  0.7290 -0.5384 -0.6428
 5826SOL     OW18055   1.925   5.373   3.662 -0.2968 -0.4578  0.8458
 5826SOL    HW118056   1.988   5.334   3.602 -0.9176 -0.4835  0.2052
 5826SOL    HW218057   1.879   5.298   3.699  1.3949 -0.5958  2.8832
 5827SOL     OW18058   3.999   3.742   9.937 -0.5839  0.2571  0.5518
 5827SOL    HW118059   3.961   3.660   9.906 -1.7813  0.9272  0.1713
 5827SOL    HW218060   4.073   3.715   9.992 -1.0493 -1.0689  0.5677
 5828SOL     OW18061   5.426   9.002   7.044  0.5029 -0.3710 -0.1681
 5828SOL    HW118062   5.427   9.026   7.136  0.2018 -0.5299 -0.1217
 5828SOL    HW218063   5.509   9.035   7.009 -0.0815  1.1476 -0.2096
 5829SOL     OW18064   6.711   6.327   8.276 -0.1867  0.4733  0.0771
 5829SOL    HW118065   6.652   6.344   8.202 -2.2641 -1.0194  1.2926
 5829SOL    HW218066   6.756   6.246   8.252  0.5367  0.9920 -0.3453
 5830SOL     OW18067   0.422   2.634   2.315  0.1410 -0.0044  0.4079
 5830SOL    HW118068   0.358   2.568   2.287  0.6226  0.5345 -2.2818
 5830SOL    HW218069   0.392   2.715   2.273  2.1868  0.4002 -0.3777
 5831SOL     OW18070   3.283   1.619   2.373 -0.0133  0.0933 -0.5003
 5831SOL    HW118071   3.272   1.613   2.278 -0.4876  1.0212 -0.5186
 5831SOL    HW218072   3.290   1.713   2.390  1.4213 -0.1268  0.2504
 5832SOL     OW18073   6.184   5.532   4.153 -0.9510  0.2371  0.3369
 5832SOL    HW118074   6.178   5.453   4.099  0.1084  0.4548 -0.1202
 5832SOL    HW218075   6.170   5.604   4.093  2.1552  0.5898 -0.1228
 5833SOL     OW18076   8.211   4.682   2.575 -0.1217 -0.1033  0.1840
 5833SOL    HW118077   8.229   4.770   2.541  0.7637  0.2109  1.4002
 5833SOL    HW218078   8.237   4.686   2.667 -0.6739 -1.4661  0.4265
 5834SOL     OW18079   1.555   6.631   0.774 -0.4077 -0.1224 -0.1833
 5834SOL    HW118080   1.574   6.538   0.761  1.3657 -0.3381  2.9049
 5834SOL    HW218081   1.626   6.662   0.830 -1.3283  2.9610 -0.5396
 5835SOL     OW18082   5.646   9.390   6.255 -0.7995 -0.0536  0.3007
 5835SOL    HW118083   5.621   9.424   6.169  0.5807  1.5581  0.4802
 5835SOL    HW218084   5.718   9.329   6.237  0.2249  1.0914  0.3389
 5836SOL     OW18085   0.360   6.154   8.157 -0.2123 -0.5764 -0.3360
 5836SOL    HW118086   0.288   6.105   8.197  0.5719 -1.4771  0.0206
 5836SOL    HW218087   0.435   6.094   8.162  0.5161  0.2708 -0.8610
 5837SOL     OW18088   3.906   0.793   6.534  0.0743 -0.7303  0.4229
 5837SOL    HW118089   3.890   0.867   6.592  1.0632 -2.0020  2.4423
 5837SOL    HW218090   3.982   0.818   6.482  0.4010 -0.3215  1.0867
 5838SOL     OW18091   3.762   8.515   9.123 -0.9975  0.3849  0.1890
 5838SOL    HW118092   3.844   8.485   9.162 -1.0686 -1.6262 -1.0930
 5838SOL    HW218093   3.696   8.456   9.159 -1.6544  1.0188  0.0398
 5839SOL     OW18094   0.415   0.798   0.231 -0.1042  0.2469  0.3307
 5839SOL    HW118095   0.373   0.881   0.210 -1.5148  0.0723  2.2484
 5839SOL    HW218096   0.502   0.822   0.262 -0.6466  1.0671  1.2615
 5840SOL     OW18097   5.404   3.650   4.094  0.3590  0.2139  1.1494
 5840SOL    HW118098   5.499   3.665   4.097  0.1662  1.4651  1.8547
 5840SOL    HW218099   5.381   3.659   4.002  1.0251 -0.8683  0.8595
 5841SOL     OW18100   6.168   6.550   2.175  0.5859 -0.1947 -0.3778
 5841SOL    HW118101   6.128   6.595   2.250  1.5474  0.5448 -0.2956
 5841SOL    HW218102   6.169   6.458   2.201 -0.3081 -0.1171 -0.0409
 5842SOL     OW18103   0.631   8.878   7.718 -0.2410 -0.3776  0.0174
 5842SOL    HW118104   0.584   8.829   7.785 -0.9290 -1.4261 -1.1918
 5842SOL    HW218105   0.566   8.935   7.679  0.5444  1.5602  1.3796
 5843SOL     OW18106   3.481   8.433   1.320  0.0302 -0.1595 -0.1940
 5843SOL    HW118107   3.444   8.501   1.377 -0.4564 -1.0661  0.6114
 5843SOL    HW218108   3.575   8.433   1.340 -0.2129 -0.8276  1.0239
 5844SOL     OW18109   1.051   3.056   7.881  0.3277 -0.0270  0.0790
 5844SOL    HW118110   1.101   3.095   7.953 -1.2683  0.8155  0.7826
 5844SOL    HW218111   1.018   3.130   7.831  1.0511 -0.6000 -1.3073
 5845SOL     OW18112   7.569   4.356   6.001  0.2155  0.2429  0.0658
 5845SOL    HW118113   7.500   4.296   6.030  0.0730  0.8198  0.9682
 5845SOL    HW218114   7.522   4.432   5.966  0.3977  0.0781 -0.5518
 5846SOL     OW18115   9.878   4.416   7.061  0.7246  0.0843 -0.1440
 5846SOL    HW118116   9.817   4.356   7.019  0.5417 -0.7917  1.3098
 5846SOL    HW218117   9.898   4.482   6.994 -1.9267  0.5009 -0.6148
 5847SOL     OW18118   7.237   7.687   3.205  0.3490 -0.3280  0.0231
 5847SOL    HW118119   7.320   7.734   3.211 -0.5383  1.4047 -0.5231
 5847SOL    HW218120   7.174   7.745   3.246 -0.8115 -1.0366 -0.6960
 5848SOL     OW18121   0.696   7.756   4.840 -0.1244 -0.6810 -0.0755
 5848SOL    HW118122   0.665   7.760   4.931 -0.6237 -1.4272 -0.2043
 5848SOL    HW218123   0.635   7.810   4.791  1.1417  1.1457  0.2756
 5849SOL     OW18124   9.658   1.080   5.095 -0.4251  0.2390  0.4388
 5849SOL    HW118125   9.568   1.112   5.103 -0.4868  0.7677 -1.7895
 5849SOL    HW218126   9.713   1.153   5.122 -0.6343  0.2956  0.7144
 5850SOL     OW18127   5.063   7.698   2.658 -0.6459 -0.0554  0.0681
 5850SOL    HW118128   5.034   7.725   2.570  0.4366 -0.2583 -0.3730
 5850SOL    HW218129   5.134   7.759   2.679  0.8028 -1.5582 -0.2899
 5851SOL     OW18130   1.354   6.785   5.378  0.2808 -0.5098 -0.6071
 5851SOL    HW118131   1.362   6.730   5.456 -0.8465 -0.6775 -0.6003
 5851SOL    HW218132   1.289   6.742   5.323 -0.7302  0.8425 -0.5433
 5852SOL     OW18133   5.017   5.822   3.655 -0.1271 -0.3042  0.4437
 5852SOL    HW118134   5.019   5.832   3.559 -0.3917  2.9863  0.6724
 5852SOL    HW218135   4.951   5.884   3.685 -0.3364 -1.5436  2.7823
 5853SOL     OW18136   0.700   4.695   1.774  0.0337 -0.4917 -0.3532
 5853SOL    HW118137   0.757   4.766   1.745 -0.1583 -0.0637  0.2997
 5853SOL    HW218138   0.724   4.681   1.866  0.7950 -1.9823 -0.7396
 5854SOL     OW18139   8.537   0.778   0.518 -0.3742 -0.5243 -0.4345
 5854SOL    HW118140   8.495   0.841   0.576 -2.2098 -0.1440 -2.0562
 5854SOL    HW218141   8.631   0.797   0.525 -0.6351  0.2371  1.4904
 5855SOL     OW18142   5.233   0.845   2.433  0.0174 -0.1057 -0.4211
 5855SOL    HW118143   5.141   0.870   2.434  0.1680  0.4552 -0.2120
 5855SOL    HW218144   5.265   0.868   2.521  0.3910 -0.1580 -0.5419
 5856SOL     OW18145   8.227   0.604   9.797 -0.8990  0.0749  0.5448
 5856SOL    HW118146   8.247   0.696   9.786  0.7346 -0.2317  0.7507
 5856SOL    HW218147   8.145   0.591   9.749 -0.6565  1.4221 -0.2677
 5857SOL     OW18148   7.162   6.927   1.526  0.0022 -0.2750 -0.4012
 5857SOL    HW118149   7.069   6.921   1.502  0.2508 -1.4945 -1.1627
 5857SOL    HW218150   7.201   6.848   1.489  1.0556 -0.5676  1.2448
 5858SOL     OW18151   5.387   9.624   3.140 -0.0602  0.1111  0.3175
 5858SOL    HW118152   5.393   9.641   3.046  1.0464 -0.9930  0.1597
 5858SOL    HW218153   5.374   9.529   3.146  0.9468  0.0166  1.2822
 5859SOL     OW18154   9.040   0.101   0.584 -0.3891  0.0427  0.2641
 5859SOL    HW118155   9.048   0.121   0.491  1.5299 -0.3073  0.3106
 5859SOL    HW218156   9.121   0.134   0.622 -0.1239 -1.8374  1.4363
 5860SOL     OW18157   6.504   8.192   3.506 -0.4835 -0.2570 -0.0922
 5860SOL    HW118158   6.441   8.263   3.500 -0.8698 -0.6688 -1.3371
 5860SOL    HW218159   6.587   8.235   3.530 -1.0542  0.3785  0.7975
 5861SOL     OW18160   0.934   4.299   2.893  0.0575 -0.0819  0.7561
 5861SOL    HW118161   1.022   4.265   2.906 -0.2918 -1.9526 -1.2100
 5861SOL    HW218162   0.946   4.374   2.834  0.3826  0.1825  1.1521
 5862SOL     OW18163   8.935   1.943   0.600 -0.1055  0.2484 -0.1968
 5862SOL    HW118164   8.989   1.970   0.526  0.6761 -0.8196 -0.0267
 5862SOL    HW218165   8.989   1.882   0.649 -1.3410 -0.5961  0.1729
 5863SOL     OW18166   8.613   1.860   2.846 -0.6644 -0.3807 -0.3406
 5863SOL    HW118167   8.573   1.934   2.800 -1.4550 -0.4875  0.1592
 5863SOL    HW218168   8.547   1.790   2.841 -1.4095  0.0407  2.1427
 5864SOL     OW18169   0.596   2.233   8.574  0.2243 -0.4207 -0.3377
 5864SOL    HW118170   0.688   2.212   8.590  0.6450  0.2845 -1.6583
 5864SOL    HW218171   0.550   2.196   8.648  1.3745 -2.2964 -0.5024
 5865SOL     OW18172   1.062   3.512   2.840  0.0913 -0.1827  0.1504
 5865SOL    HW118173   1.146   3.468   2.833  0.9709  1.3325  0.7098
 5865SOL    HW218174   1.034   3.496   2.930 -0.1656 -0.5889 -0.0008
 5866SOL     OW18175   5.671   2.558   8.746 -0.4835  0.4990 -0.2877
 5866SOL    HW118176   5.611   2.562   8.822 -0.1042  1.0627 -0.0108
 5866SOL    HW218177   5.757   2.544   8.785 -0.4629 -0.6405 -0.7070
 5867SOL     OW18178   2.620   6.306   5.470  0.4262 -0.0985  0.3182
 5867SOL    HW118179   2.637   6.381   5.413  0.9986 -1.1487 -0.9346
 5867SOL    HW218180   2.688   6.243   5.447  0.2214 -0.8535  1.6632
 5868SOL     OW18181   6.098   0.029   0.148  0.5953  0.1368  0.1239
 5868SOL    HW118182   6.032  -0.029   0.110  0.6387  0.0922  0.1171
 5868SOL    HW218183   6.107   0.100   0.084  2.5524 -1.2392 -1.2344
 5869SOL     OW18184   4.922   3.878   4.558  0.0890 -0.7882  0.1040
 5869SOL    HW118185   5.010   3.860   4.592 -0.1297 -0.9415  0.6017
 5869SOL    HW218186   4.868   3.887   4.637 -0.4617 -1.3021 -0.2122
 5870SOL     OW18187   8.402   6.768   6.680 -0.2255  0.7165  0.5663
 5870SOL    HW118188   8.355   6.822   6.616 -1.3824  1.4808  2.0081
 5870SOL    HW218189   8.438   6.831   6.742  1.3533  0.0228  0.4011
 5871SOL     OW18190   9.223   2.637   7.627 -0.1937 -0.2776  0.1687
 5871SOL    HW118191   9.131   2.662   7.615 -0.1838 -0.0703  0.5065
 5871SOL    HW218192   9.243   2.583   7.550 -0.3379  0.4011 -0.3557
 5872SOL     OW18193   2.785   5.419   5.917  0.9410  0.3209  0.0323
 5872SOL    HW118194   2.830   5.335   5.930  0.3907 -0.4092 -2.2670
 5872SOL    HW218195   2.788   5.461   6.002  2.5126 -1.4108  0.9120
 5873SOL     OW18196   2.257   3.419   0.746  0.3218 -0.2882  0.1023
 5873SOL    HW118197   2.315   3.403   0.820  1.7299  0.3619 -0.8125
 5873SOL    HW218198   2.316   3.432   0.671 -1.0117  0.2245 -0.9091
 5874SOL     OW18199   4.762   3.135   4.703  0.2165  0.3904  0.3725
 5874SOL    HW118200   4.831   3.084   4.744 -0.7993 -1.3208  0.0692
 5874SOL    HW218201   4.697   3.149   4.772 -1.0693 -1.7031 -0.3307
 5875SOL     OW18202   9.900   4.189   7.863 -0.1322 -0.0013 -0.0165
 5875SOL    HW118203   9.923   4.151   7.948  0.6598  0.4173 -0.0332
 5875SOL    HW218204   9.910   4.117   7.801 -3.3901 -1.1048  0.5480
 5876SOL     OW18205   5.932   3.489   9.427  0.1862  0.4026  0.6514
 5876SOL    HW118206   5.928   3.395   9.410 -1.4125  0.1805  2.0340
 5876SOL    HW218207   5.867   3.527   9.368  0.6687  0.6412  0.2604
 5877SOL     OW18208   1.722   9.888   6.579 -0.0580  0.1683 -0.2698
 5877SOL    HW118209   1.774   9.815   6.548  0.5370  0.3137  0.3712
 5877SOL    HW218210   1.774   9.927   6.649 -0.9097  0.4687  0.2103
 5878SOL     OW18211   6.597   7.758   3.022  0.9424  0.1150 -0.3514
 5878SOL    HW118212   6.538   7.758   2.946  1.9773  1.8843 -1.2359
 5878SOL    HW218213   6.549   7.805   3.090  0.5945 -0.1146 -0.4384
 5879SOL     OW18214   6.984   5.092   5.301 -0.1922 -0.0611  0.7382
 5879SOL    HW118215   7.045   5.030   5.341 -0.9900 -1.2310  0.1989
 5879SOL    HW218216   6.918   5.037   5.259 -1.1107  1.1674  0.5176
 5880SOL     OW18217   3.649   7.607   8.337  0.0034 -0.0344  0.4465
 5880SOL    HW118218   3.668   7.559   8.417 -1.9737  0.7569  1.4765
 5880SOL    HW218219   3.624   7.539   8.274  0.4950 -0.5931  0.8412
 5881SOL     OW18220   9.727   4.354   1.364 -0.0296 -0.0631  0.3078
 5881SOL    HW118221   9.746   4.287   1.299  1.5412  1.8544 -1.3568
 5881SOL    HW218222   9.652   4.402   1.328  1.2343  1.3973 -0.5036
 5882SOL     OW18223   9.053   4.203   9.071 -0.5221 -0.3956 -0.3130
 5882SOL    HW118224   9.136   4.187   9.115 -1.0346  1.9894  1.7003
 5882SOL    HW218225   8.990   4.148   9.117 -0.2225 -1.7882 -1.4888
 5883SOL     OW18226   3.836   1.736   0.281 -0.6099 -0.7273 -0.5357
 5883SOL    HW118227   3.826   1.792   0.357 -0.6593 -0.7337 -0.5370
 5883SOL    HW218228   3.783   1.659   0.301 -1.8768 -0.0683 -1.2106
 5884SOL     OW18229   5.264   6.027   9.197 -0.0321 -0.1985  0.0245
 5884SOL    HW118230   5.290   6.040   9.106  0.1472 -1.1816 -0.0720
 5884SOL    HW218231   5.194   5.961   9.193 -0.0631 -0.2063  0.5937
 5885SOL     OW18232   8.538   9.502   1.801 -0.2675 -0.0311  0.0120
 5885SOL    HW118233   8.557   9.567   1.868  0.4068  1.2908 -1.4153
 5885SOL    HW218234   8.505   9.426   1.850 -1.8399  1.6166  1.6842
 5886SOL     OW18235   4.519   2.498   4.044 -0.4339  0.6293 -0.3019
 5886SOL    HW118236   4.537   2.424   4.101 -1.8810 -0.3579 -1.0646
 5886SOL    HW218237   4.561   2.475   3.961  0.3977  1.3738 -0.0992
 5887SOL     OW18238   7.450   1.840   3.161  0.1069 -0.3759 -0.0847
 5887SOL    HW118239   7.442   1.868   3.070  1.2601  0.7669  0.1442
 5887SOL    HW218240   7.360   1.834   3.192 -0.2973 -0.6843 -1.2615
 5888SOL     OW18241   6.734   8.971   6.195 -0.1910 -0.2687  0.1599
 5888SOL    HW118242   6.756   8.974   6.102 -1.1324  1.0660 -0.0524
 5888SOL    HW218243   6.682   8.892   6.205 -1.9238  0.6747 -0.9199
 5889SOL     OW18244   9.401   5.516   2.672 -0.1822  0.5773  0.1194
 5889SOL    HW118245   9.381   5.470   2.753 -2.5584 -2.0175 -1.7702
 5889SOL    HW218246   9.461   5.458   2.625 -1.3191  0.5155 -1.2979
 5890SOL     OW18247   7.722   2.417   5.798 -0.4011  0.1537  0.3106
 5890SOL    HW118248   7.702   2.325   5.816  0.2397 -0.0136  0.2140
 5890SOL    HW218249   7.655   2.444   5.736 -0.4769 -0.3147  0.1782
 5891SOL     OW18250   1.417   6.171   6.542  0.0214  0.1278  0.4718
 5891SOL    HW118251   1.440   6.135   6.457  0.1722 -1.1825  1.0552
 5891SOL    HW218252   1.437   6.265   6.534 -0.1705  0.0641 -0.9892
 5892SOL     OW18253   7.763   5.990   8.060 -0.0010  0.5595 -0.2882
 5892SOL    HW118254   7.796   5.926   8.124 -0.1797  0.3731 -0.3854
 5892SOL    HW218255   7.803   6.073   8.088  0.5432  0.3368 -0.3943
 5893SOL     OW18256   1.809   5.475   8.966 -0.0900 -0.0759  0.4514
 5893SOL    HW118257   1.851   5.519   8.892  0.3011 -1.8007 -0.3946
 5893SOL    HW218258   1.737   5.534   8.990 -0.4847  0.3394 -1.5637
 5894SOL     OW18259   2.113   5.432   1.042  0.2819  0.3686  0.4070
 5894SOL    HW118260   2.166   5.386   1.107 -1.6044 -1.5192  0.7318
 5894SOL    HW218261   2.023   5.406   1.061 -0.5051  1.0750 -1.9289
 5895SOL     OW18262   0.463   8.388   4.072 -0.0748 -0.1609 -0.0616
 5895SOL    HW118263   0.397   8.390   4.002  0.3093  0.0150 -0.4201
 5895SOL    HW218264   0.513   8.468   4.059 -0.7331  0.4715  1.1311
 5896SOL     OW18265   8.607   2.172   4.785  0.5487  0.7144 -0.4818
 5896SOL    HW118266   8.648   2.123   4.857  1.1776  0.2321 -1.1506
 5896SOL    HW218267   8.566   2.105   4.731 -1.9967  1.2445  0.6440
 5897SOL     OW18268   8.011   3.680   4.682 -0.0634 -0.3782 -0.1181
 5897SOL    HW118269   7.989   3.639   4.766  0.1194  1.2445  0.7662
 5897SOL    HW218270   7.926   3.695   4.640 -0.1507 -1.2637 -0.2944
 5898SOL     OW18271   5.918   3.069   7.394 -0.3052  0.1927 -0.2986
 5898SOL    HW118272   5.878   2.997   7.442 -2.7235  0.7163 -1.3590
 5898SOL    HW218273   5.971   3.028   7.327  0.0462 -0.5450  0.4118
 5899SOL     OW18274   8.975   6.828   5.858 -0.5836 -0.4034  0.5111
 5899SOL    HW118275   8.945   6.754   5.805  1.0792 -0.2769 -0.6885
 5899SOL    HW218276   9.065   6.844   5.827 -1.4540  3.2470 -0.5464
 5900SOL     OW18277   7.119   5.183   0.855 -0.2042 -0.2733 -0.0016
 5900SOL    HW118278   7.157   5.101   0.825  0.6509 -0.3345  1.1596
 5900SOL    HW218279   7.195   5.236   0.881 -0.7133  1.0010 -0.9552
 5901SOL     OW18280   9.835   5.627   8.438 -0.4711 -0.1099  0.0721
 5901SOL    HW118281   9.855   5.570   8.512 -1.4426 -1.9063 -0.9889
 5901SOL    HW218282   9.770   5.689   8.472 -0.6144 -0.6579  0.8164
 5902SOL     OW18283   2.649  -0.000   2.396 -0.6803  0.2560  0.3651
 5902SOL    HW118284   2.735  -0.009   2.356 -0.2694 -1.4432  1.5042
 5902SOL    HW218285   2.608   0.072   2.349  0.0425 -1.0770 -2.5517
 5903SOL     OW18286   3.795   9.267   8.782  0.7862 -0.3490  0.3569
 5903SOL    HW118287   3.732   9.322   8.828  0.2993 -0.2346 -0.4150
 5903SOL    HW218288   3.832   9.325   8.714 -0.9925 -1.3645 -1.6112
 5904SOL     OW18289   0.690   0.033   3.169 -0.8586 -0.5816  0.4056
 5904SOL    HW118290   0.621   0.093   3.141  0.0023  0.0192 -0.4932
 5904SOL    HW218291   0.768   0.060   3.120 -0.0655 -1.4775  1.1095
 5905SOL     OW18292   6.256   5.107   8.017  0.6919  0.2019  0.2707
 5905SOL    HW118293   6.288   5.054   7.944 -0.1899 -1.1828  0.8450
 5905SOL    HW218294   6.203   5.175   7.975 -0.2675 -0.9042 -0.3832
 5906SOL     OW18295   1.370   6.279   4.385  0.3726  0.4330 -0.4236
 5906SOL    HW118296   1.372   6.336   4.308  0.6250 -1.1497 -1.6388
 5906SOL    HW218297   1.457   6.239   4.388  0.1655  0.0233  0.3154
 5907SOL     OW18298   8.962   6.003   2.860 -0.4108  0.2866  0.1698
 5907SOL    HW118299   8.990   6.079   2.910 -0.9422  1.3244 -1.0711
 5907SOL    HW218300   8.927   6.038   2.779 -3.3240 -1.0686  0.7155
 5908SOL     OW18301   0.424   3.561   3.226 -0.1705  0.2903 -0.5664
 5908SOL    HW118302   0.475   3.617   3.284  0.3484 -0.2268 -0.5142
 5908SOL    HW218303   0.465   3.573   3.140 -0.4617  0.4773 -0.6800
 5909SOL     OW18304   9.280   5.378   5.907 -0.3042 -0.3884 -0.0890
 5909SOL    HW118305   9.202   5.324   5.894  0.8448 -2.3382  0.6568
 5909SOL    HW218306   9.280   5.398   6.001 -0.1078 -0.0625 -0.1563
 5910SOL     OW18307   2.571   2.110   8.614 -0.1265  0.0402  0.0807
 5910SOL    HW118308   2.525   2.090   8.533 -0.4941  1.3333 -0.0406
 5910SOL    HW218309   2.586   2.204   8.611 -0.2134  0.1214  1.5456
 5911SOL     OW18310   9.754   9.020  -0.004 -0.0088  0.6002 -0.1934
 5911SOL    HW118311   9.755   8.964   0.073  1.7487  3.4030  2.0178
 5911SOL    HW218312   9.846   9.044  -0.018 -0.4082  1.0422 -2.5300
 5912SOL     OW18313   5.605   2.457   5.229  0.1236  0.3970  0.0574
 5912SOL    HW118314   5.686   2.430   5.272  0.2747  1.4734  0.4642
 5912SOL    HW218315   5.553   2.377   5.224  1.0792 -0.2431  0.0676
 5913SOL     OW18316   2.252   6.555   5.847 -1.0724  0.4753  0.3621
 5913SOL    HW118317   2.209   6.520   5.924 -0.6307  1.5518  1.1282
 5913SOL    HW218318   2.200   6.632   5.822 -0.7909  0.5653  0.0320
 5914SOL     OW18319   4.734   6.220   8.443 -0.6507 -0.2595 -0.3757
 5914SOL    HW118320   4.672   6.179   8.382  0.0829  0.2495 -1.4747
 5914SOL    HW218321   4.820   6.196   8.410 -0.2162  1.4223 -0.5377
 5915SOL     OW18322   8.066   6.824   5.325 -0.3112 -0.1909 -0.0385
 5915SOL    HW118323   8.071   6.743   5.273  1.2512  0.1064 -0.4002
 5915SOL    HW218324   8.125   6.809   5.398  0.4396  0.8354 -0.4165
 5916SOL     OW18325   9.455   5.309   0.769  0.4114  0.5576 -0.2277
 5916SOL    HW118326   9.521   5.314   0.701 -1.7819  1.2464 -2.4711
 5916SOL    HW218327   9.422   5.219   0.764  1.0586  0.2503  0.7959
 5917SOL     OW18328   8.136   8.789   6.709  0.4638 -0.2187  0.1327
 5917SOL    HW118329   8.223   8.795   6.750  0.6503 -1.0960 -0.1054
 5917SOL    HW218330   8.153   8.745   6.626 -0.4006 -1.7076  0.7062
 5918SOL     OW18331   4.015   9.689   0.854  0.5333 -0.4571  0.8487
 5918SOL    HW118332   4.036   9.669   0.945  1.2449 -0.1019  0.7636
 5918SOL    HW218333   3.949   9.624   0.831 -0.3632  0.0374  1.9071
 5919SOL     OW18334   7.813   7.190   7.294  0.0627  0.5403  0.0080
 5919SOL    HW118335   7.825   7.263   7.234 -1.8414  0.8537 -0.0806
 5919SOL    HW218336   7.805   7.230   7.381 -2.1036  0.6302 -0.1661
 5920SOL     OW18337   2.558   5.901   9.389 -0.4977 -0.1111 -0.0821
 5920SOL    HW118338   2.521   5.989   9.391  4.1294  2.1973 -1.5226
 5920SOL    HW218339   2.615   5.901   9.312  1.5411 -3.5654  1.2042
 5921SOL     OW18340   5.553   7.235   0.889  0.5922  0.0645 -0.0660
 5921SOL    HW118341   5.470   7.188   0.900  1.1947 -1.0071 -0.0299
 5921SOL    HW218342   5.592   7.197   0.811  0.7045  1.1046 -0.5220
 5922SOL     OW18343   7.600   1.199   6.111 -0.2730  0.2355 -0.3269
 5922SOL    HW118344   7.557   1.219   6.028 -1.4198 -1.6112 -0.2338
 5922SOL    HW218345   7.552   1.251   6.176 -0.2539  0.6564 -0.6492
 5923SOL     OW18346   7.906   6.431   5.245 -0.1368 -0.2721  0.1635
 5923SOL    HW118347   7.916   6.502   5.182 -1.1041 -0.2362  0.0300
 5923SOL    HW218348   7.974   6.447   5.311 -0.2371  0.6870  0.0452
 5924SOL     OW18349   2.443   9.575   1.254  0.2732  0.3815  0.3136
 5924SOL    HW118350   2.417   9.649   1.310 -0.2489 -0.5875  1.3892
 5924SOL    HW218351   2.362   9.525   1.241  0.7934 -0.4888  0.3486
 5925SOL     OW18352   4.367   1.303   1.993  0.2004 -0.5033 -0.4584
 5925SOL    HW118353   4.337   1.267   2.077 -1.0662 -1.0076 -1.0978
 5925SOL    HW218354   4.316   1.383   1.981  0.6821 -0.2092 -0.5493
 5926SOL     OW18355   2.623   1.774   0.190  0.1706  0.6092 -0.1589
 5926SOL    HW118356   2.560   1.766   0.119 -0.6829  0.4994  0.5879
 5926SOL    HW218357   2.643   1.684   0.215 -0.1166  0.6533  0.2393
 5927SOL     OW18358   2.823   0.040   2.809  0.3271 -0.2181  0.3045
 5927SOL    HW118359   2.784   0.102   2.870 -1.4778 -1.7221  0.7788
 5927SOL    HW218360   2.860  -0.029   2.864 -0.7231 -1.2500 -0.2424
 5928SOL     OW18361   9.637   5.520   2.344 -0.3756 -0.2301 -0.1054
 5928SOL    HW118362   9.556   5.572   2.349  0.3142  0.8957 -0.3690
 5928SOL    HW218363   9.624   5.450   2.408 -1.8668 -0.5176 -0.6631
 5929SOL     OW18364   0.113   4.181   4.248  0.8649 -0.2280  0.1043
 5929SOL    HW118365   0.036   4.138   4.285  0.4985  0.5741  0.2812
 5929SOL    HW218366   0.148   4.116   4.186  1.4841 -1.5966  1.8041
 5930SOL     OW18367   8.560   8.731   3.381 -0.4533 -0.1456  0.2501
 5930SOL    HW118368   8.515   8.796   3.436 -0.7893  0.3839 -0.6234
 5930SOL    HW218369   8.647   8.722   3.420 -1.1457 -0.8537  1.7123
 5931SOL     OW18370   7.220   4.180   2.877 -0.1469 -0.2803 -0.9676
 5931SOL    HW118371   7.191   4.247   2.939  0.4109  0.5043 -1.5244
 5931SOL    HW218372   7.280   4.125   2.927 -0.4034 -0.2031 -0.5716
 5932SOL     OW18373   3.648   9.654   7.939 -0.4777 -0.3316  0.0963
 5932SOL    HW118374   3.602   9.738   7.935  0.6376  0.2835 -3.4362
 5932SOL    HW218375   3.622   9.609   7.859  0.8994 -2.3048  0.6931
 5933SOL     OW18376   4.887   5.113   5.834 -0.6216 -0.3382 -0.3233
 5933SOL    HW118377   4.872   5.198   5.876 -0.3713 -1.1541  1.5116
 5933SOL    HW218378   4.842   5.119   5.750  2.5220  2.9661 -2.0553
 5934SOL     OW18379   5.989   7.559   3.489  0.1176  0.7031 -0.2322
 5934SOL    HW118380   6.020   7.639   3.531 -1.0210  1.1741 -0.2369
 5934SOL    HW218381   5.950   7.508   3.560 -0.9478  1.0695 -0.5289
 5935SOL     OW18382   0.057   0.809   9.584  0.0438  0.2382 -0.0988
 5935SOL    HW118383   0.146   0.795   9.553 -0.6953 -0.9877 -1.8139
 5935SOL    HW218384   0.012   0.727   9.565 -0.8343 -0.1720  3.1645
 5936SOL     OW18385   9.477   0.438   7.010 -0.0934 -0.3561 -0.1842
 5936SOL    HW118386   9.454   0.345   7.016  0.8226 -0.5146  1.4610
 5936SOL    HW218387   9.393   0.482   6.993 -0.3747 -1.5417 -2.1118
 5937SOL     OW18388   8.589   5.904   2.236  0.4021 -0.1318 -0.9153
 5937SOL    HW118389   8.593   5.811   2.259  1.3149  0.0153 -0.4310
 5937SOL    HW218390   8.540   5.906   2.154  0.2114 -1.0235 -0.8336
 5938SOL     OW18391   4.221   8.175   7.713 -0.1982  0.4610 -0.5617
 5938SOL    HW118392   4.235   8.080   7.712  2.6759  0.7536  1.0944
 5938SOL    HW218393   4.293   8.211   7.661  0.0116  1.8108  0.5994
 5939SOL     OW18394   2.816   4.634   0.717 -0.1846 -0.6244  0.1175
 5939SOL    HW118395   2.872   4.574   0.765  0.7888  0.6348  0.6163
 5939SOL    HW218396   2.742   4.581   0.687  0.3672 -1.9182  1.0180
 5940SOL     OW18397   7.852   5.049   2.961  0.3368  0.7707  0.2033
 5940SOL    HW118398   7.784   5.109   2.930 -0.8649 -0.8582 -0.4672
 5940SOL    HW218399   7.821   5.018   3.046  1.5125  1.9117  1.0954
 5941SOL     OW18400   7.853   0.475   3.871 -0.0121 -0.1224 -0.4124
 5941SOL    HW118401   7.821   0.535   3.804  1.9755 -0.1032 -1.4062
 5941SOL    HW218402   7.800   0.396   3.860 -2.5341  1.2905  0.7943
 5942SOL     OW18403   0.201   1.828   1.643 -0.1361 -0.1152  0.4085
 5942SOL    HW118404   0.132   1.826   1.577 -0.4635  0.8090  0.7004
 5942SOL    HW218405   0.282   1.818   1.593 -0.2498  2.3486 -0.3938
 5943SOL     OW18406   1.278   4.079   1.995 -0.0572  0.3382 -0.1220
 5943SOL    HW118407   1.253   4.042   1.910 -1.3201  2.0628 -0.5478
 5943SOL    HW218408   1.271   4.173   1.983 -0.2970  0.6149  1.9115
 5944SOL     OW18409   8.830   5.625   8.434  0.6061 -0.2561 -0.0681
 5944SOL    HW118410   8.856   5.647   8.344  2.9799  0.5403  0.7261
 5944SOL    HW218411   8.856   5.702   8.485 -1.8071 -0.1970  1.1732
 5945SOL     OW18412   6.697   3.285   4.881  0.4247 -0.2350  0.2383
 5945SOL    HW118413   6.616   3.304   4.928  0.5909 -0.2993  0.5578
 5945SOL    HW218414   6.718   3.366   4.835 -0.0762 -0.3733 -0.2299
 5946SOL     OW18415   4.608   2.584   7.879 -0.2368  0.7037 -0.5393
 5946SOL    HW118416   4.606   2.651   7.948  1.6882  0.5184 -0.2603
 5946SOL    HW218417   4.519   2.584   7.843 -1.1856  1.1352  1.6219
 5947SOL     OW18418   4.067   4.452   4.035 -0.1312 -0.0294 -0.1566
 5947SOL    HW118419   4.065   4.380   4.098  0.9444  0.5357  0.5640
 5947SOL    HW218420   4.018   4.522   4.077 -0.4967 -0.0711 -0.5085
 5948SOL     OW18421   1.898   5.379   9.554  0.2812 -0.3643  0.1822
 5948SOL    HW118422   1.986   5.356   9.585  0.4625 -0.5155 -0.4345
 5948SOL    HW218423   1.896   5.475   9.557  1.0313 -0.2656 -1.2598
 5949SOL     OW18424   9.916   8.881   5.539 -0.3079 -0.6808 -0.2914
 5949SOL    HW118425   9.866   8.961   5.556  2.2826  0.7927  0.9352
 5949SOL    HW218426  10.002   8.912   5.512  0.7090 -3.0834 -0.0182
 5950SOL     OW18427   6.437   6.497   6.798 -0.6847 -0.3732  0.6103
 5950SOL    HW118428   6.465   6.589   6.792  4.4620 -1.5975  0.5747
 5950SOL    HW218429   6.407   6.475   6.710  1.4772  0.5290 -0.4323
 5951SOL     OW18430   7.501   4.508   4.123 -0.5167  0.4982  0.2282
 5951SOL    HW118431   7.586   4.541   4.093 -0.3767  0.1637  0.2545
 5951SOL    HW218432   7.456   4.482   4.042 -0.9090  1.4027  0.1404
 5952SOL     OW18433   5.094   5.609   5.257 -0.5782 -0.0346  0.1409
 5952SOL    HW118434   5.031   5.547   5.221 -0.7528  0.6637 -0.7632
 5952SOL    HW218435   5.102   5.583   5.349 -0.7646 -1.3004 -0.1765
 5953SOL     OW18436   8.536   1.900   1.166 -0.5253 -0.0461 -0.1080
 5953SOL    HW118437   8.565   1.989   1.184  1.8136 -0.5431 -1.0074
 5953SOL    HW218438   8.611   1.845   1.192 -0.9099 -1.5181 -1.8960
 5954SOL     OW18439   7.284   0.008   6.843  0.1563  0.3728  0.2305
 5954SOL    HW118440   7.302   0.100   6.860 -2.4542  0.7366  1.5164
 5954SOL    HW218441   7.203   0.008   6.793  1.1258 -1.2195 -1.5001
 5955SOL     OW18442   2.816   1.609   6.178  0.0115 -0.0000  0.2947
 5955SOL    HW118443   2.768   1.667   6.117 -1.1898 -0.2853  0.9277
 5955SOL    HW218444   2.820   1.525   6.133  0.9132  0.3049 -0.2224
 5956SOL     OW18445   6.571   2.602   6.143 -0.2569 -0.4943 -0.1491
 5956SOL    HW118446   6.510   2.587   6.215 -1.3094 -1.0463 -1.1170
 5956SOL    HW218447   6.587   2.696   6.144 -0.3107 -0.4873  0.7580
 5957SOL     OW18448   9.210   6.652   2.183 -0.4464 -0.1448  0.0394
 5957SOL    HW118449   9.248   6.681   2.100  1.1511 -0.8703  0.4743
 5957SOL    HW218450   9.211   6.557   2.178 -0.2100 -0.1994  0.9419
 5958SOL     OW18451   8.920   7.810   8.158 -0.1676 -0.1550  0.2308
 5958SOL    HW118452   8.892   7.882   8.102 -0.3737  1.8847  2.7638
 5958SOL    HW218453   8.989   7.766   8.109  1.3555  2.9913 -0.6451
 5959SOL     OW18454   1.865   8.479   6.129 -0.4627 -0.1039 -0.2599
 5959SOL    HW118455   1.802   8.423   6.085  0.1689  0.1380 -1.5007
 5959SOL    HW218456   1.869   8.559   6.076 -0.5489  0.6875  0.8740
 5960SOL     OW18457   0.591   6.686   6.333  0.3172 -0.0839 -0.0040
 5960SOL    HW118458   0.591   6.662   6.426  0.0814 -2.0038 -0.4437
 5960SOL    HW218459   0.608   6.603   6.288 -2.6870  0.1199 -1.7791
 5961SOL     OW18460   9.034   4.222   3.074  0.1433  0.3995  0.2188
 5961SOL    HW118461   8.997   4.209   2.987  0.3595 -1.2293  0.3404
 5961SOL    HW218462   9.100   4.290   3.063 -0.9023  1.3229 -0.5581
 5962SOL     OW18463   4.719   0.008   8.254  0.7397 -0.5967  0.4551
 5962SOL    HW118464   4.766   0.045   8.328  0.0443 -0.9602  1.0951
 5962SOL    HW218465   4.772   0.031   8.178  1.1647  0.2893  1.0015
 5963SOL     OW18466   5.463   0.991   7.536 -0.2856 -0.3150  0.1459
 5963SOL    HW118467   5.456   1.018   7.627  1.1693  1.0706 -0.1087
 5963SOL    HW218468   5.379   1.014   7.497 -1.2526 -1.7363  1.3044
 5964SOL     OW18469   1.861   8.559   6.823  0.0419  0.1030 -0.3080
 5964SOL    HW118470   1.812   8.493   6.773 -1.0336 -0.7583  1.7917
 5964SOL    HW218471   1.927   8.590   6.761 -0.8722 -1.2967 -2.0947
 5965SOL     OW18472   3.381   3.312   6.948 -0.1744 -0.1477  0.1950
 5965SOL    HW118473   3.360   3.391   6.898 -0.9237 -0.3262  0.2135
 5965SOL    HW218474   3.322   3.245   6.912 -0.9670 -0.2026  1.5233
 5966SOL     OW18475   2.058   2.628   9.605 -0.2029 -0.2803 -0.3407
 5966SOL    HW118476   2.043   2.562   9.538 -1.9217 -0.4914  0.1982
 5966SOL    HW218477   1.994   2.608   9.674  1.6443 -0.2391  1.5028
 5967SOL     OW18478   8.013   1.641   9.275 -0.0740  0.5102 -0.3445
 5967SOL    HW118479   7.984   1.628   9.184 -0.3642  0.5446 -0.2573
 5967SOL    HW218480   7.972   1.724   9.301  1.0486  1.1615 -0.6080
 5968SOL     OW18481   9.390   4.785   4.002 -0.4290 -0.0668  0.2475
 5968SOL    HW118482   9.409   4.878   3.989 -0.0952 -0.1428  0.1749
 5968SOL    HW218483   9.308   4.784   4.051 -0.3764  0.2686  0.3477
 5969SOL     OW18484   8.163   2.800   0.882 -0.5818  0.0492 -0.2610
 5969SOL    HW118485   8.104   2.725   0.896  0.3525 -0.6780 -0.0987
 5969SOL    HW218486   8.164   2.846   0.966 -0.7696 -0.0407 -0.2088
 5970SOL     OW18487   8.487   8.292   9.962 -0.0878  0.5128  0.0149
 5970SOL    HW118488   8.529   8.206   9.960  0.6329  0.7806  1.7954
 5970SOL    HW218489   8.394   8.272   9.958 -0.0945 -0.6062  2.7563
 5971SOL     OW18490   8.088   9.801   9.316 -0.1132  0.3642 -0.0614
 5971SOL    HW118491   8.157   9.850   9.273 -0.0790  1.2278  0.9511
 5971SOL    HW218492   8.015   9.804   9.254  0.1987  0.8756 -0.4124
 5972SOL     OW18493   4.565   1.380   6.336 -0.2424 -0.1512 -0.0662
 5972SOL    HW118494   4.604   1.418   6.257 -0.1200  2.0869  1.0025
 5972SOL    HW218495   4.477   1.416   6.339 -0.8215 -1.5147  0.0024
 5973SOL     OW18496   5.657   1.969   9.051 -0.4684  0.9776  0.0581
 5973SOL    HW118497   5.597   1.894   9.046 -1.1653  1.5376 -0.1343
 5973SOL    HW218498   5.738   1.936   9.011 -0.9053  0.4582 -0.4348
 5974SOL     OW18499   1.550   0.915   1.460 -0.4985  0.1332  0.2194
 5974SOL    HW118500   1.575   1.005   1.480  0.2291 -0.0087 -0.0178
 5974SOL    HW218501   1.469   0.901   1.508 -0.3043  0.7243  0.7264
 5975SOL     OW18502   8.448   0.723   4.160 -0.7353 -0.3555 -0.0862
 5975SOL    HW118503   8.430   0.634   4.130 -2.4799 -0.6646  1.6394
 5975SOL    HW218504   8.475   0.713   4.251 -1.2136  0.8646  0.2139
 5976SOL     OW18505   3.387   9.795   8.406  0.4931 -0.3022  0.5046
 5976SOL    HW118506   3.396   9.798   8.311  1.7967  1.6804  0.6129
 5976SOL    HW218507   3.299   9.760   8.421  0.9573 -2.5244 -1.3323
 5977SOL     OW18508   1.743   4.973   6.017 -0.1402  0.6440 -0.0241
 5977SOL    HW118509   1.650   4.989   6.032 -0.3493 -0.1021 -0.4842
 5977SOL    HW218510   1.786   5.051   6.051 -0.8568  0.5933  1.0665
 5978SOL     OW18511   1.230   1.969   4.760 -0.0079 -0.5838  0.3235
 5978SOL    HW118512   1.254   2.013   4.841  1.3292  1.0203 -0.8600
 5978SOL    HW218513   1.135   1.966   4.762  0.0088 -1.0255  2.1496
 5979SOL     OW18514   2.387   9.553   9.550  0.1427 -0.0116 -0.2588
 5979SOL    HW118515   2.464   9.591   9.593 -0.0389  0.9668 -0.7669
 5979SOL    HW218516   2.410   9.461   9.536  1.1073  0.2035 -0.1520
 5980SOL     OW18517   8.932   7.719   1.175 -0.4016 -0.0600  0.7358
 5980SOL    HW118518   8.891   7.725   1.089  1.7675 -1.8049 -0.4891
 5980SOL    HW218519   8.886   7.785   1.227 -3.4898 -0.6497 -0.9973
 5981SOL     OW18520   2.407   4.163   2.466  0.2251  0.5116 -0.1444
 5981SOL    HW118521   2.417   4.073   2.433  0.0825 -0.7712  2.9996
 5981SOL    HW218522   2.320   4.189   2.437 -0.0442 -0.6821 -0.4803
 5982SOL     OW18523   4.045   0.035   6.652 -0.7236 -0.4686  0.1011
 5982SOL    HW118524   3.964   0.054   6.604 -0.3940  1.4538  0.1908
 5982SOL    HW218525   4.112   0.086   6.607 -0.0365 -0.1394  1.4292
 5983SOL     OW18526   0.652   6.786   5.423 -0.6217 -0.5861 -0.0556
 5983SOL    HW118527   0.573   6.776   5.371 -0.7341 -0.4486  0.0876
 5983SOL    HW218528   0.723   6.784   5.359 -0.6241 -2.3023 -0.0552
 5984SOL     OW18529   7.821   8.763   9.686 -0.2036  0.4256  0.9478
 5984SOL    HW118530   7.906   8.780   9.726 -0.4492  0.1179  1.6091
 5984SOL    HW218531   7.819   8.668   9.671  1.1160  0.8121 -2.6288
 5985SOL     OW18532   2.778   2.294   6.212  0.2412 -0.5880  0.4983
 5985SOL    HW118533   2.821   2.239   6.277  1.7450  0.2290  0.2436
 5985SOL    HW218534   2.700   2.327   6.256  0.2730 -1.4850  1.2532
 5986SOL     OW18535   7.346   0.798   1.999  0.0396 -0.0885 -0.3075
 5986SOL    HW118536   7.397   0.845   1.932  1.9218  0.5756  1.4867
 5986SOL    HW218537   7.278   0.752   1.949  2.3867 -1.0582 -2.8850
 5987SOL     OW18538   6.828   6.396   6.434  0.5134 -0.2555  0.2894
 5987SOL    HW118539   6.786   6.333   6.492 -0.0787 -0.4987 -0.3796
 5987SOL    HW218540   6.889   6.344   6.382  0.7518 -0.1059  0.4174
 5988SOL     OW18541   4.225   5.500   5.851  0.1295 -0.0705  0.2768
 5988SOL    HW118542   4.266   5.414   5.844 -1.0440 -0.6253 -0.0219
 5988SOL    HW218543   4.133   5.481   5.867 -0.6616  1.0351 -2.3475
 5989SOL     OW18544   8.074   1.665   7.449  0.1882  0.2254  0.3463
 5989SOL    HW118545   8.103   1.575   7.436  1.0360  0.6266 -0.6494
 5989SOL    HW218546   7.979   1.659   7.459 -0.0812 -0.5785 -2.0557
 5990SOL     OW18547   9.295   2.791   8.735 -0.0179 -0.3059 -1.0272
 5990SOL    HW118548   9.353   2.736   8.682  0.6108 -1.9152  1.2184
 5990SOL    HW218549   9.253   2.731   8.796 -0.5485  1.4813  0.4640
 5991SOL     OW18550   7.777   0.462   4.693 -0.3063  0.6190  0.2239
 5991SOL    HW118551   7.717   0.516   4.642 -0.7559  0.1231  0.2159
 5991SOL    HW218552   7.831   0.525   4.742 -0.7421  1.0712  0.1275
 5992SOL     OW18553   8.200   3.536   4.536 -0.1429 -0.3052  0.7036
 5992SOL    HW118554   8.156   3.594   4.598  0.2411 -0.1982  0.8788
 5992SOL    HW218555   8.135   3.521   4.467 -0.5123 -0.2831  1.0406
 5993SOL     OW18556   4.972   9.682   1.128 -0.8693 -0.5962 -0.0251
 5993SOL    HW118557   4.937   9.645   1.047 -1.5088 -0.0089 -0.0238
 5993SOL    HW218558   4.925   9.637   1.198 -0.8789 -0.5400  0.0046
 5994SOL     OW18559   8.057   8.519   6.384  0.2912 -0.0105  0.0044
 5994SOL    HW118560   8.057   8.614   6.396  1.7173  0.1280 -0.8951
 5994SOL    HW218561   8.119   8.486   6.449  1.4134 -0.1087 -1.1001
 5995SOL     OW18562   5.879   3.790   8.695  0.1396  0.4736 -0.1068
 5995SOL    HW118563   5.926   3.779   8.777 -1.5282  1.6663  1.0781
 5995SOL    HW218564   5.903   3.714   8.643  4.3728  1.5923 -0.1852
 5996SOL     OW18565   4.637   0.318   6.834  0.4231  0.0535  0.3149
 5996SOL    HW118566   4.658   0.339   6.925  1.1818 -1.9170  0.6580
 5996SOL    HW218567   4.586   0.237   6.839 -1.4003  1.0499 -0.9382
 5997SOL     OW18568   6.347   8.394   3.435  0.9598 -0.1732  0.4808
 5997SOL    HW118569   6.337   8.447   3.356  0.6527 -1.3578 -0.3168
 5997SOL    HW218570   6.258   8.382   3.467  0.8762 -1.2538 -0.0956
 5998SOL     OW18571   5.922   1.602   5.325 -0.6406  0.2661 -0.3804
 5998SOL    HW118572   5.907   1.520   5.278 -1.5015 -0.6598  1.3820
 5998SOL    HW218573   5.842   1.615   5.376  0.4123  0.8998  1.2041
 5999SOL     OW18574   3.639   6.659   5.829  0.2608  0.3361 -0.2982
 5999SOL    HW118575   3.646   6.670   5.923 -0.8502  2.5091 -0.3880
 5999SOL    HW218576   3.544   6.657   5.812  0.3715  2.2211 -1.5023
 6000SOL     OW18577   2.646   0.051   6.882  0.3581  0.5816 -0.5571
 6000SOL    HW118578   2.619  -0.040   6.871  0.1250  0.5409  0.2990
 6000SOL    HW218579   2.575   0.102   6.843 -1.0225  0.4778  1.6305
 6001SOL     OW18580   8.936   7.451   4.317  0.7679  0.1183 -0.5241
 6001SOL    HW118581   8.944   7.523   4.379 -0.3568 -0.5298  0.4189
 6001SOL    HW218582   8.852   7.465   4.274  1.1475  0.0884 -1.2927
 6002SOL     OW18583   2.328   5.184   3.830 -0.3904  0.1419 -0.3690
 6002SOL    HW118584   2.286   5.269   3.846  1.3284  0.4423  3.8848
 6002SOL    HW218585   2.412   5.206   3.790 -0.0880  0.4633  0.4187
 6003SOL     OW18586   4.127   2.965   8.428 -0.1980 -0.6291  0.0437
 6003SOL    HW118587   4.176   3.040   8.395  1.3261 -1.6536 -0.1401
 6003SOL    HW218588   4.054   2.955   8.368 -1.3745  1.6235  0.9618
 6004SOL     OW18589   8.966   7.313   3.788 -0.3654 -0.1072 -0.4230
 6004SOL    HW118590   9.044   7.353   3.826  0.5414 -0.1403 -2.1597
 6004SOL    HW218591   8.986   7.220   3.784 -1.5745 -0.5281  1.4909
 6005SOL     OW18592   1.731   2.699   9.534 -0.2012  0.2306 -0.2025
 6005SOL    HW118593   1.738   2.626   9.472  2.5475  1.3345 -1.3584
 6005SOL    HW218594   1.693   2.660   9.613 -0.9151 -1.9176 -1.5300
 6006SOL     OW18595   6.080   8.391   3.440 -0.0057  0.0356  0.1827
 6006SOL    HW118596   6.043   8.430   3.361 -0.4288  0.4745  0.5938
 6006SOL    HW218597   6.008   8.392   3.503  1.0379  2.1625  1.4591
 6007SOL     OW18598   9.110   6.556   6.339 -0.6427 -0.1834 -0.1641
 6007SOL    HW118599   9.103   6.650   6.351  1.7935  0.1835 -1.0813
 6007SOL    HW218600   9.108   6.543   6.245 -0.3920 -0.9736 -0.0698
 6008SOL     OW18601   5.993   4.183   4.880 -0.5326 -0.0928 -0.4277
 6008SOL    HW118602   6.049   4.239   4.935 -0.9675  1.0075 -1.0677
 6008SOL    HW218603   5.909   4.229   4.878 -1.3460 -1.4941  0.1502
 6009SOL     OW18604   3.268   5.783   3.009  0.3652 -0.5359 -0.0843
 6009SOL    HW118605   3.300   5.700   2.974  1.2006  0.1692 -1.0758
 6009SOL    HW218606   3.324   5.801   3.085 -1.0902 -1.8012  1.3486
 6010SOL     OW18607   4.402   2.089   7.634 -0.6013  0.6190 -0.1610
 6010SOL    HW118608   4.429   2.018   7.692 -0.5888 -0.5197 -1.5137
 6010SOL    HW218609   4.420   2.056   7.546 -2.1142  1.6439 -0.9023
 6011SOL     OW18610   1.870   2.084   2.544  0.2411  0.3361 -0.3582
 6011SOL    HW118611   1.946   2.026   2.552  0.5182  0.8378  0.7377
 6011SOL    HW218612   1.834   2.063   2.457  1.9881  0.5230 -1.1761
 6012SOL     OW18613   0.331   6.865   3.293  0.3738 -0.4006  0.0179
 6012SOL    HW118614   0.271   6.929   3.333  1.0286  0.6615 -0.6592
 6012SOL    HW218615   0.308   6.782   3.335 -0.2356  0.3368  1.2073
 6013SOL     OW18616   8.042   2.788   2.697  0.1925 -0.5093 -0.1501
 6013SOL    HW118617   8.100   2.773   2.622  0.0784 -0.1407 -0.3177
 6013SOL    HW218618   7.968   2.837   2.661 -0.9065 -2.1619 -0.2094
 6014SOL     OW18619   0.543   2.054   5.662  0.4402  0.5895 -0.3716
 6014SOL    HW118620   0.610   2.055   5.731  0.1087 -0.3866 -0.0160
 6014SOL    HW218621   0.526   1.961   5.647 -0.1966  0.8123 -1.0865
 6015SOL     OW18622   8.649   4.997   6.511 -0.2897 -0.5090  0.3446
 6015SOL    HW118623   8.564   5.011   6.470  0.9210 -0.3228 -2.3074
 6015SOL    HW218624   8.670   5.082   6.551 -0.3346  0.1880 -1.0579
 6016SOL     OW18625   4.304   2.245   3.228  0.1248 -0.0308  0.2732
 6016SOL    HW118626   4.299   2.337   3.200  0.3720 -0.3898 -1.0310
 6016SOL    HW218627   4.364   2.205   3.165  0.2646 -1.0279  1.0246
 6017SOL     OW18628   5.730   1.880   6.584 -0.7016  0.0334 -0.3161
 6017SOL    HW118629   5.660   1.945   6.581 -0.4875  0.2496 -3.3927
 6017SOL    HW218630   5.810   1.933   6.591 -0.6448  0.0023 -0.7096
 6018SOL     OW18631   6.098   2.437   8.705 -0.4810  0.1083  0.0468
 6018SOL    HW118632   6.081   2.346   8.729 -1.0125  0.3169  0.4855
 6018SOL    HW218633   6.025   2.486   8.744  0.1043  0.7895  0.3014
 6019SOL     OW18634   2.128   6.545   8.887  0.1242  0.1389  0.0045
 6019SOL    HW118635   2.106   6.542   8.980  1.5003  0.4391  0.3613
 6019SOL    HW218636   2.189   6.617   8.878  0.0530  0.0888 -1.1380
 6020SOL     OW18637   0.051   2.073   7.203 -0.0312 -0.2397  0.2081
 6020SOL    HW118638   0.049   2.044   7.294 -1.0319  1.0148  0.6196
 6020SOL    HW218639  -0.039   2.064   7.173  0.6799 -2.9825 -1.4980
 6021SOL     OW18640   3.958   0.122   4.691  0.3713 -0.3188  0.1858
 6021SOL    HW118641   4.027   0.058   4.675  0.5712 -0.4341  1.3936
 6021SOL    HW218642   3.998   0.187   4.748 -0.0761  0.4424 -0.3554
 6022SOL     OW18643   1.898   2.281   2.888 -0.4569  0.4429 -0.1102
 6022SOL    HW118644   1.888   2.319   2.801 -1.9003  0.8607  0.2104
 6022SOL    HW218645   1.857   2.344   2.947 -2.7153 -1.4042  0.4741
 6023SOL     OW18646   2.366   3.728   8.302 -0.1689 -0.7298  0.0028
 6023SOL    HW118647   2.311   3.805   8.286 -1.7185 -1.6088  0.8978
 6023SOL    HW218648   2.455   3.763   8.306 -0.8514  1.0559  0.5923
 6024SOL     OW18649   2.820   2.033   0.936  0.3306  0.4977 -0.1448
 6024SOL    HW118650   2.818   2.105   0.872 -0.4861 -0.3879 -1.1623
 6024SOL    HW218651   2.728   2.008   0.946  0.7779 -2.3254 -2.0833
 6025SOL     OW18652   7.701   6.649   5.519 -0.1770 -0.1181 -0.9563
 6025SOL    HW118653   7.716   6.555   5.526  1.3401  0.2041  0.7572
 6025SOL    HW218654   7.687   6.664   5.426  1.6410 -1.7588 -1.5504
 6026SOL     OW18655   8.218   6.183   4.372 -0.2750  0.0307  0.1455
 6026SOL    HW118656   8.174   6.111   4.326 -2.3449  0.3732  1.4883
 6026SOL    HW218657   8.179   6.184   4.459  0.2040  2.3351  0.3980
 6027SOL     OW18658   4.162   7.799   9.233 -0.1052  0.3059 -0.1211
 6027SOL    HW118659   4.143   7.883   9.275 -3.0270 -0.8689  1.2260
 6027SOL    HW218660   4.208   7.748   9.300  0.7524  0.4662 -0.5769
 6028SOL     OW18661   2.445   8.523   7.607 -0.4367 -0.1809  0.2354
 6028SOL    HW118662   2.395   8.571   7.673 -0.8326 -1.8652  1.2214
 6028SOL    HW218663   2.527   8.571   7.599 -0.0306 -0.3680  2.6100
 6029SOL     OW18664   3.248   3.403   9.586 -0.6876 -0.4931  0.4943
 6029SOL    HW118665   3.164   3.407   9.541 -0.2914  1.3889 -0.1678
 6029SOL    HW218666   3.262   3.310   9.604 -1.7274 -1.0972 -1.5999
 6030SOL     OW18667   7.163   9.345   2.818  0.8370 -0.5054 -0.0165
 6030SOL    HW118668   7.254   9.340   2.846  0.8823 -0.3380 -0.1354
 6030SOL    HW218669   7.161   9.415   2.753  0.4289  0.2166  0.7577
 6031SOL     OW18670   7.886   4.624   4.090  0.0711 -0.0086  0.1228
 6031SOL    HW118671   7.854   4.713   4.109 -0.9504 -0.6138  1.3674
 6031SOL    HW218672   7.972   4.621   4.131  0.2744  0.5012 -0.2389
 6032SOL     OW18673   1.050   8.124   9.875  0.0760 -0.7436  0.1719
 6032SOL    HW118674   1.088   8.190   9.932  0.1601  0.1060 -0.8453
 6032SOL    HW218675   0.974   8.091   9.923 -0.0119  0.1466  0.6510
 6033SOL     OW18676   7.728   2.113   3.899 -0.0622  0.1983  0.3777
 6033SOL    HW118677   7.725   2.208   3.911  1.4604  0.5099 -1.3660
 6033SOL    HW218678   7.695   2.099   3.810  1.1489 -0.7565  0.0578
 6034SOL     OW18679   2.641   5.469   9.675 -0.2484 -0.0932  0.1059
 6034SOL    HW118680   2.720   5.426   9.708  0.4533  1.0600  0.0077
 6034SOL    HW218681   2.659   5.484   9.583 -0.3217  0.7269  0.2193
 6035SOL     OW18682   4.329   6.465   5.692  0.0464  0.2469  0.1906
 6035SOL    HW118683   4.338   6.475   5.597  1.9535  1.5946  0.4550
 6035SOL    HW218684   4.261   6.528   5.716 -0.2127  0.1359 -0.2496
 6036SOL     OW18685   6.748   6.476   7.161  0.0756 -0.0390  0.3175
 6036SOL    HW118686   6.802   6.412   7.208  0.4064  1.2316  1.7692
 6036SOL    HW218687   6.722   6.431   7.081 -0.9152 -2.5250  1.8940
 6037SOL     OW18688   4.584   3.607   0.585 -0.1516  0.3525 -0.1035
 6037SOL    HW118689   4.643   3.637   0.516 -1.3211 -1.6043 -2.0515
 6037SOL    HW218690   4.538   3.532   0.548 -1.5347 -0.2196  2.4897
 6038SOL     OW18691   2.642   9.028   8.098  0.2867  0.4542 -0.7866
 6038SOL    HW118692   2.664   9.113   8.137 -0.9519  0.9947 -1.2114
 6038SOL    HW218693   2.682   8.964   8.157 -2.8429  1.1329  2.4384
 6039SOL     OW18694   0.021   0.329   4.745  0.0333  0.5151 -0.2510
 6039SOL    HW118695   0.036   0.321   4.651 -1.1766 -0.6451 -0.3729
 6039SOL    HW218696  -0.014   0.244   4.772 -1.2974  1.3851  0.9100
 6040SOL     OW18697   5.816   3.112   4.868  0.2040 -0.2604  0.0619
 6040SOL    HW118698   5.866   3.176   4.817  1.3536 -1.1535  0.0235
 6040SOL    HW218699   5.744   3.162   4.906  0.7088  0.9121 -0.4838
 6041SOL     OW18700   0.147   2.929   5.398  0.4265 -0.6379  0.0353
 6041SOL    HW118701   0.101   2.849   5.423 -1.3372  0.7941  1.6480
 6041SOL    HW218702   0.212   2.942   5.466  0.5989 -0.5953 -0.1361
 6042SOL     OW18703   9.151   2.817   8.026  0.2347 -0.1062 -0.3501
 6042SOL    HW118704   9.216   2.858   8.082 -0.3075  0.7521 -0.3346
 6042SOL    HW218705   9.177   2.840   7.937  2.2512 -3.1119 -0.6870
 6043SOL     OW18706   1.303   4.700   4.455  0.2350 -0.0321 -0.2530
 6043SOL    HW118707   1.336   4.621   4.498 -2.2810 -0.7040  0.5804
 6043SOL    HW218708   1.340   4.696   4.367  0.4741 -1.9661 -0.1104
 6044SOL     OW18709   0.286   7.326   5.977 -0.1454  1.3675 -0.2174
 6044SOL    HW118710   0.272   7.326   5.882 -0.7392 -0.2975 -0.1549
 6044SOL    HW218711   0.376   7.294   5.988 -0.9416 -1.0615 -0.1780
 6045SOL     OW18712   9.034   4.814   6.225 -0.0537 -0.2150  0.6703
 6045SOL    HW118713   9.034   4.748   6.294 -1.8485 -0.4143  0.5266
 6045SOL    HW218714   9.001   4.768   6.148  3.2485 -0.3903 -0.7871
 6046SOL     OW18715   9.700   9.332   3.690 -0.0798 -0.2243  0.0942
 6046SOL    HW118716   9.676   9.424   3.693 -1.2508 -0.4723 -0.8761
 6046SOL    HW218717   9.760   9.320   3.763  0.6702  1.4636 -0.2093
 6047SOL     OW18718   7.319   9.320   2.149  0.2474 -0.2065  0.1832
 6047SOL    HW118719   7.388   9.265   2.187  0.3367 -0.8547 -0.8862
 6047SOL    HW218720   7.242   9.263   2.145 -0.4555  0.5947  1.6281
 6048SOL     OW18721   8.818   5.344   9.495 -0.0015 -0.0302 -0.2639
 6048SOL    HW118722   8.821   5.421   9.438  0.3128 -0.3856 -0.7421
 6048SOL    HW218723   8.866   5.277   9.446  2.2487  0.2888  1.3928
 6049SOL     OW18724   2.035   6.145   5.503  0.0430  0.2271 -0.1278
 6049SOL    HW118725   2.056   6.166   5.412  3.4179  0.6407  0.5808
 6049SOL    HW218726   2.070   6.057   5.517  1.7152  1.0293  1.2500
 6050SOL     OW18727   2.469   6.413   1.629  0.2579 -0.3251 -0.1499
 6050SOL    HW118728   2.385   6.443   1.663  1.3305  2.9615 -0.0798
 6050SOL    HW218729   2.494   6.341   1.686 -1.8829 -0.5181  0.6239
 6051SOL     OW18730   1.438   3.642   6.616  0.2161 -0.2967  0.7215
 6051SOL    HW118731   1.502   3.707   6.645  0.0594  0.0352  0.3268
 6051SOL    HW218732   1.466   3.619   6.528 -1.4039  1.4296 -0.3181
 6052SOL     OW18733   8.235   0.593   7.657  0.0275  0.0463 -0.2423
 6052SOL    HW118734   8.306   0.588   7.593 -0.2969  2.8363 -0.9461
 6052SOL    HW218735   8.278   0.607   7.741  0.4201 -2.9199  0.1605
 6053SOL     OW18736   4.822   0.149   9.394  0.1981 -0.4132 -0.0419
 6053SOL    HW118737   4.795   0.204   9.321  1.9312 -0.3694 -0.6800
 6053SOL    HW218738   4.752   0.084   9.402  0.0113 -0.4716 -1.8020
 6054SOL     OW18739   9.135   4.180   0.351  0.5086 -0.5068 -0.2339
 6054SOL    HW118740   9.049   4.138   0.359  0.4704 -0.1977  1.2647
 6054SOL    HW218741   9.197   4.109   0.367  0.5122 -0.5427 -0.4059
 6055SOL     OW18742   6.882   0.261   1.045 -0.0559 -0.1129 -0.2664
 6055SOL    HW118743   6.789   0.280   1.058  0.3226  0.9480  1.1193
 6055SOL    HW218744   6.907   0.211   1.124  0.5042 -0.5855 -0.7340
 6056SOL     OW18745   7.117   0.433   0.698  0.3765  0.1434 -0.4207
 6056SOL    HW118746   7.035   0.392   0.725  1.0617  0.4792  2.6358
 6056SOL    HW218747   7.092   0.495   0.630 -1.5713 -1.1072 -0.9372
 6057SOL     OW18748   1.805   3.656   9.099  0.0371  0.3712 -0.1097
 6057SOL    HW118749   1.743   3.627   9.167  0.8412 -0.1089  0.4410
 6057SOL    HW218750   1.792   3.595   9.027  2.7190 -2.4807  1.5738
 6058SOL     OW18751   5.099   3.330   1.535 -0.2455 -0.4814 -0.3720
 6058SOL    HW118752   5.147   3.281   1.601 -0.2635  0.9382  0.7334
 6058SOL    HW218753   5.153   3.407   1.517 -0.9006 -0.1431 -0.9783
 6059SOL     OW18754   6.625   0.696   0.298  0.5208  0.0925 -0.2289
 6059SOL    HW118755   6.687   0.748   0.348  1.0794  0.6554 -1.4609
 6059SOL    HW218756   6.670   0.678   0.215 -0.2042 -1.1722 -0.3782
 6060SOL     OW18757   1.383   9.082   3.833 -0.1092  0.7387 -0.0002
 6060SOL    HW118758   1.412   9.122   3.751  0.9992 -0.1081 -0.0516
 6060SOL    HW218759   1.355   9.155   3.887  1.0818  1.5112 -0.3828
 6061SOL     OW18760   8.176   5.485   1.501  0.2918  0.3950 -0.0031
 6061SOL    HW118761   8.112   5.513   1.566  0.5664  0.4588  0.2379
 6061SOL    HW218762   8.125   5.476   1.420  0.0606  0.8935  0.0802
 6062SOL     OW18763   0.138   6.253   8.526 -0.1309 -0.3362  0.0543
 6062SOL    HW118764   0.125   6.196   8.602 -0.0870 -0.8536 -0.3156
 6062SOL    HW218765   0.138   6.342   8.561  0.0649 -0.5823  0.6805
 6063SOL     OW18766   3.207   2.216   9.685  0.1938  1.1019 -0.1382
 6063SOL    HW118767   3.136   2.152   9.689 -0.4333  1.7626 -0.4083
 6063SOL    HW218768   3.174   2.285   9.627  0.4699  2.1127  0.8611
 6064SOL     OW18769   7.376   1.771   4.697  0.3728 -0.4613  0.6821
 6064SOL    HW118770   7.287   1.778   4.732  0.5660  0.2870  1.0478
 6064SOL    HW218771   7.390   1.854   4.652  0.7150 -0.7723  0.2074
 6065SOL     OW18772   9.453   6.459   3.559  0.5790  0.2346 -0.2707
 6065SOL    HW118773   9.548   6.447   3.551  0.8704  2.1060 -0.0058
 6065SOL    HW218774   9.424   6.382   3.607  1.9280 -0.4928 -0.5644
 6066SOL     OW18775   9.630   4.426   4.066 -0.2983  0.1292  0.2057
 6066SOL    HW118776   9.721   4.441   4.092 -0.3502  0.0273  0.4537
 6066SOL    HW218777   9.620   4.331   4.068 -0.4939  0.1529  0.4835
 6067SOL     OW18778   5.392   6.892   2.978  0.4342  0.5834  0.1116
 6067SOL    HW118779   5.439   6.808   2.987  1.3188  1.0231 -0.3412
 6067SOL    HW218780   5.457   6.952   2.941 -0.7227  1.0027 -1.3088
 6068SOL     OW18781   7.748   6.266   4.813  0.0680 -0.2391  0.5262
 6068SOL    HW118782   7.728   6.173   4.815  0.7346 -0.3697  1.7423
 6068SOL    HW218783   7.676   6.305   4.763  0.7292 -1.6096 -1.6083
 6069SOL     OW18784   5.998   6.860   3.520 -0.2750 -0.7497 -0.3810
 6069SOL    HW118785   6.027   6.858   3.428  0.1500 -1.0798 -0.2445
 6069SOL    HW218786   5.933   6.929   3.523 -0.3791 -0.8167 -0.9631
 6070SOL     OW18787   3.739   3.445   1.397 -0.1126  0.0324  0.7982
 6070SOL    HW118788   3.770   3.376   1.339 -0.6962  0.3970  0.0285
 6070SOL    HW218789   3.671   3.490   1.346 -0.6091  0.3897  1.7492
 6071SOL     OW18790   1.258   4.683   2.642 -0.1291 -0.0773 -0.0227
 6071SOL    HW118791   1.249   4.606   2.698  0.5018  0.1420  0.3920
 6071SOL    HW218792   1.320   4.657   2.574 -1.6185 -0.6614 -1.2153
 6072SOL     OW18793   0.372   1.710   7.334  0.0995  0.3295 -0.2062
 6072SOL    HW118794   0.426   1.647   7.382  0.4989  1.9520  1.6098
 6072SOL    HW218795   0.302   1.733   7.395  0.4841  2.2861 -0.4271
 6073SOL     OW18796   4.558   6.932   6.064 -0.0796 -0.5233 -0.5907
 6073SOL    HW118797   4.611   6.856   6.090  0.8599  1.1233  2.7602
 6073SOL    HW218798   4.606   6.969   5.990  2.7660  0.0024  1.3299
 6074SOL     OW18799   1.657   5.630   0.404  0.1293 -0.0834 -0.3143
 6074SOL    HW118800   1.602   5.639   0.481  0.7671 -1.4058  0.3249
 6074SOL    HW218801   1.624   5.696   0.343 -1.5209 -0.2006  0.4057
 6075SOL     OW18802   3.775   3.123   8.964 -0.0775  0.6039  0.0081
 6075SOL    HW118803   3.852   3.125   9.021  0.5669 -1.1920 -0.7590
 6075SOL    HW218804   3.743   3.033   8.968 -0.2478  0.5136 -2.1370
 6076SOL     OW18805   0.079   8.369   0.179 -0.1258 -0.0562 -0.5894
 6076SOL    HW118806   0.113   8.403   0.096 -0.1635 -0.0376 -0.5971
 6076SOL    HW218807   0.147   8.309   0.210  0.0376  0.1858 -0.4727
 6077SOL     OW18808   6.903   4.647   8.766 -0.0442 -0.2330 -0.2034
 6077SOL    HW118809   6.907   4.606   8.680  2.5666 -1.0194  0.1993
 6077SOL    HW218810   6.811   4.637   8.793 -0.5428 -1.5037 -2.1420
 6078SOL     OW18811   0.785   1.690   4.441 -0.6254 -0.1171 -0.1185
 6078SOL    HW118812   0.836   1.691   4.522  0.2906  0.7812 -0.6973
 6078SOL    HW218813   0.784   1.598   4.415  0.4267 -0.2006  0.0848
 6079SOL     OW18814   6.116   8.573   2.892  0.3366 -0.2284 -0.7122
 6079SOL    HW118815   6.027   8.602   2.871 -0.2718 -1.2905  0.2666
 6079SOL    HW218816   6.173   8.642   2.857 -0.9336  1.1445 -0.1859
 6080SOL     OW18817   0.573   5.221   6.947  0.2442 -0.3628  0.2356
 6080SOL    HW118818   0.579   5.285   7.018 -0.8502 -0.2207  0.2139
 6080SOL    HW218819   0.573   5.136   6.991 -1.4181 -0.2561  0.5126
 6081SOL     OW18820   7.574   5.458   0.055  0.1671 -0.0911 -0.0214
 6081SOL    HW118821   7.557   5.422   0.142  1.3573 -0.4821  0.0642
 6081SOL    HW218822   7.586   5.552   0.070 -2.1789  0.2816 -0.1406
 6082SOL     OW18823   3.340   9.867   2.303 -0.1141 -0.3447 -0.0973
 6082SOL    HW118824   3.258   9.867   2.353 -0.6988 -1.5632 -0.9946
 6082SOL    HW218825   3.315   9.897   2.216  0.2774 -1.2521 -0.5336
 6083SOL     OW18826   8.240   6.125   8.971 -0.0216 -0.1592  0.5794
 6083SOL    HW118827   8.323   6.108   8.927 -0.6759 -1.6529 -0.1591
 6083SOL    HW218828   8.210   6.208   8.936 -0.1802 -0.9697 -1.3214
 6084SOL     OW18829   4.575   2.040   3.557 -0.1903 -0.1121 -0.0292
 6084SOL    HW118830   4.512   2.039   3.486 -0.4639 -1.6707  0.2051
 6084SOL    HW218831   4.524   2.062   3.635 -0.6000 -1.9537  0.2601
 6085SOL     OW18832   5.454   0.091   5.113  0.9441  0.5908 -0.3268
 6085SOL    HW118833   5.366   0.121   5.093  1.0868  0.1133 -1.8046
 6085SOL    HW218834   5.441   0.007   5.158  0.6360  0.2772 -0.9812
 6086SOL     OW18835   8.476   1.141   4.962  0.9301 -0.0806  0.7116
 6086SOL    HW118836   8.475   1.070   4.899  1.6039 -1.1453  1.8469
 6086SOL    HW218837   8.569   1.158   4.978  0.8057  1.7953 -0.3109
 6087SOL     OW18838   1.816   2.330   2.630 -0.0031  0.3718 -0.2121
 6087SOL    HW118839   1.724   2.314   2.612 -0.8551  2.3561  1.8472
 6087SOL    HW218840   1.863   2.266   2.576 -2.4868  0.2458 -2.3884
 6088SOL     OW18841   7.897   9.453   5.879  0.3313  0.8426 -0.1998
 6088SOL    HW118842   7.853   9.507   5.814  0.5755 -0.7495 -1.7662
 6088SOL    HW218843   7.831   9.437   5.946 -2.0204 -2.2870 -2.9486
 6089SOL     OW18844   1.561   7.393   6.474  0.5119 -0.4197 -0.3083
 6089SOL    HW118845   1.601   7.349   6.549  1.6227  1.4304  0.2638
 6089SOL    HW218846   1.501   7.456   6.514 -0.6550 -1.0178 -1.0778
 6090SOL     OW18847   2.632   9.332   0.581 -0.2554 -0.3069  0.1815
 6090SOL    HW118848   2.574   9.389   0.632 -1.4666 -1.1899 -0.1709
 6090SOL    HW218849   2.650   9.258   0.639 -0.0892 -0.4028  0.0099
 6091SOL     OW18850   3.831   5.240   6.648 -0.1297 -0.0507  0.3639
 6091SOL    HW118851   3.903   5.300   6.628  0.9110 -1.1454  0.7240
 6091SOL    HW218852   3.815   5.192   6.567 -1.1965  0.9179 -0.0257
 6092SOL     OW18853   9.050   7.698   4.915  0.1636 -0.1453  0.0189
 6092SOL    HW118854   9.117   7.716   4.848 -0.2460 -1.6927 -0.8416
 6092SOL    HW218855   9.050   7.603   4.925 -1.8635 -0.1952  0.0272
 6093SOL     OW18856   8.240   1.042   5.790  0.1291  0.2612  0.4113
 6093SOL    HW118857   8.269   1.098   5.718  0.3342 -1.0674 -0.5820
 6093SOL    HW218858   8.180   0.979   5.749 -0.9232  0.3895  1.6823
 6094SOL     OW18859   4.074   9.842   9.080  0.2988  0.5603  0.1511
 6094SOL    HW118860   4.100   9.914   9.023  0.5349 -0.7683 -1.4996
 6094SOL    HW218861   3.986   9.819   9.050  0.9853 -1.0859 -0.7153
 6095SOL     OW18862   6.338   7.225   2.781 -0.6128 -0.1257 -0.0316
 6095SOL    HW118863   6.377   7.221   2.694  1.4124 -1.1138  0.8467
 6095SOL    HW218864   6.371   7.147   2.826 -1.6427  0.3227  1.5914
 6096SOL     OW18865   0.920   8.217   3.794 -0.0040  0.1390  0.0254
 6096SOL    HW118866   0.826   8.203   3.797  0.1736 -1.1941  3.5534
 6096SOL    HW218867   0.944   8.246   3.882  2.9311  0.1784 -0.6587
 6097SOL     OW18868   8.476   4.458   7.049 -0.3037  0.4777  0.0425
 6097SOL    HW118869   8.394   4.467   7.000 -0.0320  0.1530 -0.4852
 6097SOL    HW218870   8.495   4.547   7.079  0.1339  0.9257 -1.4598
 6098SOL     OW18871   2.527   9.416   3.459  0.1375  0.2400 -0.0694
 6098SOL    HW118872   2.510   9.492   3.404 -1.0519 -0.9399 -1.4522
 6098SOL    HW218873   2.534   9.451   3.547  1.3261  2.1237 -0.8438
 6099SOL     OW18874   1.670   9.564   6.613  0.3006  0.2386  0.4060
 6099SOL    HW118875   1.726   9.621   6.560  0.3903 -1.0922 -1.0112
 6099SOL    HW218876   1.588   9.559   6.563  0.4971 -1.3084  0.2062
 6100SOL     OW18877   5.588   4.745   1.648 -0.0273  0.6322 -0.3047
 6100SOL    HW118878   5.580   4.658   1.608 -1.1404  0.8392 -0.5613
 6100SOL    HW218879   5.628   4.798   1.580  2.5028 -0.0822  0.4985
 6101SOL     OW18880   9.632   8.580   7.749  0.0846 -0.0794 -0.0649
 6101SOL    HW118881   9.712   8.633   7.738 -0.0539  0.3965  1.0685
 6101SOL    HW218882   9.564   8.632   7.707  0.2098 -0.0571 -0.2438
 6102SOL     OW18883   4.729   0.226   1.885 -0.3093  0.1884 -1.0341
 6102SOL    HW118884   4.797   0.231   1.817  0.5001 -1.7000 -0.4298
 6102SOL    HW218885   4.761   0.283   1.955  1.3574 -1.5665 -0.2471
 6103SOL     OW18886   4.814   4.970   3.171  0.1485  0.0555  0.0548
 6103SOL    HW118887   4.795   4.914   3.247 -0.0331 -2.2397 -1.5576
 6103SOL    HW218888   4.746   4.946   3.107  0.0544  2.2050 -0.7243
 6104SOL     OW18889   7.705   2.312   1.682 -0.3999  0.3097 -0.1141
 6104SOL    HW118890   7.717   2.332   1.589  0.9183  0.9758  0.1766
 6104SOL    HW218891   7.707   2.216   1.686 -0.7712  0.2649 -0.8004
 6105SOL     OW18892   3.025   3.552   3.991 -0.0376  0.4848  0.1365
 6105SOL    HW118893   3.008   3.635   3.947 -1.1121  0.0190 -0.3616
 6105SOL    HW218894   3.115   3.559   4.021 -0.0658  1.7780 -0.0131
 6106SOL     OW18895   5.891   5.341   7.958 -0.1465  0.3422 -0.3737
 6106SOL    HW118896   5.858   5.416   8.008  0.5028 -0.3196  1.1218
 6106SOL    HW218897   5.813   5.296   7.927 -0.6735 -0.2705  1.6888
 6107SOL     OW18898   4.203   0.642   6.412  0.2886  0.2106 -0.0472
 6107SOL    HW118899   4.183   0.647   6.318 -1.6567  1.0225  0.3533
 6107SOL    HW218900   4.290   0.682   6.420  0.0284  1.1153 -1.3784
 6108SOL     OW18901   9.839   8.438   6.439 -0.1284  0.3379  0.0989
 6108SOL    HW118902   9.919   8.490   6.433 -0.5272  0.9721  0.1808
 6108SOL    HW218903   9.775   8.497   6.477 -0.7423 -0.0483 -0.3217
 6109SOL     OW18904   7.373   5.461   9.844 -0.1208 -0.5652  0.2957
 6109SOL    HW118905   7.411   5.536   9.799 -1.6187  0.5251  0.7542
 6109SOL    HW218906   7.437   5.439   9.912 -0.6133  1.7628  1.6077
 6110SOL     OW18907   3.960   3.281   4.188  0.2119 -0.5879 -0.2811
 6110SOL    HW118908   3.910   3.348   4.142  1.7760  0.4315 -0.5971
 6110SOL    HW218909   3.973   3.316   4.276 -0.8614 -1.5268  0.2835
 6111SOL     OW18910   0.620   8.373   2.734  0.6924  0.3067 -0.1939
 6111SOL    HW118911   0.575   8.437   2.789 -0.2697  0.0980 -0.7128
 6111SOL    HW218912   0.694   8.343   2.787  0.0647  0.4637  0.7920
 6112SOL     OW18913   7.515   1.219   4.899 -0.3308  0.4875  0.3490
 6112SOL    HW118914   7.480   1.189   4.815  0.1191  0.8336  0.0355
 6112SOL    HW218915   7.610   1.207   4.891 -0.2086  1.3236  0.4852
 6113SOL     OW18916   6.405   6.942   2.639 -0.2770 -0.0820  0.0170
 6113SOL    HW118917   6.412   7.031   2.605 -0.7448 -0.4457 -1.0768
 6113SOL    HW218918   6.382   6.889   2.563  0.4618 -1.2194  0.5504
 6114SOL     OW18919   2.564   0.087   5.013  0.2348  0.4067 -0.1019
 6114SOL    HW118920   2.585   0.001   4.976 -1.4414 -1.0891  2.1321
 6114SOL    HW218921   2.572   0.075   5.107 -1.9478  2.1217  0.3874
 6115SOL     OW18922   3.558   6.828   9.922  0.1273  0.0322  0.6336
 6115SOL    HW118923   3.634   6.789   9.964  0.9946  0.3268 -0.6122
 6115SOL    HW218924   3.489   6.761   9.930  1.5695 -1.8694 -1.4806
 6116SOL     OW18925   7.903   9.710   0.328 -0.1028  0.1178  0.3552
 6116SOL    HW118926   7.816   9.726   0.293  0.1180  0.2293 -0.1519
 6116SOL    HW218927   7.917   9.779   0.393 -0.4753 -0.0365  0.6034
 6117SOL     OW18928   6.013   7.350   7.590 -0.1176 -0.3133 -0.3380
 6117SOL    HW118929   5.984   7.354   7.681 -0.6854  0.7517 -0.5448
 6117SOL    HW218930   6.104   7.320   7.594 -0.2853 -0.7239  0.5404
 6118SOL     OW18931   5.152   1.163   9.559  0.2262  0.1008  0.4501
 6118SOL    HW118932   5.062   1.174   9.530 -0.6186 -5.2777 -0.1451
 6118SOL    HW218933   5.146   1.104   9.634  3.2151 -1.6874 -0.5188
 6119SOL     OW18934   3.920   0.322   0.722  0.0132  0.1592 -0.0033
 6119SOL    HW118935   3.860   0.286   0.657  0.2837  0.8014 -0.6248
 6119SOL    HW218936   4.004   0.328   0.676  1.2184 -2.9053  1.4888
 6120SOL     OW18937   7.972   2.625   0.871  0.0183  0.1365 -0.1576
 6120SOL    HW118938   7.890   2.672   0.859  0.9858  2.0059  0.1279
 6120SOL    HW218939   7.966   2.550   0.812 -1.9301  0.1305 -0.0180
 6121SOL     OW18940   7.858   5.184   0.401  0.3924 -0.0659  0.0841
 6121SOL    HW118941   7.768   5.186   0.369  0.0349 -1.3291  0.9195
 6121SOL    HW218942   7.912   5.178   0.322 -0.3458 -0.8181 -0.3750
 6122SOL     OW18943   6.563   5.472   6.918 -0.1283 -0.8404 -0.6564
 6122SOL    HW118944   6.575   5.556   6.872  1.5320 -0.0046  1.1822
 6122SOL    HW218945   6.495   5.490   6.982 -0.2399 -1.1082 -0.6998
 6123SOL     OW18946   1.490   6.293   9.778 -0.1471  0.2714 -0.1183
 6123SOL    HW118947   1.452   6.337   9.854  0.9044  0.2147  0.4669
 6123SOL    HW218948   1.421   6.293   9.712 -0.2934  2.5224 -0.0324
 6124SOL     OW18949   4.318   7.627   8.358 -0.8332 -0.1432  0.1045
 6124SOL    HW118950   4.293   7.539   8.330 -1.2758 -0.5806  1.7785
 6124SOL    HW218951   4.257   7.685   8.312 -2.0677 -0.8884  0.7615
 6125SOL     OW18952   7.305   9.731   7.033  0.2418 -0.2828 -0.5073
 6125SOL    HW118953   7.270   9.750   7.121 -0.7726 -0.6284 -0.8183
 6125SOL    HW218954   7.285   9.809   6.982  1.0508  0.0167 -0.3860
 6126SOL     OW18955   9.216   3.974   8.413  0.2142  0.1211  0.2828
 6126SOL    HW118956   9.139   3.971   8.356  0.4650  1.2128 -0.1537
 6126SOL    HW218957   9.201   3.906   8.478 -1.1021  0.2820  0.1843
 6127SOL     OW18958   3.383   2.233   0.750 -0.0952  0.2559 -1.0224
 6127SOL    HW118959   3.306   2.176   0.743 -0.3010  0.4397 -0.3768
 6127SOL    HW218960   3.451   2.176   0.784  0.0410  0.1082 -1.5338
 6128SOL     OW18961   1.813   9.223   2.119 -0.2499 -0.1931  0.0013
 6128SOL    HW118962   1.824   9.318   2.115 -0.3332 -0.1427  0.7522
 6128SOL    HW218963   1.888   9.188   2.071 -2.2181  0.2721 -3.7917
 6129SOL     OW18964   1.188   9.356   3.312  0.3409  0.7111 -0.4109
 6129SOL    HW118965   1.114   9.375   3.369 -0.1247  0.3294 -0.8878
 6129SOL    HW218966   1.158   9.379   3.224  0.0802 -1.2556 -0.8890
 6130SOL     OW18967   1.825   1.345   5.872  0.0274 -0.1631  0.5546
 6130SOL    HW118968   1.763   1.335   5.800  0.9404  1.8562 -0.6029
 6130SOL    HW218969   1.862   1.258   5.885 -1.3547 -0.9026 -0.2717
 6131SOL     OW18970   5.285   7.350   2.201 -0.0590 -0.1506 -0.4983
 6131SOL    HW118971   5.207   7.356   2.257  0.6771 -1.5957  0.7304
 6131SOL    HW218972   5.359   7.359   2.261  0.7694  0.8144 -1.6070
 6132SOL     OW18973   8.899   0.840   4.261 -0.4995  0.0261 -0.3937
 6132SOL    HW118974   8.832   0.906   4.243 -1.6388 -1.4658 -2.0644
 6132SOL    HW218975   8.895   0.827   4.356  0.0680  2.5704  0.0643
 6133SOL     OW18976   4.490   3.512   6.320  0.4176 -0.0315 -0.2885
 6133SOL    HW118977   4.556   3.568   6.362  0.9813 -1.3164  0.5957
 6133SOL    HW218978   4.432   3.574   6.276  0.3937  1.3461  1.5440
 6134SOL     OW18979   7.175   2.348   2.387 -0.0808  0.8750  0.3097
 6134SOL    HW118980   7.187   2.382   2.475 -0.1918  0.2263  0.5863
 6134SOL    HW218981   7.120   2.270   2.399  2.4151 -1.0449  0.0552
 6135SOL     OW18982   6.322   4.327   6.505 -0.3743 -0.3567  0.0245
 6135SOL    HW118983   6.232   4.308   6.531 -0.3697  1.2275  1.3545
 6135SOL    HW218984   6.376   4.276   6.565 -0.3270 -2.3351 -1.6030
 6136SOL     OW18985   6.523   7.657   6.417  0.5272  0.8688  0.2415
 6136SOL    HW118986   6.478   7.574   6.403  1.1447  0.8613 -1.9724
 6136SOL    HW218987   6.608   7.631   6.455  0.4261  0.5563  0.2585
 6137SOL     OW18988   7.714   7.955   3.450 -0.5796 -0.9747 -0.2499
 6137SOL    HW118989   7.767   8.035   3.454 -0.8200 -0.8132 -0.2925
 6137SOL    HW218990   7.628   7.982   3.480 -0.5257 -1.3358  0.2231
 6138SOL     OW18991   7.552   3.247   4.048  0.0168 -0.2715 -0.2151
 6138SOL    HW118992   7.510   3.323   4.088  0.3556  0.2250 -0.7827
 6138SOL    HW218993   7.551   3.265   3.954  0.1206 -0.9588 -0.3577
 6139SOL     OW18994   2.377   0.407   0.087 -0.2713 -0.3993 -0.4005
 6139SOL    HW118995   2.370   0.321   0.045  0.6149  0.1250 -1.6625
 6139SOL    HW218996   2.286   0.435   0.100 -0.5765 -0.5634 -2.0244
 6140SOL     OW18997   7.349   0.283   5.884 -0.2640  0.2341  0.0208
 6140SOL    HW118998   7.320   0.355   5.940  2.6312  1.2012  0.4085
 6140SOL    HW218999   7.275   0.268   5.825 -2.2155  1.2852  2.0113
 6141SOL     OW19000   2.833   8.795   7.205 -0.0190 -0.1992  0.0458
 6141SOL    HW119001   2.845   8.803   7.110 -1.4411 -2.2370 -0.3513
 6141SOL    HW219002   2.851   8.703   7.224 -1.3887 -0.2105  1.4807
 6142SOL     OW19003   8.257   4.247   8.579 -0.1980 -0.0475 -0.2606
 6142SOL    HW119004   8.341   4.202   8.589 -1.2129 -1.8741  0.5286
 6142SOL    HW219005   8.234   4.236   8.487  0.6939  1.0195 -0.6315
 6143SOL     OW19006   3.184   4.341   1.182  0.3006 -0.0424 -0.7227
 6143SOL    HW119007   3.149   4.368   1.266 -0.4316 -0.2250 -0.9619
 6143SOL    HW219008   3.278   4.328   1.197  0.1885  0.0262  0.0315
 6144SOL     OW19009   9.563   1.232   2.471  0.1543  0.0241  0.1622
 6144SOL    HW119010   9.638   1.288   2.491 -0.1408  0.3552  0.3417
 6144SOL    HW219011   9.588   1.146   2.503 -0.5008  0.6228  2.4304
 6145SOL     OW19012   4.639   8.553   2.862 -0.1008 -0.4077 -0.0592
 6145SOL    HW119013   4.565   8.582   2.916 -1.1368 -0.8073 -1.2096
 6145SOL    HW219014   4.654   8.625   2.801  0.7716 -0.1419  0.4548
 6146SOL     OW19015   6.775   1.491   9.323 -0.1884 -0.5794 -0.0090
 6146SOL    HW119016   6.720   1.441   9.384 -2.1370  1.6239  0.1637
 6146SOL    HW219017   6.864   1.470   9.349 -0.9447 -1.7715  1.8469
 6147SOL     OW19018   1.754   6.081   7.197 -0.4520 -0.2662  0.4253
 6147SOL    HW119019   1.739   6.140   7.123  0.1404  0.0864  0.5776
 6147SOL    HW219020   1.766   6.140   7.272 -2.4508 -0.6433  1.0852
 6148SOL     OW19021   7.724   3.679   1.233 -0.3778  0.2936 -0.0493
 6148SOL    HW119022   7.710   3.621   1.308 -0.7664 -0.5862 -0.7884
 6148SOL    HW219023   7.670   3.641   1.163  1.3024  0.1132 -1.2961
 6149SOL     OW19024   3.680   1.854   0.533 -0.0275  0.4059  0.0700
 6149SOL    HW119025   3.673   1.939   0.489 -0.5950  0.8556  1.0024
 6149SOL    HW219026   3.604   1.805   0.503 -0.5523  0.8042  0.7251
 6150SOL     OW19027   7.237   5.927   4.935  0.0589 -0.3829  0.4308
 6150SOL    HW119028   7.281   5.974   5.006 -2.5433 -1.1482  2.7530
 6150SOL    HW219029   7.169   5.987   4.905 -0.2215 -0.8827  0.0531
 6151SOL     OW19030   6.528   1.910   7.602 -0.5570  0.2619  0.2836
 6151SOL    HW119031   6.559   1.926   7.691 -1.1991 -0.3553  0.6268
 6151SOL    HW219032   6.590   1.956   7.546  0.4546 -0.2156  0.9963
 6152SOL     OW19033   1.146   9.092   4.875  0.1845  0.4737 -0.1981
 6152SOL    HW119034   1.092   9.110   4.952  0.0992 -0.1038 -0.1152
 6152SOL    HW219035   1.187   9.175   4.854 -0.5285  0.8573 -0.0978
 6153SOL     OW19036   9.172   1.032   9.183  0.2841 -0.0400  0.0390
 6153SOL    HW119037   9.238   1.095   9.212 -0.5907  0.5070  0.9465
 6153SOL    HW219038   9.098   1.086   9.156 -0.1152 -0.6613 -0.1310
 6154SOL     OW19039   3.094   5.987   4.706 -0.4083  0.1976  0.0879
 6154SOL    HW119040   3.119   5.997   4.798  1.2065 -0.5898 -0.2281
 6154SOL    HW219041   3.174   6.008   4.658 -1.2028  0.4684 -1.1363
 6155SOL     OW19042   3.202   9.433   0.730  0.1540  0.3811  0.3170
 6155SOL    HW119043   3.270   9.454   0.666  0.0996  0.6406  0.3431
 6155SOL    HW219044   3.125   9.483   0.701 -0.0267  0.0848  0.2841
 6156SOL     OW19045   7.142   8.565   4.742  0.2777  0.2445  0.4886
 6156SOL    HW119046   7.106   8.497   4.685 -3.9382  0.8983  2.0115
 6156SOL    HW219047   7.124   8.647   4.696  2.3783  0.5629  0.1376
 6157SOL     OW19048   5.268   0.149   0.992  0.0872  0.4871  0.4543
 6157SOL    HW119049   5.191   0.204   0.979 -1.1707 -0.7839  2.1206
 6157SOL    HW219050   5.242   0.086   1.059  2.6007  0.0250  1.1084
 6158SOL     OW19051   7.977   6.768   3.056  0.3596  0.4751  0.2040
 6158SOL    HW119052   7.925   6.698   3.015  1.3342 -0.2664  0.2060
 6158SOL    HW219053   7.997   6.828   2.985  2.0654 -0.8176 -0.4625
 6159SOL     OW19054   2.760   3.780   5.236  0.5132  0.2986 -0.3584
 6159SOL    HW119055   2.786   3.798   5.326  0.9727 -0.4106 -0.3447
 6159SOL    HW219056   2.841   3.752   5.192  0.1491 -0.0913 -0.7964
 6160SOL     OW19057   8.700   0.817   8.297  0.1297 -0.0078  0.1996
 6160SOL    HW119058   8.608   0.796   8.285  0.3884 -1.0707 -0.0236
 6160SOL    HW219059   8.745   0.772   8.224  0.7921  0.6977  0.1623
 6161SOL     OW19060   5.600   4.445   4.938  0.3301  0.3379  0.5535
 6161SOL    HW119061   5.662   4.404   4.997 -1.3703  0.1211  2.3002
 6161SOL    HW219062   5.602   4.391   4.859  0.1859 -1.4593  1.7240
 6162SOL     OW19063   8.140   0.801   8.714  0.0880 -0.0920 -0.8412
 6162SOL    HW119064   8.130   0.847   8.631  2.6400  2.5463  0.1441
 6162SOL    HW219065   8.211   0.739   8.700  3.4683  3.1776  0.1769
 6163SOL     OW19066   5.743   3.890   3.166 -0.2391 -0.7138  0.1475
 6163SOL    HW119067   5.718   3.879   3.074  0.5266  0.3553 -0.2177
 6163SOL    HW219068   5.660   3.894   3.214 -1.0854  4.0506 -1.1483
 6164SOL     OW19069  -0.013   2.972   8.788 -0.1867  0.2241 -0.2638
 6164SOL    HW119070   0.067   3.014   8.821 -0.7273 -0.6103  2.3669
 6164SOL    HW219071   0.009   2.946   8.698  2.8322 -0.7537  0.6202
 6165SOL     OW19072   8.257   1.563   0.116 -0.1597  0.8136  0.1713
 6165SOL    HW119073   8.178   1.563   0.171 -0.2773 -2.1730  0.1467
 6165SOL    HW219074   8.225   1.545   0.028  0.5505 -0.8158  0.2260
 6166SOL     OW19075   0.218   1.720   3.972 -0.0482  0.1838  0.3042
 6166SOL    HW119076   0.126   1.694   3.970  0.0019 -0.2388  1.8402
 6166SOL    HW219077   0.239   1.743   3.881 -1.3118 -0.9373 -0.3087
 6167SOL     OW19078   8.807   3.193   8.293  0.5385 -0.2775  0.2743
 6167SOL    HW119079   8.805   3.243   8.212  1.3693  0.0982  0.4740
 6167SOL    HW219080   8.787   3.256   8.362 -0.9428 -0.7498  0.3171
 6168SOL     OW19081   6.454   9.417   3.284 -0.1390  0.3355 -0.0614
 6168SOL    HW119082   6.428   9.418   3.376  0.5663 -1.1099  0.1802
 6168SOL    HW219083   6.535   9.468   3.282 -0.7484  1.3352 -0.1022
 6169SOL     OW19084   4.623   6.305   3.706  0.3839 -1.0773  0.1017
 6169SOL    HW119085   4.639   6.230   3.649 -1.1614 -1.4329  0.0994
 6169SOL    HW219086   4.537   6.288   3.745 -0.0750  0.7345 -0.0130
 6170SOL     OW19087   3.352   9.651   8.760  0.5900 -0.8974 -0.0431
 6170SOL    HW119088   3.274   9.653   8.704  0.0567 -0.5085  0.6932
 6170SOL    HW219089   3.332   9.587   8.828  1.6444 -2.1194 -0.8524
 6171SOL     OW19090   6.630   6.167   7.350  0.0997 -0.6059  0.6585
 6171SOL    HW119091   6.639   6.177   7.255  2.0638  0.7942  0.9344
 6171SOL    HW219092   6.673   6.083   7.369  1.3229 -0.0405  0.4796
 6172SOL     OW19093   9.230   1.963   7.336 -0.4014  0.2994  0.5968
 6172SOL    HW119094   9.184   2.022   7.275  0.7930  1.3482  0.6776
 6172SOL    HW219095   9.186   1.878   7.325 -0.6498  0.6305 -1.2379
 6173SOL     OW19096   8.617   7.864   6.855  0.0093 -0.8953  0.3580
 6173SOL    HW119097   8.577   7.877   6.941 -0.4216 -2.0838  0.3503
 6173SOL    HW219098   8.656   7.949   6.834 -1.9857  0.1353  0.6233
 6174SOL     OW19099   9.207   6.485   6.580 -0.8603 -0.3304 -0.2955
 6174SOL    HW119100   9.289   6.448   6.547  0.0837  0.8516  0.6520
 6174SOL    HW219101   9.163   6.520   6.503  0.2026  0.3103 -0.6189
 6175SOL     OW19102   9.331   7.441   9.860 -0.0429  0.2883 -0.0149
 6175SOL    HW119103   9.278   7.411   9.785 -0.1108 -2.6903  1.0659
 6175SOL    HW219104   9.284   7.409   9.937  2.0468 -0.2945  1.1004
 6176SOL     OW19105   4.252   0.347   9.796  0.2773 -0.0127  0.0095
 6176SOL    HW119106   4.222   0.256   9.791  1.1549 -0.4309  1.6568
 6176SOL    HW219107   4.326   0.351   9.734  0.0834 -0.3388 -0.2477
 6177SOL     OW19108   6.394   9.861   6.929  0.1211  0.0805  0.2069
 6177SOL    HW119109   6.455   9.791   6.906 -0.1375  0.4447 -1.7722
 6177SOL    HW219110   6.449   9.933   6.958  0.5976  0.0708 -0.6363
 6178SOL     OW19111   8.645   8.335   4.392 -0.7966  0.3643  0.2005
 6178SOL    HW119112   8.579   8.404   4.389 -0.3334  0.7962 -0.5462
 6178SOL    HW219113   8.608   8.268   4.448 -1.0432  1.4340  1.3529
 6179SOL     OW19114   5.513   6.841   1.834 -0.5642  0.5292 -0.5598
 6179SOL    HW119115   5.527   6.869   1.925 -0.6145 -1.3787  0.0730
 6179SOL    HW219116   5.423   6.870   1.815 -1.4943 -1.1873  0.8939
 6180SOL     OW19117   2.527   0.304   6.508 -0.8842  0.1566 -0.1273
 6180SOL    HW119118   2.578   0.381   6.482  1.1178 -0.6417  1.2229
 6180SOL    HW219119   2.536   0.243   6.434  0.0100  0.0754  0.0479
 6181SOL     OW19120   9.164   0.489   1.228 -0.3959  0.9807  0.2180
 6181SOL    HW119121   9.089   0.455   1.277 -0.8308  0.0189 -1.0447
 6181SOL    HW219122   9.125   0.554   1.169 -0.3108  0.2710 -0.6464
 6182SOL     OW19123   9.854   1.053   8.026  0.4910  0.5085  0.2170
 6182SOL    HW119124   9.941   1.012   8.032  0.9526  1.4488  0.1729
 6182SOL    HW219125   9.795   0.981   8.003  1.6218  0.2443 -2.1570
 6183SOL     OW19126   1.254   0.951   2.902 -0.0346 -0.4812 -0.1829
 6183SOL    HW119127   1.184   0.933   2.839 -0.3380 -0.4072  0.1322
 6183SOL    HW219128   1.251   0.878   2.964 -0.9605  0.3718  0.8222
 6184SOL     OW19129   5.299   5.477   5.024 -0.3923 -0.3336  0.1820
 6184SOL    HW119130   5.340   5.465   5.110 -2.0235 -1.6119  0.8485
 6184SOL    HW219131   5.269   5.567   5.024  0.6334  0.0186  0.4808
 6185SOL     OW19132   1.068   7.646   2.068  0.6629 -0.1623 -0.0386
 6185SOL    HW119133   1.035   7.723   2.115 -2.0038 -0.9186 -0.5028
 6185SOL    HW219134   0.996   7.583   2.071  1.3668 -1.2496 -2.8345
 6186SOL     OW19135   1.306   2.495   3.763  0.1102 -0.3496  0.1688
 6186SOL    HW119136   1.227   2.483   3.815  0.7397 -0.8696  1.0385
 6186SOL    HW219137   1.285   2.459   3.678 -1.2667  1.3887 -0.2910
 6187SOL     OW19138   0.643   0.244   7.143 -0.2836  0.1745  0.2171
 6187SOL    HW119139   0.638   0.254   7.238  0.0794 -1.3977  0.4251
 6187SOL    HW219140   0.641   0.149   7.128 -1.9593  0.4053 -1.4452
 6188SOL     OW19141   1.388   3.694   2.575  0.0095  0.5274 -0.0051
 6188SOL    HW119142   1.313   3.688   2.635 -2.8448  1.7147 -3.1852
 6188SOL    HW219143   1.398   3.605   2.540  1.5091 -0.1036  1.8205
 6189SOL     OW19144   5.862   2.401   8.021 -0.2485 -0.0641 -0.5057
 6189SOL    HW119145   5.956   2.397   8.038  0.2823 -0.2703 -3.0693
 6189SOL    HW219146   5.855   2.402   7.925 -2.9385 -2.1296 -0.4426
 6190SOL     OW19147   0.940   1.276   8.983 -0.2277 -0.7292  0.0720
 6190SOL    HW119148   0.919   1.307   9.071 -1.1935 -0.0363 -0.3862
 6190SOL    HW219149   1.014   1.216   8.995  0.0403 -0.1752  1.2810
 6191SOL     OW19150   0.237   5.730   3.725 -0.3579 -0.5445 -0.0855
 6191SOL    HW119151   0.245   5.736   3.630  0.0302 -0.0509 -0.0245
 6191SOL    HW219152   0.323   5.755   3.759 -0.7771  0.2708  0.4265
 6192SOL     OW19153   6.286   4.380   2.247  0.3704  0.1555 -0.2873
 6192SOL    HW119154   6.263   4.462   2.289 -0.6023  0.5353 -1.5027
 6192SOL    HW219155   6.288   4.400   2.153 -0.0161 -1.2329 -0.6146
 6193SOL     OW19156   9.131   5.635   3.093 -0.8781 -0.1176  0.0880
 6193SOL    HW119157   9.114   5.591   3.176  0.6367  1.3622  1.2651
 6193SOL    HW219158   9.168   5.720   3.119  0.5878 -0.0180 -2.1078
 6194SOL     OW19159   3.757   7.207   6.299 -0.0298 -0.2951  0.3811
 6194SOL    HW119160   3.846   7.177   6.279  0.0942 -0.5996  1.3511
 6194SOL    HW219161   3.718   7.224   6.213  1.4213  1.2163 -0.0424
 6195SOL     OW19162   9.953   4.916   7.908 -0.3971  0.7527  0.4841
 6195SOL    HW119163   9.959   4.916   7.813 -1.8524  3.0808  0.3160
 6195SOL    HW219164  10.005   4.992   7.935  0.3155 -0.0957  1.6218
 6196SOL     OW19165   3.622   2.016   4.757 -0.4253 -0.7481 -0.2879
 6196SOL    HW119166   3.581   1.971   4.830  0.3046 -0.1582  0.5022
 6196SOL    HW219167   3.713   2.030   4.785 -0.2371 -0.1810 -1.1470
 6197SOL     OW19168   5.183   1.853   7.867  0.4225 -0.2144 -0.5887
 6197SOL    HW119169   5.089   1.871   7.874  0.5088  0.3585 -0.8134
 6197SOL    HW219170   5.209   1.826   7.955  0.2032  0.4392 -0.3159
 6198SOL     OW19171   6.621   8.323   6.613  0.2122 -0.2138  0.4828
 6198SOL    HW119172   6.591   8.234   6.632  0.1516 -0.1911  0.4942
 6198SOL    HW219173   6.597   8.373   6.690  1.1086 -0.3909  0.8961
 6199SOL     OW19174   7.061   9.092   7.083  0.1218 -0.3128 -0.3831
 6199SOL    HW119175   7.062   9.130   7.171  0.6273 -0.7816 -0.1838
 6199SOL    HW219176   6.968   9.071   7.068 -0.4151  2.2046 -1.0378
 6200SOL     OW19177   1.103   6.835   2.061  0.0843  0.3648 -0.0514
 6200SOL    HW119178   1.044   6.845   1.986  0.4916 -0.7776 -0.5468
 6200SOL    HW219179   1.050   6.791   2.127  0.2542 -0.2669 -0.3356
 6201SOL     OW19180   4.322   0.828   3.658  0.5430 -0.2625 -0.2259
 6201SOL    HW119181   4.336   0.896   3.723  0.4665 -1.9045  1.5954
 6201SOL    HW219182   4.244   0.857   3.609  0.3649  0.8219  0.6777
 6202SOL     OW19183   4.085   7.847   3.724 -0.1921 -0.3255  0.2040
 6202SOL    HW119184   4.043   7.774   3.679 -0.5445 -0.4564  0.7336
 6202SOL    HW219185   4.067   7.923   3.669 -0.9427 -0.4195  0.3048
 6203SOL     OW19186   2.801   8.283   1.052  0.5496 -0.3996 -0.0802
 6203SOL    HW119187   2.773   8.371   1.078  2.1539  0.7502 -1.8856
 6203SOL    HW219188   2.756   8.224   1.112 -1.1528  1.6008  0.7341
 6204SOL     OW19189   3.860   6.144   4.970 -0.2497 -0.3141 -0.2686
 6204SOL    HW119190   3.862   6.114   5.061 -1.7970  1.2685  0.3548
 6204SOL    HW219191   3.946   6.185   4.958  0.4668 -1.6640  0.0289
 6205SOL     OW19192   2.264   7.438   3.073 -0.1639  0.2661  0.2141
 6205SOL    HW119193   2.308   7.515   3.108 -1.1918  0.6147  0.7777
 6205SOL    HW219194   2.201   7.474   3.010 -2.7478  0.2186  2.5744
 6206SOL     OW19195   9.503   3.794   0.519  0.4393 -0.7511  0.3371
 6206SOL    HW119196   9.541   3.800   0.432  0.4944  0.4932  0.4416
 6206SOL    HW219197   9.562   3.845   0.575 -0.8532  0.4202  0.6683
 6207SOL     OW19198   1.485   0.262   0.050  0.5045 -0.0618  0.7119
 6207SOL    HW119199   1.513   0.332  -0.009  0.2372 -0.5425  0.0085
 6207SOL    HW219200   1.539   0.274   0.128  0.6271  0.7836  0.5093
 6208SOL     OW19201   8.935   4.544   4.595 -0.5694  0.2682  0.1680
 6208SOL    HW119202   8.951   4.490   4.517  2.3116  0.8813  0.2181
 6208SOL    HW219203   8.898   4.483   4.659 -1.1906 -0.6770 -1.0365
 6209SOL     OW19204   0.583   7.380   5.579  0.1659 -0.1588 -0.6737
 6209SOL    HW119205   0.530   7.444   5.531 -1.6245  0.0403  1.4136
 6209SOL    HW219206   0.616   7.428   5.655  0.6275 -1.1567 -0.2255
 6210SOL     OW19207   4.473   0.201   1.305  0.1617  0.5067  0.0227
 6210SOL    HW119208   4.446   0.118   1.266 -0.3801  0.4324  0.5257
 6210SOL    HW219209   4.443   0.267   1.243 -0.6270  0.3857  0.2506
 6211SOL     OW19210   4.038   9.073   9.820  0.3546  0.0310 -0.1632
 6211SOL    HW119211   4.001   9.155   9.853  1.8359  0.9807 -0.7443
 6211SOL    HW219212   3.979   9.005   9.852 -0.8648  1.3116  0.4118
 6212SOL     OW19213   1.672   4.020   3.326 -0.1450 -0.1005  0.5658
 6212SOL    HW119214   1.592   4.022   3.378  0.2137 -0.3979  1.1409
 6212SOL    HW219215   1.667   3.937   3.278 -0.9891  0.6596 -0.7256
 6213SOL     OW19216   3.401   5.480   8.976  0.0629  0.6124 -0.7036
 6213SOL    HW119217   3.477   5.467   8.919 -0.1721  0.9998 -1.1125
 6213SOL    HW219218   3.336   5.522   8.920 -0.8128 -0.6060 -0.6263
 6214SOL     OW19219   0.816   5.667   6.127 -0.2304 -0.2520  0.4360
 6214SOL    HW119220   0.774   5.604   6.069 -0.9194 -0.7900  1.4833
 6214SOL    HW219221   0.743   5.714   6.168  0.2025 -0.6039  1.6416
 6215SOL     OW19222   0.342   2.530   6.935  1.1402 -0.4383  0.4355
 6215SOL    HW119223   0.378   2.607   6.891  0.5816 -0.4051  0.0159
 6215SOL    HW219224   0.385   2.529   7.020 -0.5941  1.7803  1.4609
 6216SOL     OW19225   1.058   4.799   7.895  0.3817  0.4183  0.1620
 6216SOL    HW119226   1.011   4.722   7.863  2.7147 -0.9823 -0.1223
 6216SOL    HW219227   1.022   4.872   7.844 -0.1303 -0.8818 -1.4355
 6217SOL     OW19228   9.278   5.352   2.425 -0.0636  0.5094 -0.2016
 6217SOL    HW119229   9.264   5.258   2.412  2.6844  0.0762 -0.5842
 6217SOL    HW219230   9.318   5.359   2.511  1.5162  1.0715 -0.9374
 6218SOL     OW19231   0.593   7.898   5.648 -0.0810  1.0033 -0.4466
 6218SOL    HW119232   0.516   7.926   5.698  0.5497  2.1805 -0.0815
 6218SOL    HW219233   0.557   7.857   5.570 -1.1331  3.1456 -1.1757
 6219SOL     OW19234   3.815   5.080   5.141 -0.5479  0.0440  0.1691
 6219SOL    HW119235   3.773   5.069   5.055  1.6672 -1.0715 -0.8652
 6219SOL    HW219236   3.796   4.998   5.187 -0.3164 -0.0786  0.0522
 6220SOL     OW19237   8.126   6.880   2.562  0.0378 -0.0549 -0.2472
 6220SOL    HW119238   8.162   6.935   2.492  0.6767 -0.4196 -0.2167
 6220SOL    HW219239   8.132   6.791   2.528  1.0889 -0.3128  0.5720
 6221SOL     OW19240   0.488   0.344   9.644  0.6197 -0.0411  0.7455
 6221SOL    HW119241   0.411   0.292   9.626 -2.1572  3.4289  1.4484
 6221SOL    HW219242   0.492   0.350   9.739 -0.1129  2.1494  0.7023
 6222SOL     OW19243   4.834   8.103   1.746 -0.7838 -0.2743  0.3772
 6222SOL    HW119244   4.771   8.149   1.691 -0.4401  0.0798  0.2778
 6222SOL    HW219245   4.826   8.011   1.720 -1.4239 -0.2744  0.5313
 6223SOL     OW19246   3.852   4.857   1.449 -0.6469  0.4199  0.4111
 6223SOL    HW119247   3.810   4.775   1.421 -0.5560  0.9189 -1.2623
 6223SOL    HW219248   3.916   4.829   1.515  0.0494 -0.9888 -0.7971
 6224SOL     OW19249   3.926   3.663   2.535 -0.3325  0.7041 -0.1373
 6224SOL    HW119250   4.020   3.658   2.517  0.0411  2.9724  0.8455
 6224SOL    HW219251   3.887   3.676   2.448  0.1702 -0.7181 -0.6117
 6225SOL     OW19252   5.333   5.714   4.300 -0.8859 -0.1014  0.5360
 6225SOL    HW119253   5.340   5.657   4.377 -0.1929 -1.4827 -0.5102
 6225SOL    HW219254   5.417   5.704   4.255 -0.8968  1.4806  0.1134
 6226SOL     OW19255   4.380   1.288   7.227 -0.3634 -0.1188  0.5010
 6226SOL    HW119256   4.433   1.264   7.303 -0.7496  1.1505  1.2124
 6226SOL    HW219257   4.415   1.373   7.200 -1.8642  0.6500  0.8513
 6227SOL     OW19258   0.387   9.051   8.231 -0.0128  0.6992  0.7091
 6227SOL    HW119259   0.322   9.042   8.300  0.0507 -1.0221  0.5902
 6227SOL    HW219260   0.335   9.060   8.151 -0.2494 -2.6124  0.3570
 6228SOL     OW19261   2.659   3.445   5.591  0.2316  0.0208 -0.2102
 6228SOL    HW119262   2.570   3.436   5.625  0.0420  1.5389 -0.2194
 6228SOL    HW219263   2.685   3.356   5.567 -1.4964 -0.3815 -0.7450
 6229SOL     OW19264   2.521   9.587   4.366  0.3030  0.1108 -0.2556
 6229SOL    HW119265   2.440   9.606   4.413 -0.2435 -1.5678 -0.4387
 6229SOL    HW219266   2.589   9.631   4.416 -0.8748  3.1866 -1.1462
 6230SOL     OW19267   6.335   8.588   8.188  0.2841 -0.4013 -0.0446
 6230SOL    HW119268   6.314   8.597   8.095 -1.5440 -0.2448  0.3350
 6230SOL    HW219269   6.333   8.678   8.222  0.4670 -0.5042  0.2388
 6231SOL     OW19270   4.651   4.169   8.334 -0.3703 -0.1596  0.0538
 6231SOL    HW119271   4.654   4.198   8.243 -1.3043 -0.6411 -0.1349
 6231SOL    HW219272   4.617   4.245   8.382  0.2847  0.1538  0.0402
 6232SOL     OW19273   5.363   5.785   1.018 -0.8388 -0.3084 -0.2316
 6232SOL    HW119274   5.369   5.750   1.107  1.2862 -0.0851 -0.2407
 6232SOL    HW219275   5.401   5.717   0.963  0.1117  0.5485 -0.6598
 6233SOL     OW19276   2.512   6.853   2.673  0.0446 -0.5579 -0.2055
 6233SOL    HW119277   2.484   6.919   2.609 -0.7048 -0.4718  0.2083
 6233SOL    HW219278   2.432   6.806   2.696  0.1684 -0.1198  1.2161
 6234SOL     OW19279   5.226   6.955   5.156  0.1396  0.3160 -0.2407
 6234SOL    HW119280   5.196   6.890   5.092  0.5389 -1.8038  1.6156
 6234SOL    HW219281   5.168   6.944   5.231  2.7487 -0.9535  1.7772
 6235SOL     OW19282   9.792   4.745   9.004  0.2092 -0.0022 -0.5292
 6235SOL    HW119283   9.824   4.787   8.924  0.9993  0.2965 -0.0675
 6235SOL    HW219284   9.730   4.809   9.040  1.1280  0.6337 -0.0255
 6236SOL     OW19285   6.217   9.629   1.792 -0.1770 -0.1089 -0.2159
 6236SOL    HW119286   6.179   9.698   1.847 -2.3629 -2.2365  1.1241
 6236SOL    HW219287   6.148   9.607   1.731  0.6994 -0.7524 -0.9946
 6237SOL     OW19288   8.850   1.335   2.280  0.5139  0.1810 -0.3861
 6237SOL    HW119289   8.850   1.266   2.214  0.5542 -0.4542  0.2577
 6237SOL    HW219290   8.757   1.351   2.297  0.4935 -0.5375  0.2755
 6238SOL     OW19291   5.933   4.152   2.647  0.5111  0.3955  0.0152
 6238SOL    HW119292   5.943   4.189   2.735 -2.0707 -1.0497  1.0225
 6238SOL    HW219293   5.981   4.070   2.649 -0.6686 -0.3188  0.6143
 6239SOL     OW19294   5.596   3.499   1.170  0.5487  0.6015 -0.5932
 6239SOL    HW119295   5.622   3.413   1.201 -1.3337  0.7711  1.8193
 6239SOL    HW219296   5.605   3.495   1.075 -0.3350 -2.5885 -0.6524
 6240SOL     OW19297   3.546   7.626   3.949  0.5124  0.1043 -0.7248
 6240SOL    HW119298   3.584   7.589   3.869  0.1450 -1.4634 -0.2072
 6240SOL    HW219299   3.620   7.661   3.997  0.9160 -0.2105 -1.1124
 6241SOL     OW19300   9.745   0.158   8.964  0.9515  0.3045  0.1314
 6241SOL    HW119301   9.839   0.171   8.954  1.2542 -2.5543 -1.6818
 6241SOL    HW219302   9.737   0.073   9.008 -0.7411 -0.6355 -1.8574
 6242SOL     OW19303   9.625   3.135   2.410 -0.0443 -0.4239 -0.1066
 6242SOL    HW119304   9.597   3.062   2.355  0.0154  0.2822 -1.0966
 6242SOL    HW219305   9.680   3.095   2.477  0.1408 -1.2633 -0.7530
 6243SOL     OW19306   4.509   9.520   6.974 -0.0411  0.2158 -0.7715
 6243SOL    HW119307   4.486   9.466   7.050 -1.9215 -1.9996 -2.7288
 6243SOL    HW219308   4.514   9.609   7.008 -2.0347 -0.5038  1.7463
 6244SOL     OW19309   7.995   5.664   6.161 -0.5122  0.2277 -0.4260
 6244SOL    HW119310   7.909   5.705   6.159 -0.8383 -0.4362 -0.0463
 6244SOL    HW219311   8.004   5.623   6.075  0.1692  1.7660 -1.1484
 6245SOL     OW19312   9.519   4.551   6.199  0.0491  1.0156  0.3714
 6245SOL    HW119313   9.570   4.573   6.278  0.2406 -0.4610  0.6862
 6245SOL    HW219314   9.433   4.525   6.233  0.1152  0.4307  0.0957
 6246SOL     OW19315   8.697   6.591   1.467  0.1023 -0.4694 -0.2593
 6246SOL    HW119316   8.634   6.661   1.477  1.4917  0.8110 -0.1344
 6246SOL    HW219317   8.708   6.555   1.556 -0.1765 -0.4716 -0.2246
 6247SOL     OW19318   6.439   0.314   5.730  0.1314 -0.7776 -0.5227
 6247SOL    HW119319   6.454   0.294   5.637  0.3974 -0.6040 -0.5183
 6247SOL    HW219320   6.412   0.406   5.730 -0.0242 -0.8233 -0.4412
 6248SOL     OW19321   8.460   9.127   4.924  0.5146  0.5978 -0.5122
 6248SOL    HW119322   8.396   9.147   4.855  0.1075  1.8732  0.2078
 6248SOL    HW219323   8.416   9.059   4.977  0.1687  0.7550 -0.5917
 6249SOL     OW19324   5.950   4.929   9.570 -0.1349 -0.2726  0.1675
 6249SOL    HW119325   6.006   4.984   9.625  0.7932 -1.3748  0.3615
 6249SOL    HW219326   6.011   4.872   9.523 -0.8663  0.9517 -2.4264
 6250SOL     OW19327   9.915   9.617   0.102 -0.8930 -0.3952 -0.8692
 6250SOL    HW119328   9.874   9.561   0.168 -1.2822  0.3273 -0.4919
 6250SOL    HW219329   9.846   9.677   0.074  0.1597  1.6096  0.6140
 6251SOL     OW19330   4.668   7.179   3.286 -0.0133 -0.1172 -0.6241
 6251SOL    HW119331   4.615   7.245   3.331  2.2417  0.3042  1.6274
 6251SOL    HW219332   4.604   7.126   3.239 -2.4255  0.5253  1.6532
 6252SOL     OW19333   0.305   2.298   4.339 -0.3554 -0.2296 -0.1096
 6252SOL    HW119334   0.346   2.243   4.406 -0.5697  0.6448  0.7734
 6252SOL    HW219335   0.376   2.318   4.278 -0.8024 -3.5147 -1.9088
 6253SOL     OW19336   6.714   4.435   0.622 -0.3233  0.3385  0.3649
 6253SOL    HW119337   6.677   4.373   0.685  0.0039 -0.9365 -0.6427
 6253SOL    HW219338   6.785   4.478   0.669 -0.8355  0.2734  1.2255
 6254SOL     OW19339   6.602   6.360   3.080 -0.1068 -0.5824 -0.7616
 6254SOL    HW119340   6.581   6.412   3.158 -0.8175 -2.5950  0.4770
 6254SOL    HW219341   6.524   6.367   3.025 -0.3565 -0.6278 -0.4201
 6255SOL     OW19342   3.808   8.100   8.420 -0.2424  0.5412 -0.0551
 6255SOL    HW119343   3.842   8.028   8.473 -0.9234  0.9546  0.9654
 6255SOL    HW219344   3.733   8.062   8.374  0.2812  0.2131 -0.6575
 6256SOL     OW19345   0.903   1.399   7.030 -0.4386  0.6866 -0.3075
 6256SOL    HW119346   0.984   1.450   7.030  0.1593 -0.2301  0.1299
 6256SOL    HW219347   0.891   1.373   7.121 -1.9164  1.8473 -0.1393
 6257SOL     OW19348   6.661   2.986   1.965  0.0233 -0.1866 -0.0979
 6257SOL    HW119349   6.726   3.000   2.033 -0.7590 -3.5361  1.5795
 6257SOL    HW219350   6.581   3.026   1.999  0.3200  0.7790 -0.5012
 6258SOL     OW19351   3.099   6.979   2.931 -0.1992 -0.3201 -0.4651
 6258SOL    HW119352   3.019   7.029   2.916  0.8600  1.0325 -1.8966
 6258SOL    HW219353   3.138   7.018   3.010 -0.1668  0.0625 -0.6716
 6259SOL     OW19354   8.330   8.881   4.799 -0.2508 -0.2782 -0.1570
 6259SOL    HW119355   8.327   8.797   4.845 -2.0237 -0.0520  0.2381
 6259SOL    HW219356   8.255   8.929   4.833  1.6542  2.1708  0.8720
 6260SOL     OW19357   5.491   3.792   6.632 -0.0468  0.0402  0.0321
 6260SOL    HW119358   5.459   3.870   6.586 -1.6724 -0.3195  0.5211
 6260SOL    HW219359   5.414   3.753   6.672  0.7763 -1.6991  0.0328
 6261SOL     OW19360   2.264   0.104   9.327 -0.6982  0.0932  0.4396
 6261SOL    HW119361   2.250   0.014   9.296 -0.2607 -0.3257  1.4062
 6261SOL    HW219362   2.357   0.121   9.309 -0.5940  0.0693  0.9398
 6262SOL     OW19363   6.821   7.347   7.600 -0.4093  0.2336 -0.3422
 6262SOL    HW119364   6.860   7.430   7.627 -0.4070 -0.0135  0.4204
 6262SOL    HW219365   6.890   7.303   7.549 -0.5918  0.9201 -1.2096
 6263SOL     OW19366   9.518   9.972   0.813 -0.1431 -0.6394 -0.3979
 6263SOL    HW119367   9.523  10.040   0.747  0.3435  0.2417  0.5131
 6263SOL    HW219368   9.557   9.895   0.771  0.2405 -0.0740 -1.1073
 6264SOL     OW19369   7.266   4.427   8.342 -0.0515  0.0700  0.0096
 6264SOL    HW119370   7.237   4.365   8.409 -3.0965 -0.6010 -1.7326
 6264SOL    HW219371   7.272   4.374   8.262  2.0282  1.1487 -0.6287
 6265SOL     OW19372   8.556   4.719   1.142 -0.1881 -0.2647  0.2506
 6265SOL    HW119373   8.483   4.721   1.080 -0.4316  1.6215  0.5441
 6265SOL    HW219374   8.633   4.702   1.088 -0.3916  1.4038 -0.6253
 6266SOL     OW19375   1.561   5.766   6.236 -0.3402  0.7676  0.3469
 6266SOL    HW119376   1.628   5.813   6.284 -0.9895  2.1893 -0.0674
 6266SOL    HW219377   1.535   5.826   6.166 -1.5490 -0.0244  0.0779
 6267SOL     OW19378   3.175   9.759   0.428  0.8611  0.4828 -0.3657
 6267SOL    HW119379   3.147   9.843   0.391 -1.8308  0.0462  0.4699
 6267SOL    HW219380   3.224   9.783   0.507 -1.8970  1.3563  1.2088
 6268SOL     OW19381   5.282   2.015   9.828  0.2534 -0.1906 -0.5574
 6268SOL    HW119382   5.363   2.065   9.833  1.1295 -1.4596 -1.5524
 6268SOL    HW219383   5.285   1.956   9.904 -0.4673  0.7710  0.2432
 6269SOL     OW19384   7.861   8.914   7.797 -0.1757 -0.0320 -0.0007
 6269SOL    HW119385   7.876   9.005   7.774  0.8281 -0.0867  0.3823
 6269SOL    HW219386   7.948   8.874   7.795 -0.3360 -0.5516  1.6173
 6270SOL     OW19387   5.739   8.851   0.353 -0.2677 -0.2472  0.1984
 6270SOL    HW119388   5.800   8.815   0.289 -1.0438 -0.8710 -0.2036
 6270SOL    HW219389   5.716   8.937   0.318  0.5886  0.1130  0.4988
 6271SOL     OW19390   2.896   6.680   8.893  0.1580 -0.5905  0.7891
 6271SOL    HW119391   2.987   6.708   8.881  0.2991 -0.7890  1.3707
 6271SOL    HW219392   2.879   6.694   8.986 -0.8593  0.7645  0.4317
 6272SOL     OW19393   8.505   9.832   9.504 -0.7465  0.1379 -0.2609
 6272SOL    HW119394   8.582   9.841   9.448 -0.4970 -0.2980  0.0103
 6272SOL    HW219395   8.535   9.859   9.591 -0.8881 -0.0657 -0.1467
 6273SOL     OW19396   4.571   4.814   0.056  0.3628  0.4127  0.7233
 6273SOL    HW119397   4.664   4.835   0.064 -0.1320  2.6013  1.5633
 6273SOL    HW219398   4.540   4.811   0.147 -0.3248 -0.7212  0.4691
 6274SOL     OW19399   1.672   7.285   3.993 -0.6490  0.7407 -0.3750
 6274SOL    HW119400   1.723   7.245   3.922  0.1965  0.7858  0.1797
 6274SOL    HW219401   1.737   7.334   4.044 -1.0091 -0.1965  1.0632
 6275SOL     OW19402   8.919   7.561   4.594 -0.1613  0.3290  0.0493
 6275SOL    HW119403   8.825   7.551   4.579 -0.1034  2.3293 -2.1714
 6275SOL    HW219404   8.934   7.655   4.591  2.0218  0.0183 -0.5148
 6276SOL     OW19405   8.891   5.892   0.985 -0.2328 -0.3877  0.2562
 6276SOL    HW119406   8.969   5.846   1.017  1.5588  0.2984 -2.7695
 6276SOL    HW219407   8.848   5.828   0.928 -1.0982 -0.2393  0.7208
 6277SOL     OW19408   9.286   1.603   7.830  0.3134 -0.3945 -0.5578
 6277SOL    HW119409   9.359   1.645   7.875 -1.3327 -0.1409  2.1017
 6277SOL    HW219410   9.228   1.675   7.806  0.2981 -0.7022 -1.5120
 6278SOL     OW19411   1.811   7.705   0.189 -0.4942 -0.0723 -0.1507
 6278SOL    HW119412   1.853   7.619   0.193  0.0708  0.2501  1.8722
 6278SOL    HW219413   1.755   7.700   0.111 -0.3911 -2.2090 -0.1586
 6279SOL     OW19414   6.961   9.712   8.961  0.1197 -0.2862  0.1218
 6279SOL    HW119415   6.911   9.658   8.899  3.5942 -2.7424 -0.8098
 6279SOL    HW219416   6.949   9.667   9.045  0.9588 -1.0901 -0.1694
 6280SOL     OW19417   6.941   5.642   6.016  0.1213 -0.6280  0.0004
 6280SOL    HW119418   6.899   5.727   6.030 -1.3560 -1.2425 -0.5066
 6280SOL    HW219419   6.980   5.621   6.101 -0.1261  0.2140  0.3331
 6281SOL     OW19420   6.966   0.791   3.981  0.1102 -0.2510  0.0772
 6281SOL    HW119421   6.962   0.806   3.887 -3.0487 -0.8568  0.0059
 6281SOL    HW219422   7.018   0.712   3.991 -0.0520 -0.5409 -1.2351
 6282SOL     OW19423   8.931  -0.020   8.900 -0.4472  0.0547  0.5331
 6282SOL    HW119424   8.906   0.063   8.860 -0.9832 -0.1331  0.4726
 6282SOL    HW219425   8.865  -0.035   8.967 -1.5925 -1.3291 -0.8153
 6283SOL     OW19426   8.986   3.211   0.572  0.0578 -0.2743  0.2039
 6283SOL    HW119427   9.002   3.213   0.667  3.3211 -1.0887 -0.2077
 6283SOL    HW219428   9.045   3.277   0.536  0.0582 -1.1056 -1.3901
 6284SOL     OW19429   2.547   8.706   5.099 -0.1253  0.3734  0.2940
 6284SOL    HW119430   2.581   8.640   5.159  0.8085  0.7644  0.2232
 6284SOL    HW219431   2.453   8.707   5.114 -0.2020 -1.1808  0.0904
 6285SOL     OW19432   3.565   7.717   9.215  0.0651 -0.9382  0.2811
 6285SOL    HW119433   3.535   7.653   9.279  2.0618 -0.4560  1.8163
 6285SOL    HW219434   3.644   7.678   9.177 -0.6335 -0.8536 -1.3311
 6286SOL     OW19435   9.692   4.972   8.063  0.5191 -0.2743  0.1301
 6286SOL    HW119436   9.624   5.025   8.021  1.3928 -0.9282 -2.2699
 6286SOL    HW219437   9.772   5.022   8.051  0.8401 -0.6464  0.7129
 6287SOL     OW19438   1.478   5.454   3.964  0.0367  0.3494 -0.3085
 6287SOL    HW119439   1.482   5.434   4.058 -1.5530  0.0832 -0.2707
 6287SOL    HW219440   1.486   5.370   3.920 -2.2128  0.0617 -0.2834
 6288SOL     OW19441   1.281   6.963   6.530  0.3635  0.0454  0.2420
 6288SOL    HW119442   1.369   7.000   6.524  0.6932 -0.9266 -2.5804
 6288SOL    HW219443   1.294   6.868   6.525 -0.7791 -0.1662  0.9238
 6289SOL     OW19444   3.006   2.328   8.498  0.5405 -0.0253  0.3834
 6289SOL    HW119445   2.964   2.311   8.582 -0.2647  2.3955  0.5630
 6289SOL    HW219446   2.952   2.281   8.434  0.6304 -1.1507  1.1195
 6290SOL     OW19447   2.560   7.093   6.282  0.7436  0.4358  0.7671
 6290SOL    HW119448   2.583   7.053   6.366 -1.0119  1.2222  1.6741
 6290SOL    HW219449   2.520   7.177   6.306  1.6011  1.3644 -0.9477
 6291SOL     OW19450   3.885   9.726   9.776 -0.6407 -0.3019  0.5954
 6291SOL    HW119451   3.945   9.740   9.849  0.2369  0.0444 -0.1748
 6291SOL    HW219452   3.844   9.641   9.795 -1.0469  0.1571  1.8945
 6292SOL     OW19453   1.366   1.198   5.250  0.7619 -1.1104 -0.1254
 6292SOL    HW119454   1.454   1.207   5.287 -0.0365 -0.0561  1.6409
 6292SOL    HW219455   1.335   1.288   5.241 -0.3186 -1.4956 -0.2989
 6293SOL     OW19456   7.437   9.497   5.130 -0.0880 -0.1834 -0.5565
 6293SOL    HW119457   7.508   9.560   5.112  0.1284  0.8644  3.1521
 6293SOL    HW219458   7.483   9.416   5.151 -0.0201  0.0714  0.3282
 6294SOL     OW19459   0.084   7.936   2.832  0.2142 -0.1714  0.0061
 6294SOL    HW119460   0.093   7.986   2.751  0.1181  2.9788  1.7514
 6294SOL    HW219461   0.158   7.876   2.832  0.5598  0.1865 -2.1209
 6295SOL     OW19462   6.086   1.102   4.941  0.1302 -0.2083  0.5244
 6295SOL    HW119463   6.024   1.174   4.926 -0.5075 -0.8338  0.0770
 6295SOL    HW219464   6.033   1.034   4.982  0.4156 -0.9274 -0.2888
 6296SOL     OW19465   9.753   1.192   9.753  0.5742 -0.2406  0.1349
 6296SOL    HW119466   9.797   1.265   9.796 -0.7244 -0.3762  1.7914
 6296SOL    HW219467   9.663   1.221   9.742 -0.1233 -1.8031  1.3986
 6297SOL     OW19468   5.721   3.678   4.149 -0.5139  0.3259  0.1777
 6297SOL    HW119469   5.753   3.715   4.231 -2.0143  2.6762 -0.2023
 6297SOL    HW219470   5.741   3.745   4.083 -2.0838 -0.1398 -0.8257
 6298SOL     OW19471   2.821   3.187   9.294 -0.0777  0.1139  0.2544
 6298SOL    HW119472   2.800   3.229   9.210 -0.2154 -0.6561 -0.1067
 6298SOL    HW219473   2.750   3.211   9.352 -0.6681 -0.4049 -0.2315
 6299SOL     OW19474   3.718   7.642   1.248 -0.5813 -0.3016  0.5873
 6299SOL    HW119475   3.732   7.600   1.333 -2.8134 -0.5257  0.9257
 6299SOL    HW219476   3.667   7.720   1.269 -2.1457 -0.9454 -0.5880
 6300SOL     OW19477   6.154   2.437   1.361 -0.3904  0.3302  0.6424
 6300SOL    HW119478   6.248   2.447   1.348 -0.2598 -0.1562  1.1394
 6300SOL    HW219479   6.132   2.354   1.318 -0.8353  1.0506 -0.5690
 6301SOL     OW19480   5.410   5.978   7.265 -0.2764 -0.1795  0.1285
 6301SOL    HW119481   5.472   5.951   7.333 -0.3012  1.6624  0.9527
 6301SOL    HW219482   5.384   5.897   7.222  2.9666 -1.0193 -0.4972
 6302SOL     OW19483   7.848   9.168   3.921  0.0616 -0.1940  0.1645
 6302SOL    HW119484   7.831   9.152   4.013  2.2136  0.0775  0.6538
 6302SOL    HW219485   7.773   9.219   3.891 -0.3265  0.3131  1.9217
 6303SOL     OW19486   8.810   5.219   4.968 -0.0027 -0.2035  0.0515
 6303SOL    HW119487   8.754   5.295   4.956  1.5454  1.0966  0.6482
 6303SOL    HW219488   8.762   5.162   5.027 -0.4339  1.1629  1.0587
 6304SOL     OW19489   1.792   5.754   6.856 -0.2626 -0.6906  0.1451
 6304SOL    HW119490   1.813   5.738   6.764  2.1258  0.5735  0.3756
 6304SOL    HW219491   1.855   5.821   6.883 -1.4229 -0.4497  2.5066
 6305SOL     OW19492   9.913   0.073   7.677  0.3523  0.8223 -0.4139
 6305SOL    HW119493   9.952   0.025   7.750 -0.6053  0.4693 -0.1186
 6305SOL    HW219494   9.917   0.165   7.704  0.4252  0.7374 -0.1330
 6306SOL     OW19495   7.104   6.719   3.276  0.5289 -0.4901 -0.1095
 6306SOL    HW119496   7.092   6.649   3.212  0.0881 -0.0209 -0.5477
 6306SOL    HW219497   7.079   6.679   3.359 -0.9793 -0.4854 -0.5423
 6307SOL     OW19498   4.547   3.424   8.370  0.4807  0.1196 -0.1726
 6307SOL    HW119499   4.630   3.397   8.332  0.5018  0.2260 -0.2030
 6307SOL    HW219500   4.490   3.439   8.295  1.3585  3.1364 -0.3904
 6308SOL     OW19501   3.445   1.426   0.509 -0.4058 -0.6895 -0.2326
 6308SOL    HW119502   3.465   1.439   0.416  0.5761 -1.4293 -0.1394
 6308SOL    HW219503   3.355   1.457   0.519 -0.1577  0.3969 -1.2069
 6309SOL     OW19504   6.423   1.558   8.740 -0.6599 -0.3224  0.2070
 6309SOL    HW119505   6.480   1.508   8.799 -2.1995 -0.6558  1.4514
 6309SOL    HW219506   6.434   1.649   8.767  0.9668 -0.0878 -1.0576
 6310SOL     OW19507   6.184   3.169   3.538 -0.4158  0.3745 -0.2254
 6310SOL    HW119508   6.156   3.254   3.573 -1.0108  0.3271 -0.5781
 6310SOL    HW219509   6.106   3.133   3.497  0.5545  1.0355 -2.8543
 6311SOL     OW19510   2.991   2.620   5.990 -0.5141 -0.1543 -0.1713
 6311SOL    HW119511   3.027   2.627   5.902 -0.3976  1.3121 -0.0352
 6311SOL    HW219512   2.934   2.697   5.999 -1.6793 -1.0478  0.5259
 6312SOL     OW19513   1.681   1.162   5.116  0.2635 -0.4546 -0.5749
 6312SOL    HW119514   1.638   1.155   5.201 -0.9538 -0.6426 -1.1662
 6312SOL    HW219515   1.716   1.075   5.099  0.1471 -0.5264 -0.4437
 6313SOL     OW19516   2.739   5.584   6.137  0.3669  0.5386 -0.1842
 6313SOL    HW119517   2.661   5.640   6.140  0.6489  0.9005  0.5498
 6313SOL    HW219518   2.813   5.645   6.138  0.6707  0.1689  0.1720
 6314SOL     OW19519   7.769   0.504   2.425 -0.0541 -0.3464 -0.0762
 6314SOL    HW119520   7.841   0.508   2.362 -0.3988 -0.7446 -0.5025
 6314SOL    HW219521   7.761   0.410   2.445  0.5175 -0.1577  1.1031
 6315SOL     OW19522   1.546   8.160   0.372  0.3221 -0.4425 -0.0199
 6315SOL    HW119523   1.461   8.129   0.402  1.2428  0.0494  3.6302
 6315SOL    HW219524   1.529   8.202   0.288 -2.6638 -1.8773 -0.2559
 6316SOL     OW19525   3.226   3.206   6.706  0.3807 -0.6388 -0.1385
 6316SOL    HW119526   3.208   3.271   6.638  1.5846  0.5286  0.6110
 6316SOL    HW219527   3.158   3.221   6.772  0.3890 -0.4484 -0.1737
 6317SOL     OW19528   6.155   5.064   4.495  0.0534 -0.0101 -0.1937
 6317SOL    HW119529   6.104   5.116   4.434 -2.2033 -0.5530  1.1096
 6317SOL    HW219530   6.114   4.977   4.493  1.9369 -0.9624 -0.2201
 6318SOL     OW19531   4.463   9.267   8.530 -0.1081  0.3119  0.5733
 6318SOL    HW119532   4.407   9.252   8.453  1.4414  0.7808 -0.7055
 6318SOL    HW219533   4.538   9.209   8.517 -0.2330 -0.2665  2.2234
 6319SOL     OW19534   2.894   6.277   6.481 -0.0876  0.0826 -0.1125
 6319SOL    HW119535   2.836   6.205   6.459  0.2946 -0.8833  1.8501
 6319SOL    HW219536   2.839   6.340   6.527  0.1116 -0.1419  0.4342
 6320SOL     OW19537   8.434   4.366   5.309  0.1880  0.2796  0.6730
 6320SOL    HW119538   8.467   4.282   5.279 -0.9165 -0.5971  1.7999
 6320SOL    HW219539   8.500   4.429   5.280  0.4919 -0.8091 -1.1690
 6321SOL     OW19540   5.215   6.973   1.083  0.8467 -0.4376 -0.3652
 6321SOL    HW119541   5.211   7.066   1.105  1.1199 -0.6998  0.8738
 6321SOL    HW219542   5.295   6.964   1.032  0.0900  0.2288 -1.7251
 6322SOL     OW19543   5.813   6.189   6.409  0.4698  0.0938 -0.1812
 6322SOL    HW119544   5.854   6.250   6.347  1.0507  0.2513  0.3379
 6322SOL    HW219545   5.768   6.125   6.354  0.3890  0.6224 -0.7489
 6323SOL     OW19546   9.945   3.929   5.908  0.2026 -0.4199  0.0705
 6323SOL    HW119547   9.860   3.973   5.906  0.2470 -0.0854  2.6734
 6323SOL    HW219548   9.968   3.918   5.816 -1.1705  2.3656 -0.7028
 6324SOL     OW19549   7.014   7.965   5.718  0.0995 -0.4997 -0.1736
 6324SOL    HW119550   7.079   8.029   5.746 -0.3685  0.7764 -1.8256
 6324SOL    HW219551   7.042   7.938   5.631 -1.3747 -0.1460 -0.7985
 6325SOL     OW19552   3.081   6.149   9.735  1.0164  0.4993  0.2997
 6325SOL    HW119553   2.994   6.178   9.707  1.1292  2.3543  1.6756
 6325SOL    HW219554   3.119   6.109   9.657 -1.1656 -0.7006 -0.2488
 6326SOL     OW19555   9.486   8.869   7.988  0.0304 -0.0912  0.4544
 6326SOL    HW119556   9.506   8.925   7.913  0.2557  1.1278  1.3866
 6326SOL    HW219557   9.409   8.819   7.961  0.7998 -0.5528 -1.0085
 6327SOL     OW19558   7.645   5.308   6.461 -0.0385 -0.5321  0.1301
 6327SOL    HW119559   7.697   5.388   6.472  0.6999 -1.0812  0.7064
 6327SOL    HW219560   7.667   5.254   6.537 -0.8811 -1.1012 -0.0091
 6328SOL     OW19561   4.877   3.316   3.655 -0.3115 -0.0642 -0.3591
 6328SOL    HW119562   4.943   3.383   3.670  0.4747 -0.8458 -0.1943
 6328SOL    HW219563   4.856   3.284   3.743  1.1601 -1.7161 -0.5471
 6329SOL     OW19564   3.806   0.216   1.635  0.5644 -0.1696  0.1953
 6329SOL    HW119565   3.885   0.184   1.678 -0.1455 -0.8556  1.0234
 6329SOL    HW219566   3.799   0.163   1.556  2.5307  1.8962 -1.5068
 6330SOL     OW19567   7.431   0.968   7.483 -0.0978 -0.5926 -0.0492
 6330SOL    HW119568   7.380   0.985   7.562 -2.1773 -0.9027 -1.2552
 6330SOL    HW219569   7.418   1.046   7.429  3.2839  0.7309  0.7695
 6331SOL     OW19570   1.549   4.382   3.319  0.6320 -0.9770 -0.5038
 6331SOL    HW119571   1.470   4.395   3.372  1.3011  1.4862 -0.0104
 6331SOL    HW219572   1.621   4.396   3.381  1.4433 -0.4014 -1.5598
 6332SOL     OW19573   8.560   5.389   6.487 -0.4333 -0.0841  0.2788
 6332SOL    HW119574   8.575   5.372   6.394 -1.1948  0.4417  0.0459
 6332SOL    HW219575   8.557   5.485   6.493 -4.1674 -0.0268  0.1416
 6333SOL     OW19576   6.265   6.890   3.360 -0.2295  0.1238  0.2447
 6333SOL    HW119577   6.251   6.861   3.450 -1.2127  2.8778  1.0541
 6333SOL    HW219578   6.322   6.966   3.367 -2.0030  1.6907 -1.2344
 6334SOL     OW19579   2.849   0.606   5.799 -0.2341 -0.8272  0.3324
 6334SOL    HW119580   2.836   0.644   5.886 -0.5305  0.5896 -0.3027
 6334SOL    HW219581   2.865   0.513   5.816  0.6388 -0.4202  1.9597
 6335SOL     OW19582   4.850   3.227   3.912 -0.2679 -0.3566 -0.2109
 6335SOL    HW119583   4.808   3.233   3.998 -1.4448 -0.2174 -0.7908
 6335SOL    HW219584   4.903   3.147   3.918 -1.2855 -1.0121  0.2373
 6336SOL     OW19585   6.089   4.303   5.515 -0.7102  1.0056  0.2661
 6336SOL    HW119586   6.076   4.369   5.584 -1.8046  1.8705 -0.7273
 6336SOL    HW219587   6.046   4.224   5.548 -1.3969  1.4686  0.5020
 6337SOL     OW19588   3.123   5.757   9.256 -0.1168  0.4223 -0.1670
 6337SOL    HW119589   3.092   5.746   9.346 -0.5193  1.0168 -0.2303
 6337SOL    HW219590   3.089   5.680   9.210  2.4699 -1.4698  0.7711
 6338SOL     OW19591   5.415   2.256   0.405 -0.8189 -0.3216  0.2457
 6338SOL    HW119592   5.383   2.280   0.318  0.7330  1.6418  0.1517
 6338SOL    HW219593   5.339   2.267   0.463 -1.5155 -0.3378 -0.6449
 6339SOL     OW19594   8.231   3.165   4.068 -0.5816 -0.8219  0.1443
 6339SOL    HW119595   8.315   3.156   4.024 -0.6525 -1.0086  0.0498
 6339SOL    HW219596   8.252   3.203   4.153 -0.0285 -3.9476  1.5111
 6340SOL     OW19597   1.589   6.015   2.177 -0.0882  0.8253 -0.1274
 6340SOL    HW119598   1.493   6.018   2.169 -0.1949 -1.1320 -0.0461
 6340SOL    HW219599   1.604   5.974   2.263  0.8316  1.1970 -0.1038
 6341SOL     OW19600   7.188   5.420   6.179  0.0996 -0.4900  0.0735
 6341SOL    HW119601   7.240   5.404   6.258 -0.6238  0.8503  0.8607
 6341SOL    HW219602   7.236   5.375   6.109  1.5707 -0.4487  1.0079
 6342SOL     OW19603   1.587   6.268   0.140 -0.3441  0.3674 -0.2723
 6342SOL    HW119604   1.599   6.234   0.051  1.2590  0.3340 -0.0849
 6342SOL    HW219605   1.500   6.238   0.166 -0.2007 -0.9854 -1.2506
 6343SOL     OW19606   6.271   9.855   5.278  0.3557  0.5800  0.5460
 6343SOL    HW119607   6.176   9.844   5.277  0.3971 -0.0997 -1.5897
 6343SOL    HW219608   6.302   9.789   5.340 -0.5128  0.3335  0.7326
 6344SOL     OW19609   1.904   5.581   3.067 -0.8964  0.1901 -0.7522
 6344SOL    HW119610   1.976   5.644   3.072  1.5324 -2.4962  2.0178
 6344SOL    HW219611   1.915   5.539   2.981  1.3105 -0.5623 -0.1614
 6345SOL     OW19612   9.257   5.335   0.440 -0.2339 -0.2879 -0.0435
 6345SOL    HW119613   9.268   5.412   0.496 -0.8106  0.6129 -1.1354
 6345SOL    HW219614   9.343   5.321   0.401  0.0636 -0.6706  0.7253
 6346SOL     OW19615   3.672   8.307   5.596 -0.3794 -0.1608  0.5302
 6346SOL    HW119616   3.630   8.320   5.511  0.4602 -2.5479 -0.3283
 6346SOL    HW219617   3.754   8.357   5.589 -1.1910  1.2597  0.7280
 6347SOL     OW19618   4.464   9.642   5.902  0.1265  0.0929  0.1836
 6347SOL    HW119619   4.493   9.708   5.838  0.7080 -0.1697  0.1663
 6347SOL    HW219620   4.425   9.573   5.848  0.1305  0.1155  0.1512
 6348SOL     OW19621   1.748   5.882   1.552 -0.0549  0.5509  0.1433
 6348SOL    HW119622   1.741   5.845   1.640  0.1034  2.3908  0.9723
 6348SOL    HW219623   1.657   5.892   1.523 -0.2040  1.8540  0.9741
 6349SOL     OW19624   4.883   7.286   0.120 -0.5020 -0.1620  0.2291
 6349SOL    HW119625   4.915   7.198   0.141 -2.2039 -1.7332 -3.0811
 6349SOL    HW219626   4.818   7.304   0.188  1.3375 -0.4830  2.1734
 6350SOL     OW19627   3.152   9.908   2.736  0.2630  0.1615  0.2662
 6350SOL    HW119628   3.138   9.816   2.715  1.1609 -0.1609  1.0419
 6350SOL    HW219629   3.065   9.947   2.727  0.2842 -0.2065 -2.5597
 6351SOL     OW19630   1.014   9.738   2.808 -0.8415  0.7023 -0.0231
 6351SOL    HW119631   0.946   9.794   2.770 -1.1005 -0.0163 -0.6360
 6351SOL    HW219632   1.076   9.724   2.737 -3.0075 -3.3995 -1.3687
 6352SOL     OW19633   5.452   7.396   2.448 -0.2785  0.2935 -0.0631
 6352SOL    HW119634   5.543   7.377   2.471  0.0100  2.7195  1.1959
 6352SOL    HW219635   5.400   7.335   2.499  0.6168 -0.2337  0.2328
 6353SOL     OW19636   4.611   0.367   4.129 -0.1903  0.8259 -0.1980
 6353SOL    HW119637   4.624   0.397   4.039 -0.0603  1.5009  0.0457
 6353SOL    HW219638   4.619   0.272   4.123  1.6770  0.9749 -0.5973
 6354SOL     OW19639   3.847   6.241   0.157 -0.2473 -0.4183  0.2589
 6354SOL    HW119640   3.799   6.299   0.098  0.4732 -1.1770 -1.1339
 6354SOL    HW219641   3.780   6.203   0.213 -0.7062  1.9281  1.4005
 6355SOL     OW19642   0.704   8.047   6.754 -0.6125  0.0102 -0.6041
 6355SOL    HW119643   0.616   8.024   6.724 -2.5597  2.3195  2.7328
 6355SOL    HW219644   0.723   7.984   6.824 -0.7235  1.0164  0.3527
 6356SOL     OW19645   3.474   2.198   1.791 -0.7995 -0.3951 -0.0231
 6356SOL    HW119646   3.402   2.260   1.799  0.4279  0.8946  2.3319
 6356SOL    HW219647   3.445   2.121   1.839 -0.8224 -0.0750  0.4865
 6357SOL     OW19648   2.248   1.113   3.211 -0.5548  0.0319 -0.1140
 6357SOL    HW119649   2.224   1.135   3.301 -2.0590  0.2744 -0.5452
 6357SOL    HW219650   2.241   1.196   3.164  0.3005 -0.0783 -0.4502
 6358SOL     OW19651   2.833   0.138   8.868 -0.7316  0.0610  0.2507
 6358SOL    HW119652   2.822   0.100   8.781 -0.8393  0.6761 -0.0027
 6358SOL    HW219653   2.807   0.067   8.928 -2.1667  0.1474 -0.2462
 6359SOL     OW19654   9.163   0.967   8.147  0.4975  0.8271  0.1448
 6359SOL    HW119655   9.215   1.036   8.188 -0.3282  0.2096  2.3699
 6359SOL    HW219656   9.140   0.908   8.219 -1.0906 -0.3190 -1.2196
 6360SOL     OW19657   8.396   6.754   3.123  0.1723 -0.0153  0.0739
 6360SOL    HW119658   8.381   6.790   3.036  0.9171  0.2350  0.0373
 6360SOL    HW219659   8.309   6.743   3.161 -0.1187  0.7063 -0.3684
 6361SOL     OW19660   4.427   0.120   6.095  0.4527 -0.2439  0.4183
 6361SOL    HW119661   4.445   0.210   6.120 -0.3410 -0.3383  1.3682
 6361SOL    HW219662   4.431   0.071   6.177 -0.9927 -0.7562  0.2036
 6362SOL     OW19663   3.401   2.859   9.261 -0.1891 -0.5182  0.4584
 6362SOL    HW119664   3.307   2.857   9.281  0.1016  0.5031  2.0497
 6362SOL    HW219665   3.422   2.768   9.237 -1.4327 -0.9149  0.7749
 6363SOL     OW19666   1.461   5.902   1.530  0.2264  0.0929 -0.3047
 6363SOL    HW119667   1.458   5.976   1.591 -0.8091  1.4295 -1.9139
 6363SOL    HW219668   1.372   5.896   1.495  0.0081 -2.5419  0.4334
 6364SOL     OW19669   7.713   8.263   1.250  0.1912  0.4716 -0.1409
 6364SOL    HW119670   7.700   8.358   1.250 -0.4453  0.3918 -0.5845
 6364SOL    HW219671   7.625   8.227   1.256  0.2456 -0.0909 -1.9672
 6365SOL     OW19672   6.677   3.491   2.563 -0.0531  0.3156 -0.5938
 6365SOL    HW119673   6.601   3.525   2.610  0.1896  0.1705 -0.0869
 6365SOL    HW219674   6.748   3.553   2.582 -0.0894  0.5678 -1.2365
 6366SOL     OW19675   9.637   9.668   9.521  0.4460 -0.2233  0.1520
 6366SOL    HW119676   9.564   9.698   9.575 -0.2453 -1.0640 -0.2784
 6366SOL    HW219677   9.651   9.577   9.547 -0.1505 -0.7745 -1.2958
 6367SOL     OW19678   3.911   3.905   5.786  0.5255 -0.3284  0.1661
 6367SOL    HW119679   3.905   3.974   5.852  0.7454  1.2058 -1.3564
 6367SOL    HW219680   3.870   3.829   5.827 -2.0171  1.3808  1.0049
 6368SOL     OW19681   1.601   2.298   6.154 -0.5574  0.3653  0.0944
 6368SOL    HW119682   1.585   2.342   6.071 -0.3073  1.5118  0.6308
 6368SOL    HW219683   1.580   2.206   6.137  0.5298  0.3827 -1.5141
 6369SOL     OW19684   3.961   8.066   1.224 -0.2847 -0.5088 -0.0237
 6369SOL    HW119685   3.918   8.038   1.305  1.6343 -1.5686  0.6984
 6369SOL    HW219686   3.961   7.988   1.169 -0.5215 -0.1167 -0.5893
 6370SOL     OW19687   6.700   3.714   0.609 -0.1453  0.2645  0.4612
 6370SOL    HW119688   6.739   3.669   0.534 -0.8107  0.5205 -0.0466
 6370SOL    HW219689   6.766   3.705   0.678  0.1114 -0.7157  0.1140
 6371SOL     OW19690   0.631   7.834   4.257 -0.0642  0.6264  0.1879
 6371SOL    HW119691   0.569   7.905   4.274 -1.6745 -0.7755  0.4839
 6371SOL    HW219692   0.674   7.858   4.175 -0.4718  1.9911  0.3502
 6372SOL     OW19693   5.502   9.525   7.989 -0.1539  0.3678 -0.1734
 6372SOL    HW119694   5.534   9.442   8.026 -0.8223  0.1952  0.0230
 6372SOL    HW219695   5.410   9.509   7.971 -0.1183  0.8480 -0.7920
 6373SOL     OW19696   6.032   6.251   9.433 -0.3039  0.2666 -0.0094
 6373SOL    HW119697   6.122   6.234   9.406 -0.1576  1.3820 -0.2880
 6373SOL    HW219698   5.980   6.185   9.387 -0.1841  2.5236 -3.8284
 6374SOL     OW19699   2.931   9.765   2.903 -0.4991 -0.1257  0.1479
 6374SOL    HW119700   3.008   9.753   2.848  0.0555  1.4031  0.5436
 6374SOL    HW219701   2.955   9.725   2.986 -0.4753 -0.4404 -0.0089
 6375SOL     OW19702   6.291   4.256   4.910  0.8748  0.5619 -0.0337
 6375SOL    HW119703   6.349   4.310   4.856  1.5978  0.5099  0.6869
 6375SOL    HW219704   6.348   4.215   4.974  0.1102  0.1103  0.3742
 6376SOL     OW19705   7.892   5.861   4.754 -0.0749  0.1496 -0.0703
 6376SOL    HW119706   7.927   5.902   4.833 -0.1365 -0.4624  0.2800
 6376SOL    HW219707   7.797   5.868   4.763 -0.0947  2.4674 -1.3652
 6377SOL     OW19708   3.431   3.964   3.355 -0.4020  1.1439 -0.0586
 6377SOL    HW119709   3.353   3.991   3.306 -0.7943  2.0891  1.0385
 6377SOL    HW219710   3.396   3.928   3.436  0.2836  0.8361  0.1050
 6378SOL     OW19711   0.287   0.229   4.511 -0.5344 -0.1930 -0.2097
 6378SOL    HW119712   0.201   0.252   4.475 -1.2028 -2.3512 -0.1112
 6378SOL    HW219713   0.275   0.142   4.549  1.4751 -0.1475  0.6572
 6379SOL     OW19714   9.137   5.473   6.434  0.4910 -0.0615 -0.5144
 6379SOL    HW119715   9.202   5.539   6.459  0.4575  0.1198 -0.9000
 6379SOL    HW219716   9.053   5.516   6.446  0.4828  0.1411 -1.2426
 6380SOL     OW19717   2.833   1.250   2.997  0.2944  0.1512  0.1088
 6380SOL    HW119718   2.760   1.191   3.016  0.1983  0.0069 -0.6412
 6380SOL    HW219719   2.911   1.197   3.011  0.2665  0.3865  1.1732
 6381SOL     OW19720   6.337   8.689   2.739 -0.2196 -0.1431  0.0176
 6381SOL    HW119721   6.303   8.671   2.651 -1.3434 -0.2973  0.4792
 6381SOL    HW219722   6.379   8.607   2.765  1.4314  0.3412 -0.9377
 6382SOL     OW19723   4.607   4.668   2.584  0.5952 -0.0029 -0.3719
 6382SOL    HW119724   4.620   4.669   2.489  1.5286  0.7091 -0.2438
 6382SOL    HW219725   4.681   4.616   2.618  0.5630  0.1983  0.0117
 6383SOL     OW19726   0.894   6.106   8.484 -0.3467  0.7204  0.0228
 6383SOL    HW119727   0.971   6.074   8.439 -0.9657 -0.4069 -0.2551
 6383SOL    HW219728   0.870   6.187   8.438 -2.5923 -1.7512 -3.5950
 6384SOL     OW19729   5.280   8.654   5.802 -0.2591 -0.1043  0.8035
 6384SOL    HW119730   5.305   8.711   5.729 -1.0130  1.2410  1.5542
 6384SOL    HW219731   5.351   8.663   5.866  0.6253 -1.6352  0.0868
 6385SOL     OW19732   4.334   5.304   3.310 -0.0936 -0.5895 -0.1200
 6385SOL    HW119733   4.315   5.214   3.338  0.1853  0.0507  2.3581
 6385SOL    HW219734   4.428   5.313   3.324 -0.0020 -0.1140 -1.0283
 6386SOL     OW19735   5.632   4.393   2.453 -0.1184 -0.2339  0.3061
 6386SOL    HW119736   5.670   4.465   2.404 -2.3134  0.1304 -0.9937
 6386SOL    HW219737   5.647   4.315   2.398 -0.9756 -0.1326 -0.0805
 6387SOL     OW19738   9.482   0.385   5.740  0.0942  0.5545  0.2721
 6387SOL    HW119739   9.559   0.404   5.686 -0.6087  1.5359 -0.4121
 6387SOL    HW219740   9.481   0.289   5.747  0.1379  0.3848 -1.5907
 6388SOL     OW19741   5.591   4.266   8.427 -0.1419 -0.2344 -0.1891
 6388SOL    HW119742   5.584   4.336   8.363 -1.7873 -1.0275 -0.9271
 6388SOL    HW219743   5.509   4.269   8.475  0.2836 -0.8763  0.6018
 6389SOL     OW19744   7.959   9.705   7.715  0.2327  0.3483 -0.4309
 6389SOL    HW119745   8.012   9.778   7.681  1.6316 -0.6159 -0.4101
 6389SOL    HW219746   7.961   9.640   7.645  0.3611 -0.3250  0.1949
 6390SOL     OW19747   9.672   2.492   1.839  0.5404  0.3872 -0.1389
 6390SOL    HW119748   9.736   2.533   1.898  0.9987 -0.0029 -0.3586
 6390SOL    HW219749   9.683   2.537   1.756 -0.1334  0.9625  0.0691
 6391SOL     OW19750   9.482   3.477   7.029 -0.5585 -0.1892  0.0325
 6391SOL    HW119751   9.442   3.390   7.032 -0.4033 -0.4506 -2.7195
 6391SOL    HW219752   9.410   3.537   7.048 -1.6652 -0.7838 -2.0061
 6392SOL     OW19753   8.260   3.180   7.083  0.1706  1.1196  0.5539
 6392SOL    HW119754   8.303   3.205   7.001 -1.3534 -1.1434 -1.0506
 6392SOL    HW219755   8.182   3.236   7.087 -0.2249  0.6225 -0.0347
 6393SOL     OW19756   3.066   8.396   8.525  0.3112  0.5493  0.1609
 6393SOL    HW119757   3.011   8.446   8.585  1.2610  0.6121  1.0110
 6393SOL    HW219758   3.033   8.417   8.438 -0.9573  0.6277  0.6388
 6394SOL     OW19759   9.118   0.848   0.605  0.0608 -0.2432  0.8830
 6394SOL    HW119760   9.135   0.940   0.584  0.2658 -0.4669  0.0049
 6394SOL    HW219761   9.124   0.804   0.520 -0.3709 -1.0150  1.2529
 6395SOL     OW19762   2.977   6.167   0.549 -0.4498 -0.1417 -0.1569
 6395SOL    HW119763   2.944   6.256   0.534 -0.3016 -0.3225 -1.7553
 6395SOL    HW219764   3.002   6.136   0.462  0.3348 -1.4305  0.4976
 6396SOL     OW19765   6.979   3.952   1.797 -0.6397 -0.9599 -0.5231
 6396SOL    HW119766   7.066   3.917   1.814  0.1729  1.6810  1.5351
 6396SOL    HW219767   6.986   3.997   1.714  1.1226  2.1530  1.1398
 6397SOL     OW19768   7.479   1.549   3.389  0.3535 -0.3777 -0.1577
 6397SOL    HW119769   7.543   1.516   3.452  1.6394 -1.4802 -1.9282
 6397SOL    HW219770   7.499   1.642   3.382 -0.5397  0.0062  1.8141
 6398SOL     OW19771   9.139   6.759   3.909  0.3638 -0.1389 -0.2417
 6398SOL    HW119772   9.232   6.773   3.890  0.7873 -1.5293  0.6654
 6398SOL    HW219773   9.137   6.681   3.965 -1.3920 -0.4660 -0.6891
 6399SOL     OW19774   0.770   5.312   0.019  0.2134 -0.4071 -0.1389
 6399SOL    HW119775   0.735   5.281   0.102  1.8942  0.9041  1.1257
 6399SOL    HW219776   0.694   5.313  -0.040 -1.2982 -0.1707  1.7096
 6400SOL     OW19777   8.337   5.232   7.577 -0.1283 -0.4424 -0.5445
 6400SOL    HW119778   8.405   5.207   7.640 -0.7526 -2.2299 -0.5407
 6400SOL    HW219779   8.260   5.183   7.603 -1.5328  1.6787 -0.4485
 6401SOL     OW19780   7.996   7.123   3.949  0.1321  0.3487  0.2418
 6401SOL    HW119781   8.086   7.133   3.917  0.8391 -0.6358  1.8178
 6401SOL    HW219782   8.002   7.059   4.020 -1.7424  0.6451  0.7330
 6402SOL     OW19783   9.131   9.908   0.814  0.4331  0.0466 -0.1473
 6402SOL    HW119784   9.119   9.966   0.739  1.9142  0.9763  0.2852
 6402SOL    HW219785   9.198   9.846   0.786  0.0276 -0.4389 -0.0461
 6403SOL     OW19786   1.343   8.697   7.578 -0.0583  0.3061 -0.2138
 6403SOL    HW119787   1.313   8.711   7.488  0.4490 -0.6258 -0.5391
 6403SOL    HW219788   1.432   8.663   7.569 -0.1812 -0.2646  0.6204
 6404SOL     OW19789   2.927   7.704   8.349  0.1498 -0.6143 -0.0047
 6404SOL    HW119790   2.912   7.771   8.283  0.2642 -0.4602  0.1249
 6404SOL    HW219791   2.994   7.647   8.311  0.0771 -0.6352 -0.0999
 6405SOL     OW19792   1.041   0.209   1.352 -0.0003  0.0902 -0.2490
 6405SOL    HW119793   1.105   0.268   1.310 -0.4772  0.9140  0.1509
 6405SOL    HW219794   0.984   0.181   1.281 -0.0571  0.4960 -0.3662
 6406SOL     OW19795   3.865   7.962   7.787 -0.0949  0.4253 -0.7648
 6406SOL    HW119796   3.770   7.954   7.779 -0.3255  1.6410  0.3744
 6406SOL    HW219797   3.899   7.878   7.757 -1.5728 -0.2917 -0.5264
 6407SOL     OW19798   5.173   9.184   4.798  0.3905  0.4140 -0.1156
 6407SOL    HW119799   5.262   9.215   4.815  0.2104 -0.0626  1.9671
 6407SOL    HW219800   5.171   9.096   4.835 -1.4117  1.0779  1.5523
 6408SOL     OW19801   3.521   6.651   4.312  0.6229 -0.0709  0.5028
 6408SOL    HW119802   3.598   6.668   4.368  0.8404 -0.7347  0.4119
 6408SOL    HW219803   3.552   6.588   4.248 -0.0711 -0.5259  0.6129
 6409SOL     OW19804   6.049   7.891   4.087  0.2463  0.2432  0.6837
 6409SOL    HW119805   6.127   7.924   4.043 -0.3341  0.2581 -0.3609
 6409SOL    HW219806   6.006   7.836   4.022 -0.1469 -0.5003  1.5485
 6410SOL     OW19807   2.142   7.099   3.478  0.2481  0.3992 -0.6376
 6410SOL    HW119808   2.172   7.144   3.399  0.9009 -0.8197 -1.1078
 6410SOL    HW219809   2.196   7.020   3.483  0.1952  0.4301  1.0149
 6411SOL     OW19810   2.179   8.417   0.371 -0.2449  0.4018 -0.3121
 6411SOL    HW119811   2.232   8.427   0.450  1.5026  1.5884 -1.5732
 6411SOL    HW219812   2.194   8.327   0.343  3.1278  1.3095 -1.9236
 6412SOL     OW19813   6.708   0.921   8.626 -0.3799 -0.0085 -0.3481
 6412SOL    HW119814   6.667   0.976   8.559 -0.0150 -0.0300 -0.5948
 6412SOL    HW219815   6.636   0.891   8.681 -0.4570  2.1993  0.9127
 6413SOL     OW19816   5.035   6.223   6.718 -0.5208  0.1052  0.4328
 6413SOL    HW119817   4.977   6.174   6.660 -0.9591  0.1625  0.8214
 6413SOL    HW219818   5.052   6.164   6.791 -1.0449  0.5223  0.8996
 6414SOL     OW19819   8.822   7.108   2.431 -0.0213  0.0361 -0.0432
 6414SOL    HW119820   8.747   7.156   2.467 -1.3580 -1.8529 -0.1291
 6414SOL    HW219821   8.802   7.016   2.449  1.3766 -0.6586 -1.7618
 6415SOL     OW19822   3.520   6.392   3.448 -0.2672 -0.2755 -0.8426
 6415SOL    HW119823   3.510   6.365   3.539 -1.3451 -1.2007 -1.2247
 6415SOL    HW219824   3.577   6.326   3.409  1.5953  1.0276 -0.4645
 6416SOL     OW19825   7.677   4.371   8.861  0.5085  0.2392  0.0336
 6416SOL    HW119826   7.718   4.321   8.931  0.6255 -0.0066 -0.2075
 6416SOL    HW219827   7.612   4.425   8.905  0.1458 -0.3715  0.2630
 6417SOL     OW19828   5.845   7.035   6.299  0.2018  0.2608  0.1790
 6417SOL    HW119829   5.771   7.084   6.266  1.1404  2.5104  1.2048
 6417SOL    HW219830   5.833   7.033   6.394  0.4323 -1.1350  0.2046
 6418SOL     OW19831   1.620   0.395   7.247  0.0545 -0.1809  0.0557
 6418SOL    HW119832   1.602   0.349   7.329  0.4679 -0.6539 -0.1092
 6418SOL    HW219833   1.656   0.327   7.189  2.1394  0.6272  0.3034
 6419SOL     OW19834   8.042   6.557   1.477  0.6760  1.0283 -0.1671
 6419SOL    HW119835   8.118   6.527   1.527 -0.1546  1.8854  1.6892
 6419SOL    HW219836   7.976   6.577   1.543 -1.7784 -1.1506 -1.7527
 6420SOL     OW19837   8.466   5.136   0.913 -0.5736 -0.2871 -0.7858
 6420SOL    HW119838   8.379   5.133   0.875 -0.6703 -0.6592 -0.5464
 6420SOL    HW219839   8.481   5.228   0.935 -0.8288 -0.1958 -0.9991
 6421SOL     OW19840   3.377   5.699   7.410 -0.6570 -0.3883 -0.2835
 6421SOL    HW119841   3.429   5.639   7.357 -2.4908 -1.3909 -1.0374
 6421SOL    HW219842   3.410   5.688   7.499  0.5928 -0.7480 -0.7635
 6422SOL     OW19843   8.421   0.954   2.700 -0.2364  0.5797  0.6589
 6422SOL    HW119844   8.480   1.022   2.732 -0.2566  1.8467 -1.7480
 6422SOL    HW219845   8.334   0.995   2.702 -0.5697 -0.1344  1.1591
 6423SOL     OW19846   4.723   3.981   1.159  0.1074 -0.2475 -0.2247
 6423SOL    HW119847   4.786   4.005   1.091 -1.2698  0.4946 -1.2981
 6423SOL    HW219848   4.737   4.046   1.228 -1.1414  1.5559 -1.5606
 6424SOL     OW19849   0.507   5.797   5.150 -0.0918 -0.3446  0.0723
 6424SOL    HW119850   0.448   5.860   5.110  1.1567  0.1052 -1.1269
 6424SOL    HW219851   0.502   5.720   5.094  0.8999 -0.0847 -0.3915
 6425SOL     OW19852   8.690   5.566   4.330  0.2861  0.0176  0.0485
 6425SOL    HW119853   8.672   5.600   4.418 -2.5310  1.8516 -1.1019
 6425SOL    HW219854   8.747   5.491   4.345  1.5018  1.3982  3.2740
 6426SOL     OW19855   4.140   4.287   5.525 -0.4760 -0.0458  0.0866
 6426SOL    HW119856   4.069   4.229   5.556 -0.8123  0.6854  0.7266
 6426SOL    HW219857   4.219   4.234   5.536 -0.9038 -0.8443 -0.5484
 6427SOL     OW19858   1.010   0.946   7.928  0.3648 -0.0267  0.9098
 6427SOL    HW119859   1.017   1.038   7.905  1.7131 -0.5782 -1.0969
 6427SOL    HW219860   1.098   0.921   7.957  0.9372 -1.4156 -1.7428
 6428SOL     OW19861   7.382   6.432   1.681 -0.0600 -0.0239  0.1975
 6428SOL    HW119862   7.301   6.483   1.681  0.7392  1.3184  0.6608
 6428SOL    HW219863   7.450   6.497   1.664  0.9032 -1.1597 -0.4137
 6429SOL     OW19864   3.646   0.916   6.701 -0.7011  0.3316  0.2724
 6429SOL    HW119865   3.632   0.980   6.770  0.5388 -0.4457  1.2803
 6429SOL    HW219866   3.681   0.839   6.746 -2.6273 -1.2656 -0.8335
 6430SOL     OW19867   0.949   0.385   0.978 -0.1195 -0.1952 -0.0998
 6430SOL    HW119868   0.982   0.313   0.925  1.9135  0.5989 -0.0283
 6430SOL    HW219869   0.946   0.460   0.918 -0.3988  0.0993  0.2712
 6431SOL     OW19870   9.860   3.323   9.546 -0.3402 -0.4389 -0.1539
 6431SOL    HW119871   9.769   3.317   9.516 -0.2909 -0.8670 -0.2238
 6431SOL    HW219872   9.858   3.287   9.635 -0.1898 -0.7011 -0.2573
 6432SOL     OW19873   3.828   5.813   5.168 -0.5214 -0.3514  0.1478
 6432SOL    HW119874   3.779   5.892   5.190  0.4505  0.3422 -0.0835
 6432SOL    HW219875   3.881   5.795   5.246  0.1878 -0.0326 -0.2503
 6433SOL     OW19876   0.640   9.305   0.223 -0.3759 -0.3138 -0.3098
 6433SOL    HW119877   0.589   9.267   0.294  1.5078 -0.9030  0.8124
 6433SOL    HW219878   0.706   9.239   0.202  1.5544  1.3457  0.1349
 6434SOL     OW19879   9.855   8.083   7.318 -0.0685 -0.3419  0.2135
 6434SOL    HW119880   9.850   7.994   7.354  0.3852  0.2385  1.8077
 6434SOL    HW219881   9.926   8.079   7.254 -0.0890 -1.1380  0.2288
 6435SOL     OW19882   5.933   6.726   0.210 -0.2618 -0.0031  0.2756
 6435SOL    HW119883   5.838   6.718   0.205 -0.2938  0.6579 -0.2632
 6435SOL    HW219884   5.955   6.694   0.298 -0.9212 -0.6444  0.2227
 6436SOL     OW19885   6.163   6.535   0.877  0.1841 -0.0116  0.0931
 6436SOL    HW119886   6.229   6.573   0.935  0.4441  1.6147 -1.2180
 6436SOL    HW219887   6.213   6.496   0.806 -0.2294  0.2783 -0.3604
 6437SOL     OW19888   3.260   2.620   1.520 -0.1446  0.2846  0.2780
 6437SOL    HW119889   3.267   2.617   1.425 -1.4642  0.4761  0.1458
 6437SOL    HW219890   3.186   2.680   1.536 -1.1736 -1.1920  1.3412
 6438SOL     OW19891   7.577   5.629   1.878 -0.5933  0.2539  0.0802
 6438SOL    HW119892   7.484   5.653   1.877 -0.9543 -0.9194 -2.1454
 6438SOL    HW219893   7.604   5.634   1.786  1.7906  1.3173  0.7618
 6439SOL     OW19894   1.481   3.715   5.755 -0.5373  0.3891 -0.3668
 6439SOL    HW119895   1.411   3.779   5.763 -1.2125 -0.0493 -2.2516
 6439SOL    HW219896   1.524   3.735   5.672 -0.3320 -1.1405 -0.6750
 6440SOL     OW19897   5.630   5.246   6.908  0.5516 -0.2130 -0.1411
 6440SOL    HW119898   5.653   5.299   6.831 -0.8461 -0.9909 -1.1290
 6440SOL    HW219899   5.576   5.175   6.874  0.6878 -1.1308  1.4453
 6441SOL     OW19900   0.679   1.357   5.184  0.1987  0.6322  0.3264
 6441SOL    HW119901   0.658   1.425   5.249  1.3907  1.8536 -0.5312
 6441SOL    HW219902   0.724   1.289   5.235  2.2502  2.1411  0.6167
 6442SOL     OW19903   8.817   6.654   1.222 -0.1271 -0.2874 -0.0620
 6442SOL    HW119904   8.744   6.633   1.280 -0.1642  0.2197  0.0768
 6442SOL    HW219905   8.886   6.684   1.281 -0.4943  1.1681 -0.3377
 6443SOL     OW19906   2.246   4.530   8.312  0.2141 -0.0898  0.2451
 6443SOL    HW119907   2.203   4.573   8.239  0.6316  1.9787  1.1466
 6443SOL    HW219908   2.244   4.595   8.383  4.6642  0.1472  0.4031
 6444SOL     OW19909   2.834   1.340   1.249  0.1580 -0.0162  0.4338
 6444SOL    HW119910   2.783   1.372   1.175 -0.3800  0.8307  1.1459
 6444SOL    HW219911   2.779   1.271   1.287  0.3302 -0.2925  0.1844
 6445SOL     OW19912   7.917   5.755   0.826  0.5398 -0.5249 -0.0803
 6445SOL    HW119913   7.851   5.824   0.835  0.6905  0.0296 -2.4205
 6445SOL    HW219914   7.908   5.702   0.905 -1.2264  0.7827  0.6646
 6446SOL     OW19915   6.775   3.493   5.475  0.0515 -0.3475 -0.1722
 6446SOL    HW119916   6.744   3.474   5.387 -1.1332  1.7062 -0.2677
 6446SOL    HW219917   6.798   3.586   5.473 -0.2528 -0.1771  1.7320
 6447SOL     OW19918   4.891   4.014   5.678  0.0896  0.0878 -0.2474
 6447SOL    HW119919   4.938   3.931   5.670 -1.7295 -0.9948 -0.2335
 6447SOL    HW219920   4.859   4.033   5.590 -2.4213 -1.0932  0.3094
 6448SOL     OW19921   9.819   8.723   2.961  0.1032  0.6305  0.0051
 6448SOL    HW119922   9.819   8.803   2.908  2.3572  1.1932  0.7821
 6448SOL    HW219923   9.908   8.690   2.956 -0.6459 -1.6095  0.1183
 6449SOL     OW19924   4.752   2.654   5.295 -0.2145 -0.1197  0.1758
 6449SOL    HW119925   4.807   2.607   5.233  3.2827  1.7414  1.6089
 6449SOL    HW219926   4.740   2.594   5.368  1.9500  0.1626  0.8238
 6450SOL     OW19927   9.009   2.839   8.466  0.2246  0.0879 -0.1425
 6450SOL    HW119928   9.031   2.920   8.513 -0.4272 -0.2661  0.7883
 6450SOL    HW219929   8.914   2.838   8.464  0.1253 -1.8617  2.0295
 6451SOL     OW19930   8.258   8.091   5.420  0.6156  0.1833  0.3496
 6451SOL    HW119931   8.282   8.183   5.408  0.6203  0.1945  0.4454
 6451SOL    HW219932   8.239   8.060   5.331 -0.9328  0.7129  0.4557
 6452SOL     OW19933   6.386   9.698   4.302 -0.1598 -0.2015 -0.6021
 6452SOL    HW119934   6.458   9.691   4.239 -0.2544 -1.7289 -0.5940
 6452SOL    HW219935   6.308   9.707   4.247 -0.3383 -2.4045 -0.8061
 6453SOL     OW19936   6.776   9.588   1.549  0.0954 -0.0406 -0.4425
 6453SOL    HW119937   6.743   9.652   1.612  0.9945 -1.6100  1.7449
 6453SOL    HW219938   6.850   9.632   1.507  0.8970  0.3094  1.2474
 6454SOL     OW19939   5.878   6.655   0.505  0.4825  0.3325 -0.3728
 6454SOL    HW119940   5.840   6.631   0.589  0.5223 -0.0698 -0.4693
 6454SOL    HW219941   5.956   6.600   0.497 -0.5313 -1.0064 -1.5141
 6455SOL     OW19942   3.049   4.836   4.447 -0.0638 -0.3382 -0.1370
 6455SOL    HW119943   2.967   4.886   4.452  0.1407 -0.0635  0.5542
 6455SOL    HW219944   3.100   4.882   4.381 -0.3054 -0.2778 -0.2856
 6456SOL     OW19945   3.682   3.819   9.074  0.1174  0.0644  0.1555
 6456SOL    HW119946   3.723   3.869   9.004  1.2684 -0.9290  0.0872
 6456SOL    HW219947   3.739   3.831   9.149  0.0942 -0.6661  0.2997
 6457SOL     OW19948   7.385   8.653   6.273 -0.6449 -0.1992 -0.6080
 6457SOL    HW119949   7.300   8.612   6.292  0.1432 -1.0016  1.5496
 6457SOL    HW219950   7.376   8.743   6.306 -0.8384 -0.1089 -0.9072
 6458SOL     OW19951   9.619   9.620   6.393 -0.0238 -0.6733  0.4742
 6458SOL    HW119952   9.656   9.539   6.428 -0.3667 -0.2312  1.9201
 6458SOL    HW219953   9.563   9.591   6.321 -0.2065 -1.7353  1.0193
 6459SOL     OW19954   0.524   8.908   0.590 -0.0587 -0.1658  0.0563
 6459SOL    HW119955   0.445   8.856   0.576 -0.3702  0.4366 -0.4308
 6459SOL    HW219956   0.550   8.936   0.503 -0.4451  1.3030  0.3953
 6460SOL     OW19957   7.436   5.137   5.393 -0.0488 -0.7336  0.0999
 6460SOL    HW119958   7.506   5.119   5.456  2.1160  0.2098 -1.8831
 6460SOL    HW219959   7.375   5.192   5.441  1.4274 -0.1833  1.4478
 6461SOL     OW19960   7.805   3.438   0.663  0.2470 -0.1938  0.1648
 6461SOL    HW119961   7.717   3.452   0.628 -0.5224  0.7911  2.3656
 6461SOL    HW219962   7.855   3.514   0.632 -0.5574  0.9281  1.5261
 6462SOL     OW19963   9.449   5.301   3.257 -0.1070  0.1355  0.1771
 6462SOL    HW119964   9.535   5.316   3.296 -0.4668  1.5161  0.5223
 6462SOL    HW219965   9.466   5.259   3.173  0.8816  0.0875  0.3990
 6463SOL     OW19966   2.474   7.090   0.549 -0.8783 -0.2986  0.5377
 6463SOL    HW119967   2.558   7.094   0.596 -0.6066 -0.7786  0.1111
 6463SOL    HW219968   2.414   7.141   0.603  0.0541  1.3769  0.0857
 6464SOL     OW19969   6.683   8.659   0.621  0.2678 -0.1477 -0.1385
 6464SOL    HW119970   6.747   8.722   0.588 -0.8704  1.7597  1.0420
 6464SOL    HW219971   6.732   8.604   0.682  0.6591  1.9881  1.6059
 6465SOL     OW19972   5.228   0.066   0.735 -0.1531  0.1416 -0.3927
 6465SOL    HW119973   5.234  -0.030   0.735 -0.7781  0.0897  0.5224
 6465SOL    HW219974   5.226   0.090   0.828  0.4858  1.0788 -0.6148
 6466SOL     OW19975   9.675   8.001   9.118 -0.1820 -0.0000 -0.2442
 6466SOL    HW119976   9.673   7.906   9.128  0.0584 -0.1998 -1.8098
 6466SOL    HW219977   9.583   8.028   9.124 -0.1655 -0.2036  1.1273
 6467SOL     OW19978   4.619   5.941   4.642  0.1251  0.2577 -0.4136
 6467SOL    HW119979   4.570   5.970   4.718  0.1188  0.4407 -0.4873
 6467SOL    HW219980   4.682   5.877   4.676 -0.0661  0.1313 -0.2993
 6468SOL     OW19981   7.875   6.982   2.444  0.7173 -0.6879  1.2097
 6468SOL    HW119982   7.924   6.904   2.469  1.2299 -1.2622 -1.3047
 6468SOL    HW219983   7.905   7.003   2.356 -2.2905 -0.0352  0.2097
 6469SOL     OW19984   9.794   5.641   5.431  0.1663 -0.0346 -0.1652
 6469SOL    HW119985   9.746   5.694   5.495  1.2481 -0.5533  1.1151
 6469SOL    HW219986   9.748   5.558   5.428 -0.2950  0.2276 -0.6103
 6470SOL     OW19987   3.296   4.568   6.947 -0.0743 -0.0571 -0.1234
 6470SOL    HW119988   3.208   4.569   6.908 -0.2480  0.7848  0.2778
 6470SOL    HW219989   3.312   4.475   6.967 -0.9200 -0.2060 -0.0947
 6471SOL     OW19990   5.917   6.662   7.287 -0.6736  0.5043  0.2434
 6471SOL    HW119991   5.902   6.590   7.348 -2.0239  1.2929  0.8853
 6471SOL    HW219992   5.891   6.627   7.202  1.3021 -0.6336  0.0344
 6472SOL     OW19993   9.690   4.485   0.740 -0.0990 -0.0274 -0.4205
 6472SOL    HW119994   9.765   4.540   0.764 -1.0824  0.3947  2.0040
 6472SOL    HW219995   9.665   4.441   0.821 -2.3982 -0.2493 -1.1640
 6473SOL     OW19996   3.513   8.626   7.283 -0.6573 -0.1668  0.8316
 6473SOL    HW119997   3.475   8.714   7.280 -0.0484  0.1085  1.1434
 6473SOL    HW219998   3.599   8.638   7.323 -0.2897 -0.8109  0.2401
 6474SOL     OW19999   4.278   6.552   2.541 -0.0776  0.5811 -0.4755
 6474SOL    HW120000   4.233   6.589   2.465  0.0986  2.5319  0.3206
 6474SOL    HW220001   4.371   6.565   2.524 -0.0759  2.2231  0.6055
 6475SOL     OW20002   5.931   7.300   8.110  0.0329  0.4434 -0.0700
 6475SOL    HW120003   5.840   7.274   8.124  0.3883 -0.0449  1.6148
 6475SOL    HW220004   5.963   7.322   8.198  1.5673  0.4901 -0.6109
 6476SOL     OW20005   6.591   9.018   2.557  0.1550 -0.1685 -0.1962
 6476SOL    HW120006   6.642   8.943   2.588 -0.1781  0.2406  1.4260
 6476SOL    HW220007   6.654   9.090   2.556  0.4014 -0.3854 -1.4640
 6477SOL     OW20008   4.113   9.241   1.253 -0.0686 -0.0722  0.0362
 6477SOL    HW120009   4.099   9.164   1.307 -0.2286 -0.6165 -0.7645
 6477SOL    HW220010   4.106   9.209   1.163  1.4534  0.5495 -0.3371
 6478SOL     OW20011   4.888   1.940   2.984 -0.3186  0.0689  0.4141
 6478SOL    HW120012   4.925   1.863   2.939 -0.5428  0.3886 -0.3414
 6478SOL    HW220013   4.835   1.903   3.054 -2.0174 -0.5886 -1.1267
 6479SOL     OW20014   4.560   9.835   7.372  0.2452 -0.3343  0.1271
 6479SOL    HW120015   4.506   9.869   7.443 -0.3583 -0.0806 -0.4360
 6479SOL    HW220016   4.528   9.746   7.359 -0.1530 -0.1307 -0.3120
 6480SOL     OW20017   6.961   9.689   7.976 -0.4082  0.1355 -0.6435
 6480SOL    HW120018   6.917   9.775   7.979 -0.4504  0.0781  0.8551
 6480SOL    HW220019   6.945   9.651   8.062 -1.8109 -2.1142 -1.8209
 6481SOL     OW20020   5.710   0.783   5.160  0.1762  0.2810  0.1184
 6481SOL    HW120021   5.642   0.817   5.219  0.7751 -2.1704  2.4073
 6481SOL    HW220022   5.668   0.709   5.115  0.4737  0.6060 -0.7087
 6482SOL     OW20023   4.725   9.147   0.615 -0.1680 -0.9636 -0.1087
 6482SOL    HW120024   4.784   9.101   0.674 -0.7965 -0.7921  0.6753
 6482SOL    HW220025   4.778   9.219   0.579  0.8673 -2.3491 -1.4851
 6483SOL     OW20026   6.437   5.834   3.354 -0.7329  0.1842  0.3222
 6483SOL    HW120027   6.489   5.910   3.330  0.4960 -0.7734 -0.1983
 6483SOL    HW220028   6.425   5.842   3.449  1.6226 -0.2525  0.7158
 6484SOL     OW20029   2.226   5.718   5.147 -0.2863  0.1923  0.0407
 6484SOL    HW120030   2.240   5.685   5.058 -0.0088 -0.4712  0.3191
 6484SOL    HW220031   2.314   5.736   5.180 -0.4910  2.9255 -0.7016
 6485SOL     OW20032   6.137   2.463   6.740  0.2127 -0.5770 -0.1333
 6485SOL    HW120033   6.095   2.380   6.716 -0.4948 -0.5741  1.0130
 6485SOL    HW220034   6.073   2.506   6.797  0.9717  0.3273  0.0549
 6486SOL     OW20035   9.464   2.312   7.158  0.3454 -0.2010  0.4781
 6486SOL    HW120036   9.521   2.286   7.230  2.5158 -0.4974 -1.2479
 6486SOL    HW220037   9.523   2.333   7.086 -1.7190 -0.0043 -1.2890
 6487SOL     OW20038   4.465   6.598   3.101 -0.6115  0.1526 -0.0181
 6487SOL    HW120039   4.459   6.614   3.007 -0.4849  0.7773  0.0752
 6487SOL    HW220040   4.502   6.510   3.109 -3.1614 -1.0763 -0.5857
 6488SOL     OW20041   7.517   4.480   0.353 -0.0193  0.2038 -0.0892
 6488SOL    HW120042   7.611   4.467   0.343 -0.3765 -2.1794 -1.0576
 6488SOL    HW220043   7.487   4.505   0.266 -0.5578 -1.3376 -0.3751
 6489SOL     OW20044   1.838   1.838   8.640  0.5346 -0.6195 -0.5889
 6489SOL    HW120045   1.783   1.805   8.711  1.7423 -0.4026  0.4902
 6489SOL    HW220046   1.826   1.933   8.642  0.6471 -0.6041 -0.6143
 6490SOL     OW20047   7.546   7.101   9.351 -0.4023  0.7274  0.4392
 6490SOL    HW120048   7.529   7.037   9.282 -0.7876 -0.1121  1.2875
 6490SOL    HW220049   7.552   7.049   9.431  2.9371  1.3215  0.7093
 6491SOL     OW20050   2.560   4.314   6.811  0.3538  0.2877  0.1880
 6491SOL    HW120051   2.604   4.233   6.785  2.9171  1.3451  0.9305
 6491SOL    HW220052   2.619   4.383   6.781 -2.1261  1.9612 -1.1073
 6492SOL     OW20053   4.273   7.868   7.715  0.1046  0.0001  0.2223
 6492SOL    HW120054   4.271   7.822   7.799  0.7917 -1.5568 -0.5775
 6492SOL    HW220055   4.361   7.905   7.709  0.1920 -0.2395  0.0121
 6493SOL     OW20056   8.276   3.177   6.774 -0.0371 -0.2674 -0.0150
 6493SOL    HW120057   8.276   3.203   6.682  1.1214 -0.9604 -0.2369
 6493SOL    HW220058   8.205   3.113   6.781 -1.2521  1.0312 -0.0188
 6494SOL     OW20059   3.700   3.882   6.594 -0.2931  0.2644  0.5828
 6494SOL    HW120060   3.767   3.931   6.548  0.7692 -2.3979 -0.9648
 6494SOL    HW220061   3.620   3.934   6.584  0.6929  1.5229 -1.1487
 6495SOL     OW20062   2.679   8.215   3.897  0.4581  0.0849 -0.0681
 6495SOL    HW120063   2.746   8.147   3.885 -0.4550 -1.1954  1.6998
 6495SOL    HW220064   2.604   8.169   3.933 -0.2370  2.0171  1.1164
 6496SOL     OW20065   8.798   7.383   4.999 -0.3078 -0.1944 -0.5710
 6496SOL    HW120066   8.730   7.342   4.947  0.3972 -0.6339 -1.1717
 6496SOL    HW220067   8.875   7.328   4.986  0.8087  1.5372 -1.7730
 6497SOL     OW20068   6.909   8.115   0.768 -0.3075 -0.4786 -0.3816
 6497SOL    HW120069   7.004   8.122   0.769 -0.3075  0.6469 -2.1907
 6497SOL    HW220070   6.881   8.145   0.854  0.9695 -1.0278  0.2391
 6498SOL     OW20071   7.895   1.660   6.520  0.5998  0.4691  0.6521
 6498SOL    HW120072   7.979   1.616   6.505 -0.4449 -1.2822 -0.4173
 6498SOL    HW220073   7.910   1.750   6.492  1.0515 -0.7453 -3.7362
 6499SOL     OW20074   2.312   9.842   5.590  0.5728  0.0293  0.1174
 6499SOL    HW120075   2.371   9.806   5.657  0.9057 -3.6225 -1.8419
 6499SOL    HW220076   2.225   9.831   5.626  0.7252 -2.2430 -0.0205
 6500SOL     OW20077   0.028   0.102   9.747 -0.0150  0.1458 -0.1459
 6500SOL    HW120078   0.020   0.008   9.733 -0.1804  0.2718 -1.0202
 6500SOL    HW220079   0.091   0.112   9.818 -0.2364 -0.6276  0.1678
 6501SOL     OW20080   4.934   7.633   4.062 -0.0888 -0.3479  0.4610
 6501SOL    HW120081   4.896   7.705   4.112 -1.6713 -2.5301  2.6371
 6501SOL    HW220082   4.908   7.650   3.971 -0.5719  1.6859  0.9374
 6502SOL     OW20083   2.826   7.426   5.737 -0.5153 -0.5305  0.1296
 6502SOL    HW120084   2.899   7.425   5.675 -0.4816 -0.4148  0.1654
 6502SOL    HW220085   2.797   7.335   5.743  0.4728 -0.7954  1.1178
 6503SOL     OW20086   4.777   5.129   8.593  0.0076 -0.7192  0.0862
 6503SOL    HW120087   4.701   5.140   8.650  0.4438 -1.7046  0.9014
 6503SOL    HW220088   4.741   5.130   8.504 -0.8244 -0.2210  0.4172
 6504SOL     OW20089   1.918   0.963   5.639  0.1631 -0.0167  0.7714
 6504SOL    HW120090   2.003   0.921   5.625 -1.2371 -2.7748 -0.2576
 6504SOL    HW220091   1.910   1.027   5.569  1.1532 -0.1008  0.5688
 6505SOL     OW20092   6.184   5.963   1.233 -0.1438 -0.0895 -0.0609
 6505SOL    HW120093   6.095   5.972   1.200 -0.2748 -0.2835  0.2354
 6505SOL    HW220094   6.239   5.996   1.162 -0.4264 -0.4308 -0.4439
 6506SOL     OW20095   6.084   8.533   8.305  0.3325  0.4235  0.4067
 6506SOL    HW120096   6.107   8.508   8.394  2.4339  0.8100  0.0262
 6506SOL    HW220097   6.168   8.542   8.260 -0.6795 -1.6408 -2.1530
 6507SOL     OW20098   8.685   8.611   1.117 -0.5548 -0.2390 -0.2479
 6507SOL    HW120099   8.594   8.609   1.145 -0.8324  0.2026 -1.0988
 6507SOL    HW220100   8.684   8.653   1.031  0.4920  0.1358 -0.1019
 6508SOL     OW20101   0.940   2.413   1.234 -0.0021  0.1978  0.7005
 6508SOL    HW120102   0.960   2.460   1.315  1.9417 -0.4895  0.6633
 6508SOL    HW220103   0.998   2.451   1.169  0.1885 -0.9010  0.2054
 6509SOL     OW20104   7.086   1.751   9.989 -0.3661 -0.1339  0.3424
 6509SOL    HW120105   7.076   1.754   9.894 -0.4728  1.7234  0.3933
 6509SOL    HW220106   7.040   1.670  10.015  1.6765 -1.9736 -1.3659
 6510SOL     OW20107   4.401   4.835   1.254  0.1039 -0.8441  0.1945
 6510SOL    HW120108   4.421   4.920   1.295 -1.7591 -0.0920 -0.3727
 6510SOL    HW220109   4.308   4.839   1.234 -0.0593 -3.1030  0.2595
 6511SOL     OW20110   1.412   5.383   1.721  0.3441  0.5365  0.1529
 6511SOL    HW120111   1.455   5.443   1.660  1.2758 -0.7585 -0.5368
 6511SOL    HW220112   1.369   5.439   1.784  0.4982  1.9239 -0.9251
 6512SOL     OW20113   4.784   1.510   1.860 -0.1881 -0.0032  0.1044
 6512SOL    HW120114   4.740   1.450   1.920  1.2401 -1.0609  0.1427
 6512SOL    HW220115   4.792   1.592   1.910 -1.5032  0.0190  0.3133
 6513SOL     OW20116   3.044   7.326   8.314 -0.2297 -0.0235 -0.7631
 6513SOL    HW120117   3.075   7.415   8.302  0.4686 -0.1869 -0.2470
 6513SOL    HW220118   3.006   7.302   8.229  2.9836 -0.5525 -2.1902
 6514SOL     OW20119   1.760   7.564   4.221  0.2319  0.2067 -0.3845
 6514SOL    HW120120   1.703   7.507   4.272  0.8184  1.2443  1.5154
 6514SOL    HW220121   1.821   7.504   4.178 -0.4638 -0.7136 -0.1143
 6515SOL     OW20122   6.878   5.767   2.055  0.7008 -0.5436  0.2938
 6515SOL    HW120123   6.789   5.793   2.080  0.0534 -2.6803  0.4453
 6515SOL    HW220124   6.920   5.744   2.139  1.1116 -0.3696  0.1379
 6516SOL     OW20125   7.621   3.993   6.704  0.0653 -0.3431 -0.3898
 6516SOL    HW120126   7.628   3.972   6.611  1.3647 -0.1757 -0.3446
 6516SOL    HW220127   7.712   3.995   6.736 -0.3312  0.0107  0.7889
 6517SOL     OW20128   3.897   8.440   9.383  0.1270  0.7759  0.6647
 6517SOL    HW120129   3.943   8.365   9.421 -0.2047  0.9168  1.3681
 6517SOL    HW220130   3.950   8.516   9.409  0.2909  0.8182  0.2219
 6518SOL     OW20131   4.001   2.997   3.856  0.2584  0.6750  0.3956
 6518SOL    HW120132   4.070   3.061   3.876 -0.6666  1.8433 -0.0100
 6518SOL    HW220133   4.029   2.917   3.901  0.4582  1.9268  2.6885
 6519SOL     OW20134   5.161   0.785   5.912 -0.0501 -0.3379  0.0780
 6519SOL    HW120135   5.176   0.691   5.926  2.5597 -0.2698 -1.5953
 6519SOL    HW220136   5.201   0.827   5.987 -1.8713 -0.5131  1.2125
 6520SOL     OW20137   3.397   8.788   5.847  0.0371  0.2359 -0.2455
 6520SOL    HW120138   3.429   8.705   5.882  1.0279  0.5148 -0.4691
 6520SOL    HW220139   3.312   8.766   5.810 -0.5070 -0.3210  1.2276
 6521SOL     OW20140   5.435   3.316   4.834 -0.4686  0.1201 -0.1125
 6521SOL    HW120141   5.468   3.330   4.923  2.2856  2.9423 -1.3849
 6521SOL    HW220142   5.353   3.364   4.830 -0.2902  0.5095  0.7401
 6522SOL     OW20143   4.686   7.226   7.862 -0.2199  0.0838 -0.4622
 6522SOL    HW120144   4.726   7.207   7.777  0.6726 -2.1008  0.3620
 6522SOL    HW220145   4.759   7.257   7.916 -0.6214  0.6745 -0.2427
 6523SOL     OW20146   8.071   3.150   9.946 -0.1034 -0.2140 -0.0512
 6523SOL    HW120147   8.048   3.060   9.970 -1.1914  0.1792  0.4278
 6523SOL    HW220148   8.008   3.204   9.992  2.2620  1.0131  1.9693
 6524SOL     OW20149   2.675   3.696   1.572 -0.5346 -0.2751 -0.3102
 6524SOL    HW120150   2.688   3.631   1.504 -0.8212 -0.4617 -0.1875
 6524SOL    HW220151   2.730   3.666   1.645  2.5114  1.6768 -1.5807
 6525SOL     OW20152   3.513   5.147   0.116  0.2531  0.4053  0.4494
 6525SOL    HW120153   3.551   5.083   0.177  2.9160  0.0431 -1.4057
 6525SOL    HW220154   3.473   5.094   0.047 -0.1538  0.7859  0.3893
 6526SOL     OW20155   5.184   9.933   8.342 -0.0405 -0.0782 -0.0353
 6526SOL    HW120156   5.261   9.879   8.325 -0.0961  0.1364 -1.0195
 6526SOL    HW220157   5.109   9.876   8.324 -0.1467 -0.4988  1.5746
 6527SOL     OW20158   7.361   4.756   6.153 -0.0416 -0.1892 -0.0451
 6527SOL    HW120159   7.341   4.817   6.224 -1.9399 -1.6295  0.7624
 6527SOL    HW220160   7.419   4.691   6.193 -0.8374 -0.8095  0.1467
 6528SOL     OW20161   5.930   7.909   9.844 -0.3703 -0.2396  0.2409
 6528SOL    HW120162   5.953   7.963   9.920 -0.5046  0.5196 -0.2383
 6528SOL    HW220163   6.008   7.912   9.788 -0.4517 -0.3694  0.1206
 6529SOL     OW20164   8.176   2.093   2.750 -0.4282 -0.1570 -0.5697
 6529SOL    HW120165   8.219   2.092   2.835 -0.5421  0.0289 -0.5093
 6529SOL    HW220166   8.108   2.160   2.758 -0.9233 -0.6536 -0.5712
 6530SOL     OW20167   3.635   8.946   9.472  0.2066 -0.2892  0.0675
 6530SOL    HW120168   3.691   8.967   9.546 -0.1771  2.2327 -0.2608
 6530SOL    HW220169   3.662   8.859   9.445  2.4045 -0.0592  1.3112
 6531SOL     OW20170   9.111   5.560   1.249 -0.3000  0.1178  0.5038
 6531SOL    HW120171   9.172   5.539   1.320  1.5671 -1.0679 -1.3186
 6531SOL    HW220172   9.104   5.655   1.251 -1.3412  0.0723  3.0311
 6532SOL     OW20173   9.254   4.504   3.609 -0.1639 -0.0874  0.2828
 6532SOL    HW120174   9.264   4.538   3.520  0.7346  1.3827  0.9145
 6532SOL    HW220175   9.339   4.517   3.649  0.2504 -3.1312  0.6073
 6533SOL     OW20176   2.208   3.683   0.028  0.6941 -0.2434  0.3798
 6533SOL    HW120177   2.237   3.606   0.077 -1.6439 -2.3093 -1.2411
 6533SOL    HW220178   2.118   3.697   0.055 -0.0583 -0.3227 -1.8760
 6534SOL     OW20179   7.642   2.062   7.015  0.2602  0.1605  0.0163
 6534SOL    HW120180   7.668   2.019   6.933  2.1822  0.8372  0.2177
 6534SOL    HW220181   7.606   2.146   6.987  0.6081  0.2521 -0.1635
 6535SOL     OW20182   3.280   3.835   2.231  0.6622  0.0048  0.1240
 6535SOL    HW120183   3.226   3.817   2.154  1.7149  1.9539 -1.1531
 6535SOL    HW220184   3.304   3.748   2.264 -1.1167 -0.8884 -0.7655
 6536SOL     OW20185   1.980   9.741   2.306 -0.1437  0.4498  0.1735
 6536SOL    HW120186   1.892   9.722   2.338  0.1530  0.6779  1.1743
 6536SOL    HW220187   1.982   9.836   2.295  0.1003  0.4925  0.5602
 6537SOL     OW20188   3.011   3.503   0.723 -0.1240 -0.6537 -0.3612
 6537SOL    HW120189   2.974   3.575   0.774  2.0908 -0.4884  1.2127
 6537SOL    HW220190   2.950   3.488   0.652 -0.5007  3.0268 -0.9613
 6538SOL     OW20191   4.588   3.973   9.708 -0.0156  0.2955 -0.1717
 6538SOL    HW120192   4.646   3.996   9.781  0.6992 -0.9306 -0.3415
 6538SOL    HW220193   4.519   3.920   9.748  0.2898 -0.2437 -0.3526
 6539SOL     OW20194   7.325   4.914   6.429  0.1917 -0.8256 -0.4158
 6539SOL    HW120195   7.417   4.939   6.440  0.0729  0.0490 -1.3444
 6539SOL    HW220196   7.278   4.963   6.496  0.1337  0.4549 -1.3605
 6540SOL     OW20197   4.628   4.964   2.500  0.0327 -0.5840  0.5211
 6540SOL    HW120198   4.626   4.876   2.538  0.8637 -0.0049  1.9930
 6540SOL    HW220199   4.594   5.021   2.568 -0.4480  0.2638 -0.3961
 6541SOL     OW20200   7.344   2.658   2.967 -0.7277 -0.2995 -0.1763
 6541SOL    HW120201   7.251   2.636   2.958 -0.8117 -0.1444  0.2973
 6541SOL    HW220202   7.384   2.578   3.000 -0.8939 -0.0130  0.7470
 6542SOL     OW20203   9.174   2.512   2.134 -0.0908  0.2369  0.0606
 6542SOL    HW120204   9.143   2.439   2.081  0.4024  0.5598 -0.6830
 6542SOL    HW220205   9.095   2.542   2.180 -0.6212  0.2063 -0.7955
 6543SOL     OW20206   6.885   6.996   3.503 -0.3134  0.6614  0.2686
 6543SOL    HW120207   6.961   6.963   3.551  0.1009  0.8463 -0.2415
 6543SOL    HW220208   6.811   6.949   3.539  0.2097 -0.5697 -0.1933
 6544SOL     OW20209   9.400   3.324   2.285 -0.0449 -0.6006 -0.2190
 6544SOL    HW120210   9.392   3.246   2.230 -1.5647 -0.5041 -0.1657
 6544SOL    HW220211   9.474   3.304   2.344  1.1116 -1.0122 -1.7536
 6545SOL     OW20212   4.722   2.100   2.111  0.0340  0.4116  0.4854
 6545SOL    HW120213   4.630   2.075   2.102  0.5363 -1.6102  0.5249
 6545SOL    HW220214   4.719   2.193   2.134 -1.9741  0.4931  0.1262
 6546SOL     OW20215   7.004   8.442   1.885  0.2040 -0.3854  0.0437
 6546SOL    HW120216   7.047   8.356   1.892 -0.9819 -0.9692  0.3749
 6546SOL    HW220217   6.912   8.421   1.868  0.0742  0.8412 -0.8933
 6547SOL     OW20218   2.965   7.404   5.310  0.0972 -0.3750 -0.4598
 6547SOL    HW120219   2.886   7.440   5.350 -0.3300 -2.5139  0.7567
 6547SOL    HW220220   2.961   7.432   5.219 -1.6890  0.1594 -0.2507
 6548SOL     OW20221   3.258   3.580   3.234 -0.1481  0.0794 -0.3646
 6548SOL    HW120222   3.210   3.633   3.297  0.6404  1.2444 -0.7283
 6548SOL    HW220223   3.328   3.636   3.203 -0.5492 -0.4487 -2.3318
 6549SOL     OW20224   4.727   4.964   0.758  0.4029  0.2484 -0.7253
 6549SOL    HW120225   4.817   4.977   0.790  0.9382 -1.0575 -1.5818
 6549SOL    HW220226   4.677   4.945   0.837  0.8800  0.9545 -0.2386
 6550SOL     OW20227   5.782   9.435   4.638 -0.1004  0.1469  0.3359
 6550SOL    HW120228   5.851   9.425   4.704  1.4982 -5.0279 -1.6005
 6550SOL    HW220229   5.823   9.484   4.567  0.1543  0.5858  0.7765
 6551SOL     OW20230   8.775   0.748   9.065  0.2226  0.3257 -0.4981
 6551SOL    HW120231   8.709   0.732   8.998 -1.3378 -0.0596  1.0631
 6551SOL    HW220232   8.806   0.837   9.048 -1.9454  1.1772 -0.2829
 6552SOL     OW20233   9.463   9.323   1.206  0.1817  0.0543 -0.2246
 6552SOL    HW120234   9.548   9.346   1.169  0.1537 -0.1772 -0.4362
 6552SOL    HW220235   9.448   9.387   1.276  0.9450 -0.4544  0.4303
 6553SOL     OW20236   0.628   3.343   4.551  0.4745  0.7690  0.2909
 6553SOL    HW120237   0.586   3.426   4.578 -0.2706  0.5231 -0.0815
 6553SOL    HW220238   0.560   3.297   4.502  0.8899 -0.0614  0.4776
 6554SOL     OW20239   3.080   4.365   9.836 -0.6530  0.0584 -0.0603
 6554SOL    HW120240   3.082   4.388   9.928 -0.7612  0.7437 -0.2264
 6554SOL    HW220241   2.988   4.345   9.818 -1.4570  3.8173 -0.9258
 6555SOL     OW20242   5.359   7.396   6.583 -0.1024  0.0853  0.5145
 6555SOL    HW120243   5.266   7.382   6.568 -0.3371  1.3074  0.7083
 6555SOL    HW220244   5.367   7.490   6.600  1.1453 -0.0215  0.6479
 6556SOL     OW20245   3.149   0.290   0.907  0.0623 -0.7148 -0.0259
 6556SOL    HW120246   3.079   0.355   0.914 -0.8092 -1.8231  3.4882
 6556SOL    HW220247   3.225   0.339   0.878 -0.9708  1.5861  0.9410
 6557SOL     OW20248   8.279   9.092   9.078 -0.5690 -0.3814 -0.3516
 6557SOL    HW120249   8.228   9.055   9.006 -0.0240 -1.2270 -0.3071
 6557SOL    HW220250   8.215   9.142   9.129 -0.9276  0.4073 -1.5251
 6558SOL     OW20251   1.578   5.298   3.738  0.3427 -0.7510 -0.6198
 6558SOL    HW120252   1.548   5.262   3.655  0.9918 -3.3683  0.1593
 6558SOL    HW220253   1.643   5.234   3.769  3.1658  2.1842  0.0092
 6559SOL     OW20254   2.463   3.530   9.608  0.1830  0.3385 -0.3061
 6559SOL    HW120255   2.407   3.606   9.590  0.1554 -0.2406 -3.0821
 6559SOL    HW220256   2.545   3.567   9.640 -0.3463  1.4465 -0.1994
 6560SOL     OW20257   9.422   5.030   3.714 -1.0740 -0.6253 -0.3545
 6560SOL    HW120258   9.356   5.070   3.771  0.3578  1.5210 -0.0871
 6560SOL    HW220259   9.372   5.001   3.637 -2.3702  0.8763 -0.1467
 6561SOL     OW20260   7.063   4.037   8.576 -0.0410 -0.2472 -0.1747
 6561SOL    HW120261   7.105   3.975   8.636  1.2656  1.0303  0.3026
 6561SOL    HW220262   6.986   4.068   8.624  0.3258 -0.1400  0.3665
 6562SOL     OW20263   2.698   7.242   5.510 -0.2281 -0.1374 -0.1156
 6562SOL    HW120264   2.646   7.203   5.440  0.1562 -0.2557 -0.3393
 6562SOL    HW220265   2.761   7.174   5.534 -0.1037  0.0409  0.0701
 6563SOL     OW20266   5.869   9.271   5.259 -0.3245  0.1840 -0.3240
 6563SOL    HW120267   5.946   9.231   5.299 -0.6900 -0.4398 -0.2327
 6563SOL    HW220268   5.795   9.220   5.292 -0.8971  1.5352  0.5468
 6564SOL     OW20269   5.066   5.700   4.112 -0.2530 -0.5748 -0.2530
 6564SOL    HW120270   5.124   5.671   4.183 -0.4172  0.5199  0.3568
 6564SOL    HW220271   4.992   5.741   4.157 -1.8551 -2.5161 -1.0042
 6565SOL     OW20272   1.083   6.975   3.861 -0.3368  0.4368  0.3589
 6565SOL    HW120273   1.004   7.005   3.907  0.0127 -0.3461  1.5309
 6565SOL    HW220274   1.079   6.879   3.867  0.1827  0.3485 -0.4930
 6566SOL     OW20275   4.432   7.633   8.822 -0.5839 -0.7365  0.1011
 6566SOL    HW120276   4.398   7.655   8.735  2.8237  0.7444 -1.0301
 6566SOL    HW220277   4.409   7.541   8.834 -2.6370 -0.5293 -1.5502
 6567SOL     OW20278   3.591   4.866   7.419  0.1025 -0.3651 -0.2649
 6567SOL    HW120279   3.675   4.885   7.379 -0.9076 -0.3265 -2.5060
 6567SOL    HW220280   3.539   4.945   7.405  0.1824  0.3322  2.7059
 6568SOL     OW20281   5.430   7.141   6.284 -0.3941 -0.1704  0.0223
 6568SOL    HW120282   5.454   7.052   6.260 -0.3551  0.3055 -1.9221
 6568SOL    HW220283   5.466   7.154   6.371  0.9266 -1.5486 -0.2918
 6569SOL     OW20284   9.631   7.777   4.657  0.5969 -0.3822 -0.4467
 6569SOL    HW120285   9.586   7.859   4.639  0.0582 -0.5173  0.2295
 6569SOL    HW220286   9.715   7.785   4.611  0.5094  0.5009 -0.4704
 6570SOL     OW20287   2.359   0.142   5.487  0.0073 -0.1359  0.5560
 6570SOL    HW120288   2.315   0.128   5.403  1.5436 -0.0306 -0.2966
 6570SOL    HW220289   2.381   0.054   5.517  0.8093 -0.1061  0.0835
 6571SOL     OW20290   9.416   3.159   1.788 -0.1158 -0.1451 -0.3044
 6571SOL    HW120291   9.374   3.073   1.778  0.3941 -0.3632 -0.6132
 6571SOL    HW220292   9.387   3.209   1.712 -0.4770 -0.0099 -0.0837
 6572SOL     OW20293   0.052   0.989   5.540  0.0505  0.0928  0.0435
 6572SOL    HW120294   0.062   1.000   5.446  0.3218  0.5326  0.1192
 6572SOL    HW220295  -0.012   1.055   5.565  2.4075  2.3063  0.6535
 6573SOL     OW20296   7.409   2.290   6.495  0.3139  0.4067 -0.0010
 6573SOL    HW120297   7.496   2.294   6.535  1.7265 -1.8195 -2.5549
 6573SOL    HW220298   7.371   2.209   6.529  0.1564  0.2364 -0.5768
 6574SOL     OW20299   9.659   8.627   0.686 -0.4803  0.0254 -0.1996
 6574SOL    HW120300   9.656   8.573   0.607  0.5672 -0.3749  0.0149
 6574SOL    HW220301   9.749   8.617   0.718 -0.7859  0.4724  0.8376
 6575SOL     OW20302   4.461   5.721   6.301  0.9079 -0.3686  0.4614
 6575SOL    HW120303   4.540   5.725   6.247  0.3168 -2.4737 -0.7125
 6575SOL    HW220304   4.458   5.630   6.332 -0.9411 -0.3128  0.5727
 6576SOL     OW20305   1.634   2.311   3.317 -0.1606  0.1055 -0.4979
 6576SOL    HW120306   1.610   2.222   3.341 -0.0595 -0.0195 -0.8571
 6576SOL    HW220307   1.617   2.362   3.396  1.5656 -0.5460  0.3578
 6577SOL     OW20308   9.430   6.560   6.392 -0.3571  0.5432  0.3089
 6577SOL    HW120309   9.402   6.637   6.441  0.3844 -0.2298  2.0042
 6577SOL    HW220310   9.500   6.522   6.444 -0.7048 -1.2942 -0.4963
 6578SOL     OW20311   8.758   3.697   1.019  0.1336 -0.0120 -0.1717
 6578SOL    HW120312   8.799   3.758   0.958  0.3393 -0.0932 -0.1178
 6578SOL    HW220313   8.686   3.658   0.969  1.0604 -1.0007 -0.7937
 6579SOL     OW20314   4.209   1.771   5.548  0.0172  0.1958  0.9447
 6579SOL    HW120315   4.238   1.683   5.521  0.1137  0.1740  1.1081
 6579SOL    HW220316   4.114   1.769   5.539  0.0011  0.0062  1.1362
 6580SOL     OW20317   2.403   5.177   4.458  0.2205  0.1604  0.0750
 6580SOL    HW120318   2.308   5.190   4.455  0.1869  0.7471  1.9625
 6580SOL    HW220319   2.415   5.083   4.454 -0.5107  0.0303  0.7195
 6581SOL     OW20320   4.000   1.279   8.576  0.4870 -0.9006 -0.7679
 6581SOL    HW120321   4.047   1.319   8.504 -0.9415 -0.2551 -1.3877
 6581SOL    HW220322   4.028   1.328   8.653  0.9210 -0.6070 -1.1109
 6582SOL     OW20323   0.247   4.767   3.568  0.1898  0.4358  0.2178
 6582SOL    HW120324   0.295   4.848   3.583 -0.3026  0.7934 -0.1224
 6582SOL    HW220325   0.155   4.794   3.560  0.2037  0.0595 -1.5711
 6583SOL     OW20326   4.182   6.441   4.774 -0.1663 -0.7667  0.1425
 6583SOL    HW120327   4.171   6.506   4.706 -2.5992 -0.1254  1.0595
 6583SOL    HW220328   4.274   6.448   4.800  0.6358 -0.5634 -2.5368
 6584SOL     OW20329   2.618   7.553   1.247  0.0654 -0.8024 -0.3395
 6584SOL    HW120330   2.572   7.615   1.190 -3.8498 -1.2759  1.8961
 6584SOL    HW220331   2.603   7.468   1.207 -0.9408 -0.9254  0.2402
 6585SOL     OW20332   9.681   3.134   7.272  0.4219 -0.0267  0.7173
 6585SOL    HW120333   9.743   3.164   7.338 -0.6768  0.5483  1.5204
 6585SOL    HW220334   9.735   3.111   7.196  1.7102 -0.8173  1.8496
 6586SOL     OW20335   1.737   1.326   8.156 -0.2268 -0.6458 -0.2681
 6586SOL    HW120336   1.801   1.273   8.108  0.2839 -0.1092 -0.1916
 6586SOL    HW220337   1.779   1.343   8.240  0.2470  1.0826 -0.8170
 6587SOL     OW20338   7.095   3.351   8.412 -0.2657  0.0866 -0.2909
 6587SOL    HW120339   7.178   3.340   8.458  1.1425  1.6984 -2.2558
 6587SOL    HW220340   7.081   3.268   8.367 -0.2350 -0.5254  0.8006
 6588SOL     OW20341   7.271   1.926   0.077  0.8953 -0.0718 -0.7131
 6588SOL    HW120342   7.196   1.869   0.062  0.6733 -0.0112  0.1070
 6588SOL    HW220343   7.253   2.005   0.025  1.5047 -0.9750 -2.3513
 6589SOL     OW20344   3.634   6.905   1.085 -0.4474 -0.4155 -0.3471
 6589SOL    HW120345   3.559   6.964   1.089 -0.8723 -0.9348 -0.3947
 6589SOL    HW220346   3.687   6.938   1.012 -1.3293 -0.8204 -1.2009
 6590SOL     OW20347   0.861   6.998   8.908  0.1372 -0.5506 -0.2150
 6590SOL    HW120348   0.891   6.937   8.840 -0.1033 -0.3273 -0.5243
 6590SOL    HW220349   0.863   7.084   8.866 -0.5992 -0.4857 -0.1407
 6591SOL     OW20350   4.393   6.279   1.190 -0.1753  0.2143  0.1464
 6591SOL    HW120351   4.341   6.264   1.112 -2.5138  1.1805  1.4247
 6591SOL    HW220352   4.397   6.375   1.198  0.3338  0.1325  1.0147
 6592SOL     OW20353   4.043   5.646   8.471 -0.6076 -0.7868 -0.3123
 6592SOL    HW120354   4.065   5.696   8.393 -1.0916 -0.3215 -0.1513
 6592SOL    HW220355   4.046   5.554   8.442  2.4648 -0.8656 -0.0847
 6593SOL     OW20356   0.137   2.887   6.963 -0.0177 -0.2060  0.1087
 6593SOL    HW120357   0.196   2.955   6.995  0.2075  0.0095 -0.7282
 6593SOL    HW220358   0.140   2.819   7.030  0.8327  0.0008  0.2955
 6594SOL     OW20359   4.224   6.594   9.652 -0.1651 -0.2054  0.2174
 6594SOL    HW120360   4.234   6.553   9.737 -0.0773 -0.5491  0.0435
 6594SOL    HW220361   4.181   6.678   9.670  0.0409 -0.1863  0.6164
 6595SOL     OW20362   3.094   1.043   4.430 -0.0611  0.2342 -0.2638
 6595SOL    HW120363   3.050   0.961   4.451  0.4760  0.2711  1.1142
 6595SOL    HW220364   3.023   1.107   4.424 -0.5306 -0.3851 -1.8346
 6596SOL     OW20365   5.972   3.257   0.252  0.6278  0.0769  0.3199
 6596SOL    HW120366   6.049   3.281   0.199  1.0382 -1.3435  0.2341
 6596SOL    HW220367   5.900   3.254   0.189  0.4633  1.4531  0.4070
 6597SOL     OW20368   5.410   8.576   7.346 -1.0440 -1.0123  0.0905
 6597SOL    HW120369   5.354   8.508   7.309  1.1829 -2.3183 -1.1319
 6597SOL    HW220370   5.487   8.577   7.288  0.3420  0.4425  1.8507
 6598SOL     OW20371   2.629   2.285   8.139 -0.0865  0.4194 -0.6464
 6598SOL    HW120372   2.576   2.268   8.062  1.3831  0.0902 -1.6191
 6598SOL    HW220373   2.616   2.209   8.195 -0.2906  0.1265 -1.0872
 6599SOL     OW20374   1.577   5.607   5.215 -0.4283 -0.3631 -0.0070
 6599SOL    HW120375   1.520   5.587   5.140  0.1731 -0.7727 -0.3639
 6599SOL    HW220376   1.654   5.553   5.201 -0.4851 -0.7593  1.1388
 6600SOL     OW20377   0.135   6.040   8.720  0.2718 -0.4135 -0.3114
 6600SOL    HW120378   0.098   5.952   8.728 -0.9921 -0.0666 -1.9069
 6600SOL    HW220379   0.198   6.046   8.792  0.1387 -2.4934  0.0332
 6601SOL     OW20380   9.678   6.631   8.154  0.3678  0.7323  0.0321
 6601SOL    HW120381   9.609   6.565   8.151 -0.3656  1.4138  0.9650
 6601SOL    HW220382   9.759   6.582   8.161 -0.0854 -0.0746 -0.3104
 6602SOL     OW20383   7.763   7.814   5.111 -0.4724  0.8656 -0.2925
 6602SOL    HW120384   7.812   7.825   5.193  0.3568  1.8146 -0.9014
 6602SOL    HW220385   7.781   7.723   5.085 -0.0280  0.8297  0.1249
 6603SOL     OW20386   5.695   9.030   0.899  0.1213  0.7364  0.0400
 6603SOL    HW120387   5.627   9.007   0.963  0.7518 -0.8260  0.1950
 6603SOL    HW220388   5.666   8.990   0.817  0.6787  0.3693  0.0203
 6604SOL     OW20389   4.852   9.177   5.731  0.3494  0.3419 -0.6100
 6604SOL    HW120390   4.841   9.113   5.661 -2.4102 -0.9157  0.8445
 6604SOL    HW220391   4.768   9.222   5.737  0.9643  1.3633  1.0027
 6605SOL     OW20392   9.163   5.792   3.881 -0.4203 -0.1429 -0.2156
 6605SOL    HW120393   9.121   5.794   3.967 -1.4750  1.2059 -0.7161
 6605SOL    HW220394   9.154   5.702   3.851  1.6393 -1.1111  1.8463
 6606SOL     OW20395   2.573   1.644   6.439  0.2779 -0.2061  0.2968
 6606SOL    HW120396   2.480   1.629   6.454 -0.8144  1.1196 -3.6873
 6606SOL    HW220397   2.616   1.563   6.466 -1.8753 -0.6083  2.8484
 6607SOL     OW20398   7.969   3.643   1.830  0.1029  0.0684  0.4991
 6607SOL    HW120399   7.896   3.586   1.854 -0.9648  1.9537  1.9852
 6607SOL    HW220400   7.929   3.714   1.779  1.4127 -0.4795 -1.3998
 6608SOL     OW20401   2.351   2.318   8.449  0.4255  0.0153 -0.1253
 6608SOL    HW120402   2.376   2.353   8.535 -1.9549  0.1398  0.5822
 6608SOL    HW220403   2.378   2.385   8.387 -0.4353  1.2755  0.8193
 6609SOL     OW20404   2.189   1.522   9.744 -0.2810  0.2549 -0.2912
 6609SOL    HW120405   2.161   1.526   9.835 -1.0911  0.8734 -0.5547
 6609SOL    HW220406   2.113   1.551   9.694  0.6552  1.5118 -1.0626
 6610SOL     OW20407   9.403   4.271   2.678  0.0992  0.8344 -0.4268
 6610SOL    HW120408   9.351   4.271   2.598  0.5945 -2.6427 -0.9211
 6610SOL    HW220409   9.493   4.254   2.649  0.8303  2.5037  0.7072
 6611SOL     OW20410   1.110   1.917   4.302 -0.1794  0.1924  0.3072
 6611SOL    HW120411   1.186   1.881   4.347 -0.2052 -1.9943 -1.2573
 6611SOL    HW220412   1.097   1.860   4.227 -1.0728  2.7474 -1.6364
 6612SOL     OW20413   7.086   7.322   1.402 -0.7156  0.2290  0.6990
 6612SOL    HW120414   7.134   7.387   1.350 -0.0858 -0.4788  0.3807
 6612SOL    HW220415   7.021   7.286   1.341 -0.4751 -0.0636  0.6111
 6613SOL     OW20416   9.566   9.202   9.937  0.1229 -0.2112  0.4088
 6613SOL    HW120417   9.636   9.137   9.941  0.1416 -0.1382  1.5149
 6613SOL    HW220418   9.521   9.194  10.021 -1.3539 -0.4058 -0.3806
 6614SOL     OW20419   1.718   1.091   0.556  0.2455  0.4795  0.0894
 6614SOL    HW120420   1.787   1.026   0.571  0.4606  0.8361  0.6698
 6614SOL    HW220421   1.730   1.156   0.626 -1.4051 -0.0656  0.9600
 6615SOL     OW20422   6.734   6.074   5.256 -0.3544 -0.2500  0.2157
 6615SOL    HW120423   6.644   6.107   5.263 -0.1472  0.4057 -0.1426
 6615SOL    HW220424   6.778   6.107   5.333 -0.5312 -0.9445  0.6202
 6616SOL     OW20425   7.369   3.216   3.614  0.1278 -0.1626  0.4526
 6616SOL    HW120426   7.383   3.129   3.652 -0.5645 -0.2341  0.5532
 6616SOL    HW220427   7.278   3.215   3.584  0.7341 -0.2480 -1.5580
 6617SOL     OW20428   4.197   7.148   4.531  0.2303  0.0084  0.6439
 6617SOL    HW120429   4.192   7.144   4.436  1.2809 -0.9171  0.6068
 6617SOL    HW220430   4.281   7.191   4.550 -0.8119  1.9216  1.1777
 6618SOL     OW20431   7.964   3.836   5.360  0.1621  0.0704  0.1180
 6618SOL    HW120432   7.871   3.820   5.349 -0.1889  1.7343  0.3905
 6618SOL    HW220433   8.005   3.751   5.347 -1.2747 -0.4543 -1.2648
 6619SOL     OW20434   4.352   1.015   3.844  0.1290 -0.7357 -0.3782
 6619SOL    HW120435   4.434   1.032   3.890 -0.1643 -1.9295  0.6483
 6619SOL    HW220436   4.317   1.102   3.824  1.1914 -0.2101 -0.0283
 6620SOL     OW20437   1.827   9.577   9.509  0.1830  0.0601 -0.2382
 6620SOL    HW120438   1.885   9.503   9.527 -0.5243 -0.2699  0.8181
 6620SOL    HW220439   1.795   9.562   9.420  0.3781 -0.6835 -0.1853
 6621SOL     OW20440   2.734   4.385   7.954 -0.1433  0.2017  0.2000
 6621SOL    HW120441   2.689   4.454   8.003 -0.7833 -0.1975  0.1854
 6621SOL    HW220442   2.784   4.337   8.020  0.6295  0.9204  0.1518
 6622SOL     OW20443   3.055   6.212   6.263 -0.2907 -0.4270 -0.4837
 6622SOL    HW120444   2.974   6.227   6.313  0.5767 -2.0614  1.5624
 6622SOL    HW220445   3.122   6.259   6.312  0.4397 -1.3259 -0.6043
 6623SOL     OW20446   1.485   5.603   6.870  0.2776  0.1487  0.6805
 6623SOL    HW120447   1.569   5.634   6.835  0.0116  0.8620  0.6520
 6623SOL    HW220448   1.458   5.673   6.930 -1.4890  1.1493 -1.1561
 6624SOL     OW20449   3.247   5.492   8.123  0.1396  0.1895 -0.4839
 6624SOL    HW120450   3.203   5.458   8.201  1.4045  1.6785  0.9522
 6624SOL    HW220451   3.177   5.533   8.072 -0.3381  1.7656  1.3220
 6625SOL     OW20452   9.785   1.101   8.882 -0.5885  0.4414 -0.0182
 6625SOL    HW120453   9.837   1.164   8.931  3.1843 -1.6016 -0.9987
 6625SOL    HW220454   9.752   1.040   8.947  2.3717 -0.9000  0.3578
 6626SOL     OW20455   3.851   3.041   1.432  0.2579 -0.0823 -0.2240
 6626SOL    HW120456   3.935   3.019   1.473  1.4927  2.8779 -0.8960
 6626SOL    HW220457   3.785   3.008   1.493  1.8687 -2.2779  0.4525
 6627SOL     OW20458   6.737   4.038   6.953  0.5106 -0.0177  0.2174
 6627SOL    HW120459   6.743   3.957   6.902  1.2084 -0.4224  0.9181
 6627SOL    HW220460   6.820   4.083   6.934  0.2932  0.3484  0.1369
 6628SOL     OW20461   8.480   3.098   5.652 -0.6789  0.0611 -0.3719
 6628SOL    HW120462   8.416   3.145   5.598 -1.0374 -1.6477 -1.5098
 6628SOL    HW220463   8.428   3.040   5.706 -0.2482  1.0439  1.1611
 6629SOL     OW20464   8.932   9.095   7.327 -0.1480  0.6024  0.2286
 6629SOL    HW120465   8.963   9.097   7.236  0.2789 -0.6500  0.3314
 6629SOL    HW220466   8.994   9.151   7.374  2.6340 -2.4993  0.5914
 6630SOL     OW20467   7.360   4.474   3.854  0.1832  0.0782  0.3304
 6630SOL    HW120468   7.391   4.384   3.858  0.0201  0.0478  0.9663
 6630SOL    HW220469   7.266   4.468   3.871  0.3024  0.4416  1.1373
 6631SOL     OW20470   6.502   2.109   5.603 -0.1135  0.2266 -0.1403
 6631SOL    HW120471   6.408   2.124   5.602 -0.7810 -2.4201  3.5888
 6631SOL    HW220472   6.538   2.184   5.650 -0.4985  0.6542 -0.5178
 6632SOL     OW20473   4.412   7.706   0.422  0.3792 -0.0490 -0.6876
 6632SOL    HW120474   4.351   7.681   0.353  3.3161 -0.3412 -3.4434
 6632SOL    HW220475   4.480   7.639   0.420  0.2532 -0.5298  3.1927
 6633SOL     OW20476   5.914   5.939   9.665  0.2505 -0.2781 -0.2985
 6633SOL    HW120477   5.847   5.871   9.669  1.8707 -1.9261  0.4846
 6633SOL    HW220478   5.920   5.973   9.754 -0.3692  0.7447 -0.6306
 6634SOL     OW20479   7.948   2.333   4.680 -0.7069  0.5248 -0.6485
 6634SOL    HW120480   7.936   2.337   4.775 -0.2801  1.4141 -0.6246
 6634SOL    HW220481   7.903   2.252   4.653  1.0587 -0.9424  0.5852
 6635SOL     OW20482   7.884   8.492   8.027  0.2837 -0.3529 -0.0593
 6635SOL    HW120483   7.851   8.425   8.087  1.2464  0.5011  1.4717
 6635SOL    HW220484   7.979   8.491   8.040  0.3511  0.9850 -0.3482
 6636SOL     OW20485   5.778   3.347   2.510 -0.3444 -0.1563 -0.3496
 6636SOL    HW120486   5.722   3.424   2.501 -0.4768 -0.3890 -1.6502
 6636SOL    HW220487   5.860   3.371   2.466  0.5959  0.1494  1.4529
 6637SOL     OW20488   5.057   4.239   1.243  0.0650  0.1459  0.1302
 6637SOL    HW120489   5.146   4.271   1.228  0.0363 -0.6194 -1.9163
 6637SOL    HW220490   5.045   4.170   1.178 -1.6099 -0.6189  1.1874
 6638SOL     OW20491   1.956   3.473   0.917 -0.0803  0.3597 -0.3474
 6638SOL    HW120492   1.933   3.563   0.937 -3.0907 -0.1409 -1.0349
 6638SOL    HW220493   1.986   3.476   0.826 -1.3823  0.5662 -0.8011
 6639SOL     OW20494   2.214   1.551   3.230  0.2646 -0.1143 -0.1649
 6639SOL    HW120495   2.167   1.550   3.314  2.0554 -0.3943  0.8894
 6639SOL    HW220496   2.171   1.620   3.180  0.3052  1.4103  1.7341
 6640SOL     OW20497   2.319   2.732   6.808 -0.2297  0.0191 -1.0355
 6640SOL    HW120498   2.251   2.745   6.874  1.5329 -1.0335  1.1034
 6640SOL    HW220499   2.327   2.637   6.800  0.7346  0.1274 -1.5313
 6641SOL     OW20500   9.503   2.388   6.809  0.3123 -0.1350  0.0731
 6641SOL    HW120501   9.591   2.408   6.776  0.7222 -1.3821  0.3556
 6641SOL    HW220502   9.458   2.473   6.809  1.3922  0.4671 -0.4215
 6642SOL     OW20503   9.667   5.970   2.515 -0.3796 -0.1265 -0.4768
 6642SOL    HW120504   9.603   5.936   2.577 -2.3386 -0.7375 -2.6800
 6642SOL    HW220505   9.663   6.065   2.527 -0.9517 -0.2203  0.1170
 6643SOL     OW20506   6.353   3.726   7.566 -0.6470  0.4867  0.6294
 6643SOL    HW120507   6.320   3.673   7.638 -0.5757 -0.6320 -0.1257
 6643SOL    HW220508   6.299   3.805   7.567  0.0517  1.0028  2.5437
 6644SOL     OW20509   7.576   4.858   4.891 -0.1125  0.2321 -0.0534
 6644SOL    HW120510   7.649   4.878   4.949 -0.7748 -0.2467  0.9902
 6644SOL    HW220511   7.524   4.938   4.889 -1.7641 -0.5994  2.6229
 6645SOL     OW20512   2.340   7.134   0.811 -0.3091  0.3613  0.0777
 6645SOL    HW120513   2.272   7.165   0.751 -0.2735 -0.1002 -0.2021
 6645SOL    HW220514   2.294   7.072   0.869  0.6975 -3.8199 -3.0974
 6646SOL     OW20515   5.429   8.405   6.021  0.0845 -0.1981 -0.4468
 6646SOL    HW120516   5.458   8.313   6.015  0.2218 -0.0891 -2.0925
 6646SOL    HW220517   5.336   8.399   6.042  0.0172 -0.7410 -0.8503
 6647SOL     OW20518   4.362   9.251   1.398 -0.2072 -0.6548 -0.3000
 6647SOL    HW120519   4.286   9.243   1.341 -0.4298 -0.0573 -0.0919
 6647SOL    HW220520   4.330   9.297   1.475  0.4365 -0.0769 -0.3654
 6648SOL     OW20521   0.625   8.533   0.570  0.3931  0.5269  0.1884
 6648SOL    HW120522   0.638   8.516   0.477 -1.1783  0.8209 -0.1242
 6648SOL    HW220523   0.674   8.614   0.587  0.4177  0.6556 -0.4694
 6649SOL     OW20524   5.469   8.569   2.086 -0.3773 -0.0236  0.0427
 6649SOL    HW120525   5.413   8.562   2.008 -1.5404 -1.7419  0.9661
 6649SOL    HW220526   5.477   8.480   2.118 -1.8944  0.8206  3.2147
 6650SOL     OW20527   3.261   6.212   1.676  0.4865 -0.1349  0.0232
 6650SOL    HW120528   3.176   6.225   1.636  0.0724  0.2684  1.0140
 6650SOL    HW220529   3.319   6.273   1.630  0.3008 -0.5479 -0.7849
 6651SOL     OW20530   6.133   5.774   2.360  0.6130 -0.1385  0.6213
 6651SOL    HW120531   6.183   5.730   2.291  1.1078  0.4296  0.6037
 6651SOL    HW220532   6.047   5.732   2.358  0.4843  0.1413 -0.6115
 6652SOL     OW20533   1.669   0.285   6.825  0.5166  0.0984  0.0736
 6652SOL    HW120534   1.688   0.258   6.915 -1.2125  0.4939  0.5823
 6652SOL    HW220535   1.619   0.366   6.833  1.9116  1.1887 -1.3235
 6653SOL     OW20536   3.685   6.477   4.837  0.1745  0.6560  0.9331
 6653SOL    HW120537   3.746   6.493   4.909  0.5449 -0.1220  0.8053
 6653SOL    HW220538   3.728   6.410   4.783  0.2434  1.7580 -0.4348
 6654SOL     OW20539   2.660   8.104   8.307 -0.4392 -0.3428 -0.2493
 6654SOL    HW120540   2.665   8.046   8.231  0.6060 -0.7112  0.0836
 6654SOL    HW220541   2.569   8.098   8.336 -1.0517  0.3527 -1.8880
 6655SOL     OW20542   6.675   1.652   3.985  0.2478  0.5102 -0.3967
 6655SOL    HW120543   6.688   1.579   3.925 -0.4186 -1.6504  1.9427
 6655SOL    HW220544   6.743   1.641   4.052 -1.3406  0.5918  1.2946
 6656SOL     OW20545   7.459   3.056   5.443  0.1825  0.0504 -0.0885
 6656SOL    HW120546   7.383   2.999   5.448  0.9189 -1.1467 -1.6658
 6656SOL    HW220547   7.430   3.131   5.392 -0.4385  0.5464  0.9457
 6657SOL     OW20548   6.826   2.224   4.409  0.4551  0.2237  0.0801
 6657SOL    HW120549   6.785   2.138   4.423  1.1911 -0.2393 -0.5217
 6657SOL    HW220550   6.872   2.242   4.491  1.1128 -0.4208 -0.1413
 6658SOL     OW20551  -0.014   5.928   7.889  0.1884 -0.4090  0.1518
 6658SOL    HW120552  -0.038   5.990   7.957 -0.8047 -0.4926 -0.0969
 6658SOL    HW220553   0.081   5.921   7.894  0.1464 -0.2770  1.4032
 6659SOL     OW20554   3.118   4.896   0.417  0.0158  0.2839  0.0349
 6659SOL    HW120555   3.054   4.859   0.477 -0.3764  1.3877  0.3213
 6659SOL    HW220556   3.118   4.990   0.436  0.6044  0.5165 -1.0165
 6660SOL     OW20557   3.803   9.860   9.198 -0.3356 -0.4814  0.8478
 6660SOL    HW120558   3.744   9.794   9.162 -1.0527  0.6300 -0.0609
 6660SOL    HW220559   3.755   9.897   9.272 -0.4881 -0.0740  0.5478
 6661SOL     OW20560   1.160   5.987   7.538 -0.3137  0.1738  0.3855
 6661SOL    HW120561   1.132   5.965   7.627 -1.5213 -0.9904 -0.2539
 6661SOL    HW220562   1.242   5.939   7.526 -0.4587 -0.1504  0.6688
 6662SOL     OW20563   5.466   1.260   4.132  0.3932  0.1577 -0.2121
 6662SOL    HW120564   5.378   1.224   4.144 -0.2341  0.9804 -2.0721
 6662SOL    HW220565   5.516   1.187   4.096 -0.1698  0.3281 -1.3893
 6663SOL     OW20566   9.165   5.145   2.244 -0.0022  0.0779  0.0181
 6663SOL    HW120567   9.124   5.099   2.318  0.3642  2.4520  1.8399
 6663SOL    HW220568   9.093   5.193   2.204 -0.0535 -0.5729 -0.6830
 6664SOL     OW20569   2.021   4.443   0.954  0.6330 -0.2932  0.0294
 6664SOL    HW120570   1.952   4.377   0.957  1.0923 -0.7903 -0.2241
 6664SOL    HW220571   2.097   4.401   0.996  1.0913 -0.1296 -0.6193
 6665SOL     OW20572   4.611   0.644   6.873  0.4629  0.4420  0.0838
 6665SOL    HW120573   4.620   0.551   6.852  1.1052  0.5661 -0.1884
 6665SOL    HW220574   4.560   0.644   6.954 -0.4997 -0.1005 -0.5035
 6666SOL     OW20575   5.574   1.800   7.167 -0.6313  0.4267  0.5576
 6666SOL    HW120576   5.528   1.790   7.083  0.4986  0.9617 -0.1475
 6666SOL    HW220577   5.665   1.816   7.143 -0.0322 -0.6811  1.9284
 6667SOL     OW20578   7.406   9.266   7.307 -0.1486  0.4871  0.2127
 6667SOL    HW120579   7.376   9.177   7.288  0.3116  0.3512  0.1036
 6667SOL    HW220580   7.401   9.273   7.403  1.7912 -0.3887  0.4205
 6668SOL     OW20581   5.796   1.250   4.067 -0.2809  0.2407  0.0457
 6668SOL    HW120582   5.727   1.185   4.053  0.4346 -0.9409  1.7605
 6668SOL    HW220583   5.849   1.246   3.987 -1.6211  0.5140 -0.9060
 6669SOL     OW20584   1.050   6.549   5.413 -0.2563  0.1134 -0.1062
 6669SOL    HW120585   1.086   6.581   5.331 -1.4275 -0.6632 -0.9497
 6669SOL    HW220586   0.955   6.556   5.403 -0.4391 -0.3771  1.0190
 6670SOL     OW20587   2.305   1.569   1.616  0.2408 -0.3246  0.4738
 6670SOL    HW120588   2.381   1.620   1.643  0.1479  0.2005 -0.2376
 6670SOL    HW220589   2.314   1.561   1.521 -1.4648  1.1926  0.1507
 6671SOL     OW20590   2.819   1.051   2.094  0.5421 -0.3011 -0.1142
 6671SOL    HW120591   2.785   0.968   2.129 -0.5350  0.2420  0.1507
 6671SOL    HW220592   2.854   1.097   2.170  0.6707 -0.2839 -0.1827
 6672SOL     OW20593   4.081   2.926   9.527 -0.2038 -0.0182  0.0765
 6672SOL    HW120594   4.094   2.874   9.606 -0.3364 -0.0628  0.0707
 6672SOL    HW220595   3.992   2.904   9.499  0.4342 -1.2949 -1.0474
 6673SOL     OW20596   3.283   7.751   2.343  0.2142 -0.3035  0.1297
 6673SOL    HW120597   3.246   7.665   2.362  1.7980 -1.0564 -0.0455
 6673SOL    HW220598   3.212   7.800   2.302 -0.8171 -1.3918  0.5851
 6674SOL     OW20599   4.689   0.646   2.156 -0.4075  0.3877 -0.3291
 6674SOL    HW120600   4.645   0.636   2.071  1.3842  1.3033 -1.4275
 6674SOL    HW220601   4.637   0.710   2.203 -1.7869 -0.6038 -0.4549
 6675SOL     OW20602   7.906   6.542   7.255 -0.0893 -0.2551  0.1983
 6675SOL    HW120603   7.944   6.616   7.302 -2.4854  0.1631  1.6425
 6675SOL    HW220604   7.884   6.577   7.169 -1.9500  1.0199  1.1366
 6676SOL     OW20605   2.770   1.839   1.892  0.6869 -0.8329 -0.2580
 6676SOL    HW120606   2.728   1.878   1.969 -0.6057 -0.6637 -1.0205
 6676SOL    HW220607   2.820   1.912   1.854  1.8423 -1.0682  0.7237
 6677SOL     OW20608   1.345   1.088   9.719 -0.0780 -0.4163 -0.4717
 6677SOL    HW120609   1.336   1.184   9.721  4.0486  0.1897 -2.3498
 6677SOL    HW220610   1.387   1.067   9.802  0.9798 -0.2800 -0.9639
 6678SOL     OW20611   2.694   3.781   6.402 -0.4304  0.1815 -0.2063
 6678SOL    HW120612   2.788   3.767   6.402 -0.5002 -0.4285  0.9748
 6678SOL    HW220613   2.681   3.863   6.355  0.7543  0.6192  0.2113
 6679SOL     OW20614   1.309   3.096   1.774  0.0849 -0.3594  0.6612
 6679SOL    HW120615   1.401   3.071   1.778  0.2919 -0.5826 -2.6520
 6679SOL    HW220616   1.261   3.013   1.766 -0.3962 -0.2217  1.9036
 6680SOL     OW20617   8.150   6.139   7.906  0.3573  0.3974  0.2382
 6680SOL    HW120618   8.128   6.055   7.865 -0.7197  0.7521  0.0402
 6680SOL    HW220619   8.214   6.178   7.846  0.9879 -0.3407  0.4150
 6681SOL     OW20620   9.614   3.521   1.104 -0.6508  0.1238 -0.0784
 6681SOL    HW120621   9.697   3.532   1.058 -0.8404 -1.1708 -0.7745
 6681SOL    HW220622   9.634   3.542   1.195  0.1570  0.9619 -0.4347
 6682SOL     OW20623   5.357   2.940   3.502 -0.7689 -0.5549 -0.2679
 6682SOL    HW120624   5.266   2.929   3.475 -0.5827  0.6864 -1.5296
 6682SOL    HW220625   5.363   3.033   3.528  0.3901 -0.3121 -1.3243
 6683SOL     OW20626   3.358   6.949   5.814  0.7626  0.6651 -0.0551
 6683SOL    HW120627   3.355   6.853   5.822 -2.1222  0.7351  1.3267
 6683SOL    HW220628   3.362   6.980   5.905  0.8670  1.8583 -0.4515
 6684SOL     OW20629   1.264   2.357   4.784  0.3598 -0.0317 -0.0998
 6684SOL    HW120630   1.179   2.319   4.762 -0.4936  1.3274  0.6720
 6684SOL    HW220631   1.261   2.445   4.746  1.1219  0.2798  0.5457
 6685SOL     OW20632   7.532   1.384   7.348 -0.1948  0.1443 -0.0921
 6685SOL    HW120633   7.454   1.330   7.359  1.0842 -1.9195 -0.5458
 6685SOL    HW220634   7.564   1.399   7.437 -0.6133  0.2669  0.0398
 6686SOL     OW20635   2.956   0.670   2.820 -0.4655  0.6903  0.3556
 6686SOL    HW120636   2.923   0.681   2.909 -0.2698 -0.0367  0.5259
 6686SOL    HW220637   3.011   0.747   2.805  3.0288 -1.0900  2.4992
 6687SOL     OW20638   0.601   8.653   6.853 -0.7248  0.1225 -0.0266
 6687SOL    HW120639   0.612   8.681   6.943  0.9106  1.1312 -0.5073
 6687SOL    HW220640   0.674   8.593   6.837 -0.8789  0.1116 -0.7387
 6688SOL     OW20641   8.191   5.046   6.085 -0.2694  0.2320  0.3916
 6688SOL    HW120642   8.124   4.997   6.038 -0.8024 -0.1220  1.4743
 6688SOL    HW220643   8.240   5.093   6.017 -0.2359 -1.1857 -0.5992
 6689SOL     OW20644   3.171   0.812   7.250 -0.3297 -0.1909  0.3340
 6689SOL    HW120645   3.146   0.848   7.165 -2.3251 -2.4600 -0.1457
 6689SOL    HW220646   3.108   0.849   7.312 -1.1190 -1.2376  0.1796
 6690SOL     OW20647   4.066   4.636   1.877  0.3003  0.0715  0.5215
 6690SOL    HW120648   4.117   4.640   1.958 -0.1547 -4.0156  1.2070
 6690SOL    HW220649   3.979   4.668   1.902  0.9991  2.0034  0.6867
 6691SOL     OW20650   7.926   5.437   1.314 -0.0377  0.0287 -0.2404
 6691SOL    HW120651   7.882   5.476   1.389  2.9694 -2.5089  3.1590
 6691SOL    HW220652   7.870   5.362   1.291 -1.5230  1.4114 -1.4118
 6692SOL     OW20653   4.854   9.010   3.006  0.0551 -0.6798  0.6964
 6692SOL    HW120654   4.862   8.987   2.913  1.1610 -1.0068  0.8476
 6692SOL    HW220655   4.769   9.051   3.014 -0.4826 -1.5508 -0.2835
 6693SOL     OW20656   4.793   5.255   4.758 -0.7748  0.3189 -0.6170
 6693SOL    HW120657   4.764   5.173   4.798  0.5262  0.4821  0.7432
 6693SOL    HW220658   4.811   5.232   4.667  1.5437 -1.4648  0.2035
 6694SOL     OW20659   6.517   9.451   4.910 -0.4449 -0.0228  0.6182
 6694SOL    HW120660   6.533   9.479   4.820  0.0931 -1.7686  0.1085
 6694SOL    HW220661   6.494   9.531   4.957 -1.6795  0.8049 -1.2571
 6695SOL     OW20662   8.176   7.256   9.217  0.0735 -0.9207  0.3532
 6695SOL    HW120663   8.082   7.236   9.211 -0.1431 -0.3824  1.5210
 6695SOL    HW220664   8.204   7.212   9.298  0.7277 -0.6948  0.2517
 6696SOL     OW20665   0.308   1.941   9.735 -0.0501  0.0250 -0.1985
 6696SOL    HW120666   0.246   2.010   9.710  1.1721  0.9279 -0.8383
 6696SOL    HW220667   0.372   1.939   9.664 -0.0322 -1.7655 -0.1733
 6697SOL     OW20668   5.221   6.678   8.290  0.0620  0.8137  0.2555
 6697SOL    HW120669   5.249   6.595   8.329  0.1827  1.4642  1.5924
 6697SOL    HW220670   5.126   6.673   8.290  0.0194 -0.4185 -2.1714
 6698SOL     OW20671   1.842   2.071   6.684  0.2099  0.4662 -0.0675
 6698SOL    HW120672   1.875   2.018   6.611 -1.4638 -0.1886 -0.3880
 6698SOL    HW220673   1.823   2.156   6.645  0.9052  0.6514 -0.0136
 6699SOL     OW20674   4.368   4.494   9.204  0.2268 -0.1959  0.0770
 6699SOL    HW120675   4.278   4.496   9.236  0.2049  0.7653 -0.0188
 6699SOL    HW220676   4.417   4.545   9.269  0.7757 -1.0199  0.3260
 6700SOL     OW20677   0.808   5.410   4.665 -0.3060  0.4945 -0.2160
 6700SOL    HW120678   0.723   5.367   4.661  0.1271 -0.3186 -1.0414
 6700SOL    HW220679   0.788   5.503   4.673 -1.2662  0.2842 -0.0821
 6701SOL     OW20680   3.388   6.401   3.944 -0.2819  0.0404  0.1512
 6701SOL    HW120681   3.295   6.416   3.964 -0.9787 -1.6023 -1.5569
 6701SOL    HW220682   3.421   6.352   4.019 -0.5697  1.2398  1.1051
 6702SOL     OW20683   5.211   0.351   3.024 -0.1475 -0.6269 -0.0042
 6702SOL    HW120684   5.200   0.442   3.053  0.3603 -0.6874  0.4049
 6702SOL    HW220685   5.179   0.299   3.098  0.3810 -0.7783  0.1254
 6703SOL     OW20686   9.806   4.072   4.701  0.1967  0.1486 -0.1266
 6703SOL    HW120687   9.716   4.103   4.691  0.6511  1.1115 -1.5055
 6703SOL    HW220688   9.857   4.151   4.723  0.6654 -0.4495  1.0503
 6704SOL     OW20689   8.049   6.425   0.655  0.1757 -0.2119 -0.3699
 6704SOL    HW120690   8.010   6.495   0.602 -0.7650  0.4520  1.1541
 6704SOL    HW220691   8.024   6.345   0.609 -2.9098  0.1871  0.4008
 6705SOL     OW20692   2.407   0.505   7.499  0.0539  0.5222  0.1590
 6705SOL    HW120693   2.474   0.573   7.511  0.5307  0.0896  0.0010
 6705SOL    HW220694   2.422   0.473   7.409 -0.2022  0.2509  0.2122
 6706SOL     OW20695   6.040   2.697   1.459 -0.8336 -0.1138  0.0494
 6706SOL    HW120696   6.091   2.716   1.380 -1.1028 -0.6327 -0.2559
 6706SOL    HW220697   6.101   2.653   1.517 -0.9075 -0.6926 -0.2976
 6707SOL     OW20698   2.043   4.104   1.994 -0.3520 -0.6816 -0.0907
 6707SOL    HW120699   2.125   4.056   1.998 -0.1301 -0.2347  1.3120
 6707SOL    HW220700   2.063   4.190   2.033 -1.4072 -0.4775  0.0502
 6708SOL     OW20701   7.298   4.721   6.843  0.1799  0.1770  0.1803
 6708SOL    HW120702   7.351   4.681   6.912 -0.7036 -2.8788 -0.7272
 6708SOL    HW220703   7.354   4.718   6.765 -0.2100 -0.1814 -0.0924
 6709SOL     OW20704   8.050   3.893   5.880  0.1423  0.1202 -0.3085
 6709SOL    HW120705   8.089   3.965   5.930 -1.1273  0.7530 -0.1963
 6709SOL    HW220706   7.967   3.928   5.848 -0.7804 -1.4828  0.2391
 6710SOL     OW20707   3.168   1.045   7.776  0.4391  0.7231  0.1570
 6710SOL    HW120708   3.198   1.130   7.744 -1.7948  1.3492 -0.4454
 6710SOL    HW220709   3.150   0.994   7.698  1.2647 -0.1546  0.5156
 6711SOL     OW20710   0.137   4.053   4.953 -0.1486 -0.0937  0.1531
 6711SOL    HW120711   0.154   3.989   5.021 -2.4593 -0.8814  0.0592
 6711SOL    HW220712   0.100   4.128   4.999 -0.9862 -0.3283 -0.1170
 6712SOL     OW20713   9.884   1.830   8.466  0.4174 -0.4214 -0.2325
 6712SOL    HW120714   9.871   1.923   8.451  1.5786 -0.2674 -0.4320
 6712SOL    HW220715   9.966   1.810   8.420  0.1814 -1.5340 -0.1945
 6713SOL     OW20716   3.815   3.301   8.567 -0.6893  0.1834  0.3118
 6713SOL    HW120717   3.789   3.393   8.573 -0.5241  0.1433  2.3511
 6713SOL    HW220718   3.905   3.303   8.534 -0.8632  0.7211 -0.1343
 6714SOL     OW20719   5.260   3.021   9.754  0.3845 -0.3286  0.1804
 6714SOL    HW120720   5.238   3.103   9.800  0.4645 -0.5325  0.5870
 6714SOL    HW220721   5.213   3.027   9.671  2.0167  1.0813 -0.7140
 6715SOL     OW20722   1.309   1.835   3.565  0.4159  0.6032 -0.3685
 6715SOL    HW120723   1.316   1.868   3.654  1.7041 -1.0472  0.2046
 6715SOL    HW220724   1.291   1.912   3.511 -1.1331  1.5188  1.3839
 6716SOL     OW20725   1.459   8.377   3.956 -0.6112 -0.3455 -0.1647
 6716SOL    HW120726   1.436   8.434   3.883  0.5256 -0.1833 -0.4147
 6716SOL    HW220727   1.494   8.436   4.023  2.2596 -0.8218 -1.0944
 6717SOL     OW20728   2.677   7.104   4.914  0.0419 -0.1503  0.0452
 6717SOL    HW120729   2.691   7.024   4.862 -0.5796 -0.8436  0.9305
 6717SOL    HW220730   2.765   7.138   4.929  0.5452 -2.0471  1.7765
 6718SOL     OW20731   2.189   9.557   1.017 -0.7980 -0.6213  0.1828
 6718SOL    HW120732   2.214   9.470   1.046 -1.1686 -0.6130  0.5321
 6718SOL    HW220733   2.101   9.571   1.053  0.3528  1.0330  2.6678
 6719SOL     OW20734   9.492   9.578   9.127 -0.0561 -0.3301  0.0828
 6719SOL    HW120735   9.431   9.652   9.126 -1.4183 -1.3416  2.0252
 6719SOL    HW220736   9.444   9.507   9.084  0.0318 -0.8945  0.8822
 6720SOL     OW20737   1.444   1.983   7.732  0.3003  0.2352 -0.3267
 6720SOL    HW120738   1.424   1.946   7.646 -0.5490 -2.3029  0.8829
 6720SOL    HW220739   1.539   1.995   7.730  1.0546 -4.1273 -0.1697
 6721SOL     OW20740   2.566   2.529   3.561  0.0040 -0.2909  0.0004
 6721SOL    HW120741   2.516   2.481   3.628  0.1167 -1.0990 -0.4793
 6721SOL    HW220742   2.499   2.576   3.511 -0.0485  0.6366  0.9148
 6722SOL     OW20743   5.423   9.212   5.146  0.6112 -0.1086  0.1067
 6722SOL    HW120744   5.339   9.176   5.174 -0.0966  1.7871  0.6112
 6722SOL    HW220745   5.412   9.227   5.052 -0.0761  1.1823  0.3653
 6723SOL     OW20746   7.994   2.284   0.989 -0.0543 -0.1147  0.0954
 6723SOL    HW120747   7.976   2.191   0.983 -1.2579  0.1950 -2.0207
 6723SOL    HW220748   7.978   2.318   0.901 -1.2981  2.3747  1.1707
 6724SOL     OW20749   0.916   2.766   5.704 -0.0265 -0.3868 -0.2180
 6724SOL    HW120750   0.940   2.675   5.689  1.7222 -0.0820  0.5608
 6724SOL    HW220751   0.875   2.767   5.790  1.4766 -0.2189  0.5269
 6725SOL     OW20752   3.869   4.970   2.875  0.5838  0.0425  0.0277
 6725SOL    HW120753   3.925   4.922   2.813 -0.3304 -0.8352 -0.1418
 6725SOL    HW220754   3.908   4.952   2.961  1.8931  1.3135 -0.2486
 6726SOL     OW20755   5.241   6.008   2.016  0.0176 -0.1080 -0.3708
 6726SOL    HW120756   5.201   6.042   1.936 -0.8896  0.6376  0.3621
 6726SOL    HW220757   5.236   5.913   2.008 -1.2393 -0.0341 -0.6489
 6727SOL     OW20758   1.960   9.280   0.812  0.0501 -0.0146 -0.0804
 6727SOL    HW120759   2.011   9.206   0.780  0.0077 -1.0145  1.9584
 6727SOL    HW220760   1.974   9.280   0.907 -3.9036 -0.5807  0.7125
 6728SOL     OW20761   8.634   9.599   1.279 -0.9700  0.1663  0.1549
 6728SOL    HW120762   8.597   9.540   1.345 -1.0811  0.0964  0.0300
 6728SOL    HW220763   8.633   9.549   1.198 -1.6477  0.5545 -0.0806
 6729SOL     OW20764   0.413   0.170   0.149 -0.4447 -0.3535 -0.1523
 6729SOL    HW120765   0.445   0.091   0.193 -0.0886  0.3792  0.9618
 6729SOL    HW220766   0.357   0.212   0.214 -2.2778 -0.6833 -1.4423
 6730SOL     OW20767   7.105   6.615   2.242 -0.1352  0.4142  0.1000
 6730SOL    HW120768   7.177   6.640   2.299 -0.3112  0.8868  0.1234
 6730SOL    HW220769   7.030   6.664   2.275 -0.6130 -0.5359  0.4513
 6731SOL     OW20770   9.244   4.350   1.260  0.0860 -0.1130 -0.1092
 6731SOL    HW120771   9.261   4.369   1.168 -4.3016  1.0504 -0.9491
 6731SOL    HW220772   9.183   4.276   1.259 -0.0797 -0.0764  1.8623
 6732SOL     OW20773   6.791   2.716   7.960  0.4669  0.3602  0.2022
 6732SOL    HW120774   6.758   2.793   7.914 -1.7301 -0.6074  0.0575
 6732SOL    HW220775   6.883   2.711   7.935  0.0064  1.4158 -1.9146
 6733SOL     OW20776   1.281   6.919   5.724 -0.1544  0.0714  0.0112
 6733SOL    HW120777   1.311   6.900   5.812  1.2134  0.5887 -0.3118
 6733SOL    HW220778   1.261   6.834   5.686  2.2672 -0.5070 -0.1788
 6734SOL     OW20779   1.885   7.677   2.283  0.2266  0.0805  0.7572
 6734SOL    HW120780   1.809   7.680   2.341 -0.1028 -0.6775  0.3798
 6734SOL    HW220781   1.933   7.599   2.311 -0.1107 -0.4782 -0.2004
 6735SOL     OW20782   2.952   3.713   7.573  0.7782 -0.2142 -0.2909
 6735SOL    HW120783   2.980   3.622   7.562  1.4188 -0.2609  1.4155
 6735SOL    HW220784   3.013   3.763   7.519  0.6684 -0.7555 -0.9342
 6736SOL     OW20785   4.413   2.436   7.295 -0.2519  0.5259 -0.0882
 6736SOL    HW120786   4.377   2.481   7.372 -0.8531  0.2482 -0.2016
 6736SOL    HW220787   4.412   2.503   7.226 -0.3287  0.5862 -0.0290
 6737SOL     OW20788   7.564   8.282   5.179 -0.6397  0.0110  0.0951
 6737SOL    HW120789   7.588   8.290   5.271  2.4520  3.0524 -0.7636
 6737SOL    HW220790   7.618   8.210   5.146  0.5396  0.8544  0.1127
 6738SOL     OW20791   2.020   4.353   5.477 -0.2963 -0.0563 -0.3293
 6738SOL    HW120792   2.070   4.433   5.494 -0.9232  0.4884 -0.9739
 6738SOL    HW220793   2.086   4.288   5.453  0.2860  0.0623  0.8816
 6739SOL     OW20794   4.757   3.726   1.210 -0.1849 -0.6614  0.0337
 6739SOL    HW120795   4.672   3.685   1.199 -0.4637  0.4386 -2.7843
 6739SOL    HW220796   4.743   3.819   1.190  1.5482 -0.3266  0.1605
 6740SOL     OW20797   9.078   4.737   5.521 -0.1848 -0.3168 -0.5525
 6740SOL    HW120798   9.050   4.663   5.575 -0.6644 -0.4442 -0.9718
 6740SOL    HW220799   9.097   4.699   5.436  0.2191 -0.0560 -0.5836
 6741SOL     OW20800   6.975   7.450   2.537  0.0588 -0.3976  0.3369
 6741SOL    HW120801   6.913   7.378   2.539  0.1895 -0.5023  0.7520
 6741SOL    HW220802   7.044   7.421   2.477 -1.0189  0.3415 -1.3539
 6742SOL     OW20803   0.600   3.058   8.929  0.0600  0.2353 -0.1992
 6742SOL    HW120804   0.581   3.138   8.977  0.4401  0.6765 -0.7708
 6742SOL    HW220805   0.551   3.067   8.847  1.0725  0.4521 -0.8000
 6743SOL     OW20806   3.153   4.370   5.043 -0.0505 -0.8550 -0.1038
 6743SOL    HW120807   3.117   4.350   4.957  1.9790 -0.6259 -1.0697
 6743SOL    HW220808   3.146   4.287   5.091 -0.9054 -1.0741 -0.5727
 6744SOL     OW20809   4.820   8.359   1.320  0.1061 -0.3806  0.1339
 6744SOL    HW120810   4.760   8.417   1.367 -2.5375 -1.8406 -1.2143
 6744SOL    HW220811   4.849   8.411   1.245 -1.2180 -0.3176 -0.3616
 6745SOL     OW20812   4.578   5.719   0.245  0.1678  0.7086  0.1656
 6745SOL    HW120813   4.560   5.791   0.184 -1.5985 -1.3417 -1.9051
 6745SOL    HW220814   4.619   5.652   0.191 -1.2266 -1.0905  1.2374
 6746SOL     OW20815   7.969   4.626   7.008  0.3451  0.0654  0.3297
 6746SOL    HW120816   7.885   4.639   6.964 -0.5254  4.7320  2.6856
 6746SOL    HW220817   8.031   4.608   6.937 -1.8486  1.4473 -2.1242
 6747SOL     OW20818   5.022   2.144   7.578 -0.1341  0.8049  0.1822
 6747SOL    HW120819   5.001   2.179   7.665 -1.6400  1.2535 -0.3476
 6747SOL    HW220820   5.099   2.194   7.551  1.6034 -0.6692  2.0303
 6748SOL     OW20821   5.118   3.675   7.561  0.3729 -0.0087  0.2030
 6748SOL    HW120822   5.048   3.628   7.606  0.5257  0.1509  0.6097
 6748SOL    HW220823   5.148   3.740   7.624  0.0133  0.7964 -0.4356
 6749SOL     OW20824   7.059   9.035   1.586 -0.3109 -0.2157  0.3300
 6749SOL    HW120825   6.967   9.042   1.610 -1.3108  0.3888 -3.1680
 6749SOL    HW220826   7.070   8.943   1.562 -0.1609 -0.1458  0.1337
 6750SOL     OW20827   7.458   6.377   2.901  0.0707 -0.6500 -1.3016
 6750SOL    HW120828   7.461   6.334   2.815  4.4321 -0.2700 -1.5653
 6750SOL    HW220829   7.454   6.470   2.881 -2.7296 -0.6061 -0.8784
 6751SOL     OW20830   0.975   4.822   6.691  0.1522  0.1327  0.2481
 6751SOL    HW120831   1.055   4.782   6.725 -0.1297 -1.2751 -0.6323
 6751SOL    HW220832   0.940   4.873   6.764  1.9502  0.9778  0.5814
 6752SOL     OW20833   7.859   8.957   7.410  0.1254 -0.2314  0.1258
 6752SOL    HW120834   7.845   8.878   7.461  1.1667 -0.6278 -0.1845
 6752SOL    HW220835   7.811   8.942   7.328  0.7628 -0.7775 -0.1560
 6753SOL     OW20836   0.557   1.461   1.011  0.4969  0.0715 -0.1127
 6753SOL    HW120837   0.612   1.508   0.947  1.2202 -0.3253  0.2004
 6753SOL    HW220838   0.536   1.378   0.968  0.3387  0.1254 -0.1396
 6754SOL     OW20839   9.462   9.579   0.917  0.2289 -0.5627 -0.3636
 6754SOL    HW120840   9.410   9.499   0.930 -0.6276  0.1484  0.7458
 6754SOL    HW220841   9.550   9.547   0.896 -0.4624 -1.7956 -1.5835
 6755SOL     OW20842   3.261   0.672   8.053 -0.8091 -0.5919  0.2208
 6755SOL    HW120843   3.345   0.718   8.061 -0.8217 -0.5299 -0.0055
 6755SOL    HW220844   3.263   0.606   8.123 -0.6701 -0.4383  0.3634
 6756SOL     OW20845   4.594   7.852   3.926  0.1251  0.4959 -0.2634
 6756SOL    HW120846   4.577   7.934   3.879 -0.5557  0.3556 -0.2643
 6756SOL    HW220847   4.553   7.785   3.872 -0.6270  0.3279  0.5076
 6757SOL     OW20848   2.604   5.982   8.039  0.3287  0.4158 -0.3764
 6757SOL    HW120849   2.589   6.041   8.112  1.5774  1.0045 -0.5623
 6757SOL    HW220850   2.602   6.039   7.961  0.5264  0.0526 -0.6520
 6758SOL     OW20851   8.696   5.991   5.897  0.2471  1.0122 -0.5499
 6758SOL    HW120852   8.712   6.009   5.990 -2.1894 -1.3293  0.4687
 6758SOL    HW220853   8.606   6.021   5.882 -0.3086 -0.9278 -1.4131
 6759SOL     OW20854   6.610   8.494   7.141  0.0145 -0.0154  0.0156
 6759SOL    HW120855   6.526   8.487   7.097  0.4084  1.5535 -1.0728
 6759SOL    HW220856   6.671   8.446   7.084  0.3520  1.2374 -0.7185
 6760SOL     OW20857   3.512   7.427   4.123  1.0817 -0.4223  0.1411
 6760SOL    HW120858   3.503   7.463   4.035 -0.6976 -1.8542 -0.3388
 6760SOL    HW220859   3.594   7.463   4.156  0.3584  2.5162 -0.9534
 6761SOL     OW20860   6.875   6.139   3.416 -0.5064  0.1099  0.0020
 6761SOL    HW120861   6.924   6.196   3.476 -0.2672  0.9670 -0.9830
 6761SOL    HW220862   6.834   6.200   3.354  1.8158 -0.8809 -2.6639
 6762SOL     OW20863   4.955   8.935   1.146 -0.1106  0.0119 -0.4441
 6762SOL    HW120864   5.019   8.999   1.174  0.3219  0.3566 -2.0764
 6762SOL    HW220865   4.985   8.908   1.059 -0.3387 -2.3234  0.1252
 6763SOL     OW20866   0.303   1.577   4.491  0.5047  0.3375  0.1920
 6763SOL    HW120867   0.348   1.646   4.442  0.6897 -0.0085 -0.1377
 6763SOL    HW220868   0.312   1.499   4.435  1.6529 -0.3225  1.2562
 6764SOL     OW20869   9.020   8.828   5.267  0.1722  0.1095 -0.0496
 6764SOL    HW120870   9.088   8.871   5.317 -0.4538 -0.7647  1.6233
 6764SOL    HW220871   8.938   8.856   5.308 -0.3489 -0.8183 -0.4130
 6765SOL     OW20872   3.571   7.807   7.496  0.2442 -0.2496 -0.2191
 6765SOL    HW120873   3.547   7.741   7.561  0.2462  0.8538  0.9320
 6765SOL    HW220874   3.655   7.777   7.461  1.2868  0.1866  1.7952
 6766SOL     OW20875   0.239   6.821   1.597  0.6030 -0.1218 -0.0763
 6766SOL    HW120876   0.319   6.870   1.575  1.2371 -0.6032  1.0654
 6766SOL    HW220877   0.195   6.874   1.663  0.6056 -0.4368  0.1836
 6767SOL     OW20878   4.746   2.555   2.360 -0.0021 -0.7567  0.3379
 6767SOL    HW120879   4.717   2.611   2.432 -2.2987 -0.2694 -0.8828
 6767SOL    HW220880   4.733   2.608   2.282 -0.9668 -2.4899 -0.7403
 6768SOL     OW20881   8.773   3.607   6.894 -0.0552 -0.3027 -0.1639
 6768SOL    HW120882   8.731   3.524   6.914 -2.3762  0.7122 -0.4955
 6768SOL    HW220883   8.747   3.665   6.966  0.5116  0.4560 -0.5591
 6769SOL     OW20884   9.769   3.091   8.247 -0.1193  0.1635  0.0729
 6769SOL    HW120885   9.742   3.090   8.339  1.2008  0.7640  0.4875
 6769SOL    HW220886   9.697   3.134   8.201 -0.2599  0.9611  1.0086
 6770SOL     OW20887   9.193   2.102   7.566  0.8470  0.2352 -1.1796
 6770SOL    HW120888   9.288   2.111   7.571  0.9153 -0.6590 -0.6264
 6770SOL    HW220889   9.178   2.053   7.484  0.6774  2.4266 -2.5482
 6771SOL     OW20890   7.808   0.219   6.633  0.1752 -0.2305 -0.1265
 6771SOL    HW120891   7.763   0.249   6.554  0.8275 -0.8052 -0.7352
 6771SOL    HW220892   7.829   0.127   6.615 -0.9031 -0.7864  1.2888
 6772SOL     OW20893   7.605   2.653   7.308 -0.0341 -0.2749  0.4334
 6772SOL    HW120894   7.513   2.679   7.315  0.3562  1.2580  0.1783
 6772SOL    HW220895   7.622   2.654   7.214  0.0767 -1.2562  0.4293
 6773SOL     OW20896  -0.006   0.908   7.323  0.1526 -0.5544 -0.3046
 6773SOL    HW120897   0.051   0.896   7.247 -0.4780 -1.4247 -0.6536
 6773SOL    HW220898   0.036   0.857   7.393 -0.7425 -2.1201 -0.8621
 6774SOL     OW20899   1.376   2.499   8.973  0.4970 -0.7753  0.1520
 6774SOL    HW120900   1.357   2.415   9.013  1.7253 -0.4069  1.5790
 6774SOL    HW220901   1.290   2.539   8.959 -0.0830 -2.2033 -0.4396
 6775SOL     OW20902   8.256   2.340   5.101  0.3896  0.0025  0.1293
 6775SOL    HW120903   8.210   2.327   5.184  0.0347 -0.3845 -0.1242
 6775SOL    HW220904   8.203   2.404   5.054  0.2865 -0.1921 -0.0236
 6776SOL     OW20905   3.843   4.273   1.444 -0.0674 -0.2141 -0.0287
 6776SOL    HW120906   3.896   4.341   1.485 -1.6665  1.9829 -1.3454
 6776SOL    HW220907   3.789   4.238   1.514  2.3664 -1.8452  1.1397
 6777SOL     OW20908   1.149   8.768   9.393  0.1787 -0.0549  0.9106
 6777SOL    HW120909   1.223   8.710   9.407  1.1040  1.0837  0.8707
 6777SOL    HW220910   1.183   8.856   9.411 -0.4461  0.7810 -1.5780
 6778SOL     OW20911   7.668   0.810   5.651  0.7602 -0.3758  0.0795
 6778SOL    HW120912   7.745   0.792   5.705  1.0177 -1.7064 -0.7007
 6778SOL    HW220913   7.620   0.727   5.648  0.3363 -0.1114 -1.0765
 6779SOL     OW20914   5.610   5.354   4.354 -0.0054 -0.4805 -1.1331
 6779SOL    HW120915   5.569   5.268   4.349  0.0934 -0.5498 -0.7923
 6779SOL    HW220916   5.580   5.400   4.275 -0.9525 -0.4403 -0.7703
 6780SOL     OW20917   6.962   8.956   2.823 -0.5672  0.2810 -0.3203
 6780SOL    HW120918   6.884   8.953   2.879 -0.7495  1.6719 -0.4755
 6780SOL    HW220919   6.983   8.864   2.807 -0.7992 -0.1498  1.6207
 6781SOL     OW20920   0.369   3.303   6.828 -0.8493  0.3792  0.5938
 6781SOL    HW120921   0.454   3.319   6.868 -1.2068 -1.3394  2.1829
 6781SOL    HW220922   0.342   3.388   6.794  0.5285  1.4391  2.0118
 6782SOL     OW20923   5.927   4.196   0.066 -0.0817 -0.1487 -0.3555
 6782SOL    HW120924   6.012   4.237   0.045  0.5596 -1.2744 -0.0047
 6782SOL    HW220925   5.946   4.103   0.071 -0.8750 -0.2495  1.9580
 6783SOL     OW20926   5.387   4.154   9.698  0.4005  0.2547 -0.0500
 6783SOL    HW120927   5.458   4.217   9.692 -0.9437  1.7523 -1.3517
 6783SOL    HW220928   5.368   4.131   9.607 -0.1671 -0.8253  0.3242
 6784SOL     OW20929   6.744   7.366   4.828  0.5720 -0.6368  0.1510
 6784SOL    HW120930   6.733   7.274   4.802  2.2021 -0.7780 -0.2139
 6784SOL    HW220931   6.831   7.368   4.869  0.5750  0.7484  0.1066
 6785SOL     OW20932   3.625   3.600   8.384 -0.1046  0.0557 -0.0356
 6785SOL    HW120933   3.636   3.670   8.447 -1.1396  0.7122 -0.5689
 6785SOL    HW220934   3.714   3.586   8.349  0.1666  0.8917  0.2912
 6786SOL     OW20935   5.010   6.601   7.745  0.5920 -0.6141  0.1258
 6786SOL    HW120936   5.083   6.559   7.699  0.5284  0.2317 -0.7632
 6786SOL    HW220937   5.037   6.692   7.756 -0.8802  0.0919 -1.5199
 6787SOL     OW20938   4.799   7.185   3.847 -0.0329  0.7543  0.4032
 6787SOL    HW120939   4.772   7.145   3.764  0.5831  0.9573  0.1050
 6787SOL    HW220940   4.726   7.243   3.870  0.0336  1.1100 -0.2741
 6788SOL     OW20941   9.720   9.721   5.161  0.2787  0.6162  0.6405
 6788SOL    HW120942   9.786   9.651   5.156 -0.3326  0.1105 -0.6593
 6788SOL    HW220943   9.701   9.728   5.255  0.4895 -0.8482  0.8236
 6789SOL     OW20944   6.384   9.115   4.150  0.2230 -0.2279 -0.3633
 6789SOL    HW120945   6.476   9.117   4.176  0.2357 -2.0124 -0.1584
 6789SOL    HW220946   6.354   9.028   4.175 -2.0085  0.8726  1.1405
 6790SOL     OW20947   2.479   6.885   1.738 -0.2338 -0.6393 -0.0833
 6790SOL    HW120948   2.391   6.880   1.701  0.4465  0.2983 -1.9648
 6790SOL    HW220949   2.527   6.814   1.696  0.2899 -0.2040 -0.2392
 6791SOL     OW20950   7.830   7.088   1.723 -0.0899  0.0242 -0.1684
 6791SOL    HW120951   7.737   7.095   1.706  0.4009  2.0206 -2.6900
 6791SOL    HW220952   7.849   6.994   1.714 -1.5763 -0.1907 -1.4521
 6792SOL     OW20953   9.569   3.547   8.754  0.3183 -0.3972  0.2117
 6792SOL    HW120954   9.566   3.640   8.732  0.1958 -0.2377  0.8795
 6792SOL    HW220955   9.655   3.518   8.724  0.0216 -0.2825 -0.7999
 6793SOL     OW20956   3.086   1.049   3.601  0.5853  0.0607  0.0405
 6793SOL    HW120957   3.086   0.953   3.603  0.9026  0.0488 -0.2938
 6793SOL    HW220958   3.170   1.073   3.642 -0.6993  0.2860  2.7605
 6794SOL     OW20959   9.239   7.127   5.023 -0.1564  0.3574  0.3855
 6794SOL    HW120960   9.251   7.032   5.011  0.1305  0.6804 -2.3706
 6794SOL    HW220961   9.325   7.159   5.048 -0.5801 -0.2330  2.9149
 6795SOL     OW20962   0.670   2.324   2.738  0.0447  0.0099  0.4754
 6795SOL    HW120963   0.671   2.367   2.653  1.6438 -0.7552  0.0649
 6795SOL    HW220964   0.604   2.371   2.789  0.2494  1.5437 -0.6332
 6796SOL     OW20965   5.566   2.962   9.826 -0.3977  0.1819  0.6283
 6796SOL    HW120966   5.620   2.997   9.755 -1.1194 -1.5668 -0.8437
 6796SOL    HW220967   5.481   3.003   9.814 -0.4376  0.1154  0.6852
 6797SOL     OW20968   3.738   8.189   9.091  0.3523 -0.0623  0.1112
 6797SOL    HW120969   3.802   8.231   9.033  1.4071 -1.0512  0.5247
 6797SOL    HW220970   3.786   8.174   9.173 -0.0473 -1.8978  0.0421
 6798SOL     OW20971   4.044   7.651   5.074  0.0419 -0.6902 -0.2432
 6798SOL    HW120972   3.995   7.717   5.123 -0.7894 -0.4336 -1.3744
 6798SOL    HW220973   4.092   7.602   5.141  0.6604  1.0292  0.6306
 6799SOL     OW20974   6.078   7.238   2.006  0.2182  0.0858  0.0771
 6799SOL    HW120975   6.078   7.279   2.093 -0.7104  1.6929 -0.6189
 6799SOL    HW220976   5.985   7.221   1.988  0.3931 -0.1612 -0.6226
 6800SOL     OW20977   0.399   1.312   1.754  0.2476 -0.1447  0.6413
 6800SOL    HW120978   0.333   1.381   1.747 -0.9276 -1.0496  2.0867
 6800SOL    HW220979   0.361   1.238   1.706  1.3204  0.0739 -0.5711
 6801SOL     OW20980   7.355   4.014   5.462  0.3130 -0.1284 -0.1477
 6801SOL    HW120981   7.273   4.024   5.415 -0.2935 -2.2649  0.3769
 6801SOL    HW220982   7.331   4.022   5.555  0.9741  0.7433 -0.0294
 6802SOL     OW20983   7.194   2.486   7.316 -0.1252 -0.2352  0.1672
 6802SOL    HW120984   7.205   2.446   7.402  2.1881  2.2199  1.1334
 6802SOL    HW220985   7.265   2.450   7.263  0.4088  0.6350  0.2767
 6803SOL     OW20986   2.824   3.641   4.743  0.3302  0.5212  0.1568
 6803SOL    HW120987   2.909   3.679   4.764  0.0260  1.2114  0.1446
 6803SOL    HW220988   2.796   3.598   4.824 -0.0636  1.7178  0.6755
 6804SOL     OW20989   4.201   7.664   4.102 -0.3611 -0.4769  0.0381
 6804SOL    HW120990   4.245   7.623   4.177 -2.3828 -1.5917  0.6900
 6804SOL    HW220991   4.117   7.693   4.137 -1.0772 -0.4050 -1.6464
 6805SOL     OW20992   1.476   5.772   0.633  0.1132 -0.0787  0.5080
 6805SOL    HW120993   1.450   5.707   0.698 -1.8172  0.2243  0.1034
 6805SOL    HW220994   1.502   5.849   0.684 -0.9583  0.0029  0.9632
 6806SOL     OW20995   6.575   4.340   9.376  0.2643  0.0381  0.1369
 6806SOL    HW120996   6.570   4.419   9.430  0.1702  0.5804 -0.6480
 6806SOL    HW220997   6.559   4.268   9.436 -0.7168  0.6868  0.6663
 6807SOL     OW20998   9.316   5.222   9.324  0.1536  0.2041  0.2144
 6807SOL    HW120999   9.255   5.277   9.373 -0.2780 -0.0317 -0.0544
 6807SOL    HW221000   9.268   5.197   9.245  0.5149 -0.1709  0.1066
 6808SOL     OW21001   4.279   0.371   5.030  0.6348 -0.9528 -0.3260
 6808SOL    HW121002   4.334   0.443   5.061  0.6008 -0.9293 -0.3191
 6808SOL    HW221003   4.272   0.312   5.105  1.0434 -1.1987 -0.4772
 6809SOL     OW21004   1.774   2.424   8.005 -0.2236 -0.5148 -0.0420
 6809SOL    HW121005   1.828   2.441   8.082 -0.4770 -1.2351  0.2960
 6809SOL    HW221006   1.785   2.503   7.951  1.4708 -0.7993 -0.1721
 6810SOL     OW21007   4.851   2.977   7.840  0.0970  0.2306  0.1112
 6810SOL    HW121008   4.896   3.039   7.897 -1.4540  0.6699  0.9037
 6810SOL    HW221009   4.758   2.991   7.858 -0.3572 -0.8358 -1.2741
 6811SOL     OW21010   9.460   7.094   7.703  0.2834  0.7867  0.2641
 6811SOL    HW121011   9.396   7.151   7.661 -0.3050  0.9705  1.3775
 6811SOL    HW221012   9.525   7.076   7.634 -1.5778 -0.4315 -1.2896
 6812SOL     OW21013   2.421   3.112   1.616 -0.9202  0.7641 -0.1954
 6812SOL    HW121014   2.350   3.081   1.560 -0.3571  0.2398 -0.6267
 6812SOL    HW221015   2.429   3.044   1.683  0.4374 -0.1670 -1.2447
 6813SOL     OW21016   4.965   6.104   8.370 -0.5286 -0.0959 -0.1275
 6813SOL    HW121017   5.042   6.113   8.313 -1.1702  1.7388 -0.7801
 6813SOL    HW221018   4.909   6.040   8.325  1.0907 -2.4686  0.9983
 6814SOL     OW21019   5.484   8.874   8.283 -0.9403  0.3816 -0.1352
 6814SOL    HW121020   5.391   8.886   8.261 -1.2744 -0.4095  0.7682
 6814SOL    HW221021   5.499   8.780   8.275 -0.7598  0.2184  1.6490
 6815SOL     OW21022   0.041   8.258   8.556 -0.2569 -0.0662  0.1726
 6815SOL    HW121023  -0.009   8.188   8.515  0.9222 -2.0099  1.8631
 6815SOL    HW221024   0.133   8.235   8.539  0.1602  1.1048  0.7151
 6816SOL     OW21025   3.116   0.077   3.870  0.1916 -0.0003 -0.7775
 6816SOL    HW121026   3.089   0.040   3.954  1.9643 -2.2662 -1.1083
 6816SOL    HW221027   3.212   0.080   3.875  0.2328  2.2943 -1.7760
 6817SOL     OW21028   0.143   4.836   6.405 -0.1623  0.4038  0.5011
 6817SOL    HW121029   0.224   4.880   6.378 -1.0271  1.8063  0.1449
 6817SOL    HW221030   0.124   4.872   6.492  0.8353 -1.6804  1.6693
 6818SOL     OW21031   7.755   8.445   9.073  0.3711 -0.3256  0.0524
 6818SOL    HW121032   7.824   8.477   9.131  0.1734  1.0232 -0.4103
 6818SOL    HW221033   7.673   8.469   9.118  0.1954 -1.6106  0.4403
 6819SOL     OW21034   1.891   1.412   0.974 -0.0058  0.1861  0.3360
 6819SOL    HW121035   1.916   1.366   0.893  0.7888 -0.0212  0.6891
 6819SOL    HW221036   1.857   1.343   1.031 -0.8352  0.3744  0.0903
 6820SOL     OW21037   5.148   6.088   0.816  0.2511  0.3425  0.1054
 6820SOL    HW121038   5.189   6.042   0.889  0.6090 -0.0588 -0.3411
 6820SOL    HW221039   5.081   6.143   0.857  0.2271 -0.1178  0.7055
 6821SOL     OW21040   3.552   0.840   2.310  0.0364 -0.6609  0.3162
 6821SOL    HW121041   3.564   0.747   2.289 -0.4529 -0.9997  1.4392
 6821SOL    HW221042   3.607   0.855   2.387 -1.1627 -0.4655  1.1699
 6822SOL     OW21043   0.613   0.699   3.728 -0.6357  0.0976  0.1650
 6822SOL    HW121044   0.681   0.766   3.728 -0.9724  0.4359  0.6590
 6822SOL    HW221045   0.574   0.703   3.815 -0.7733 -0.6204  0.1435
 6823SOL     OW21046   8.413   5.470   4.638  0.6702  0.1995  0.4085
 6823SOL    HW121047   8.355   5.511   4.573  0.4772  0.3253  0.6575
 6823SOL    HW221048   8.354   5.444   4.709  0.8267 -0.2785  0.3672
 6824SOL     OW21049   6.586   2.050   5.243  0.3274  0.1958 -0.4111
 6824SOL    HW121050   6.628   1.964   5.242 -0.7477 -0.4070  1.3159
 6824SOL    HW221051   6.493   2.031   5.227  0.3719  1.3030 -2.2683
 6825SOL     OW21052   8.697   3.708   7.131 -0.5107 -1.1920  0.0976
 6825SOL    HW121053   8.639   3.780   7.155  1.2072  0.3674 -0.1867
 6825SOL    HW221054   8.755   3.697   7.206  1.6262  0.3172 -1.1918
 6826SOL     OW21055   1.769   6.395   7.446  0.1996  0.5323 -0.5560
 6826SOL    HW121056   1.814   6.318   7.480 -1.1082  0.1841  0.5106
 6826SOL    HW221057   1.813   6.415   7.364  0.5668 -1.3685 -0.8680
 6827SOL     OW21058   4.749   8.112   7.472 -0.0508  0.3195 -0.1070
 6827SOL    HW121059   4.820   8.054   7.444  1.3480  1.9079  0.0088
 6827SOL    HW221060   4.688   8.113   7.398  0.9788  0.3596 -0.9699
 6828SOL     OW21061   6.062   8.634   7.074  0.4305 -0.3514 -0.2995
 6828SOL    HW121062   6.121   8.697   7.115 -0.0237  1.3633 -2.0855
 6828SOL    HW221063   6.035   8.677   6.993  0.5809 -3.1272 -1.9539
 6829SOL     OW21064   1.877   4.801   1.326  0.0323 -0.1777 -0.3071
 6829SOL    HW121065   1.937   4.727   1.336 -0.7432 -1.0679 -1.8600
 6829SOL    HW221066   1.817   4.794   1.401  1.5484  0.4896  1.0378
 6830SOL     OW21067   3.978   0.461   4.389  0.2737 -0.0622 -0.9141
 6830SOL    HW121068   3.960   0.524   4.458 -0.5304  0.6509 -1.7486
 6830SOL    HW221069   3.922   0.386   4.410 -1.4088  0.8979 -1.7759
 6831SOL     OW21070   0.354   1.678   1.206  0.0296  0.4418 -0.1594
 6831SOL    HW121071   0.333   1.758   1.157 -0.5122  0.2414 -0.2679
 6831SOL    HW221072   0.378   1.615   1.139 -1.1032  0.0487 -0.2115
 6832SOL     OW21073   6.568   8.416   9.547  0.0927  0.4038  0.3688
 6832SOL    HW121074   6.642   8.433   9.489  0.8990  3.1895  2.0644
 6832SOL    HW221075   6.506   8.487   9.530 -1.8157 -1.2672 -0.2257
 6833SOL     OW21076   0.428   7.658   5.401 -0.0080  0.2102 -0.1542
 6833SOL    HW121077   0.459   7.628   5.315 -1.4339 -0.1196 -0.5692
 6833SOL    HW221078   0.419   7.752   5.391 -0.4556  0.1373 -0.4676
 6834SOL     OW21079   6.060   7.583   8.160  0.0108  0.0202 -0.0257
 6834SOL    HW121080   6.031   7.492   8.152 -0.2490  0.0537  0.5241
 6834SOL    HW221081   6.139   7.587   8.106 -0.0044 -0.5177 -0.0950
 6835SOL     OW21082   0.130   7.930   8.191  0.7524  0.1498  0.3587
 6835SOL    HW121083   0.099   7.845   8.160  1.2205  0.0070  0.2723
 6835SOL    HW221084   0.062   7.992   8.163  0.0172 -0.2941  1.1256
 6836SOL     OW21085   9.830   3.745   9.218  0.0819 -0.3923 -0.4050
 6836SOL    HW121086   9.858   3.820   9.165  0.9876 -0.5499 -0.1813
 6836SOL    HW221087   9.890   3.746   9.293  0.6098 -1.7636 -0.7676
 6837SOL     OW21088   4.963   9.960   1.729  0.2342  0.5800 -0.3899
 6837SOL    HW121089   4.962  10.000   1.817 -0.1975  1.6517 -0.8626
 6837SOL    HW221090   5.043   9.908   1.727  0.3654  0.7254  0.5641
 6838SOL     OW21091   9.044   8.688   2.504 -0.0574  0.5222  0.3914
 6838SOL    HW121092   9.088   8.678   2.420  0.5650  0.5072  0.7057
 6838SOL    HW221093   8.995   8.607   2.516 -0.9664  0.9432 -0.4085
 6839SOL     OW21094   1.877   2.105   5.673  0.2315  0.4973 -0.3263
 6839SOL    HW121095   1.824   2.111   5.593 -0.3532  1.5317  0.1125
 6839SOL    HW221096   1.844   2.176   5.728  0.1168 -0.6563  1.1453
 6840SOL     OW21097   9.261   2.450   2.442 -0.1324 -0.3181 -0.0186
 6840SOL    HW121098   9.282   2.543   2.435  1.6271 -0.6875 -0.0229
 6840SOL    HW221099   9.296   2.411   2.362 -3.1474 -0.6699 -1.3263
 6841SOL     OW21100   7.681   4.417   3.816  0.3339 -0.0851 -0.1025
 6841SOL    HW121101   7.771   4.384   3.823  0.9710  1.6207  0.0711
 6841SOL    HW221102   7.627   4.340   3.831  1.6895 -0.4619  4.3900
 6842SOL     OW21103   2.592   3.926   2.454 -0.2181  0.2159 -0.4568
 6842SOL    HW121104   2.546   3.982   2.517  1.2911  0.7602  0.2022
 6842SOL    HW221105   2.670   3.896   2.501  0.0651 -0.7552 -1.5128
 6843SOL     OW21106   3.544   4.775   1.199  0.5522 -0.1582  0.0464
 6843SOL    HW121107   3.473   4.799   1.259 -0.0024  2.4663 -1.4913
 6843SOL    HW221108   3.606   4.727   1.254 -1.2232 -0.3431  2.0253
 6844SOL     OW21109   8.733   9.796   6.127  0.0564  0.1545 -0.2833
 6844SOL    HW121110   8.711   9.862   6.192 -0.7123  0.3398 -0.7297
 6844SOL    HW221111   8.677   9.722   6.147  1.9597 -1.0003  1.1714
 6845SOL     OW21112   3.088   1.874   6.206  0.4933 -0.3032  0.4725
 6845SOL    HW121113   3.117   1.940   6.142 -0.3344 -0.8494 -0.4957
 6845SOL    HW221114   3.066   1.798   6.153 -1.4787 -0.3447  1.2787
 6846SOL     OW21115   0.377   6.284   4.022 -0.5941 -0.0453  0.7940
 6846SOL    HW121116   0.357   6.354   3.959 -0.1724  2.4233  3.2273
 6846SOL    HW221117   0.471   6.269   4.012 -0.8394 -1.0062 -0.3610
 6847SOL     OW21118   4.643   1.393   6.583 -0.3628 -0.1331 -0.0013
 6847SOL    HW121119   4.685   1.479   6.576  0.0948 -0.2160  1.3531
 6847SOL    HW221120   4.623   1.368   6.493  0.3210  0.9839 -0.4829
 6848SOL     OW21121   0.444   4.840   5.354  0.2493  0.4024  0.1411
 6848SOL    HW121122   0.478   4.757   5.323 -1.6237  0.0681 -1.1732
 6848SOL    HW221123   0.514   4.903   5.337  1.2667 -0.6993  0.1521
 6849SOL     OW21124   5.325   7.273   7.963  0.2765  0.6060 -0.1264
 6849SOL    HW121125   5.348   7.206   7.899  0.2162  0.9007 -0.4578
 6849SOL    HW221126   5.239   7.305   7.935  0.1864  0.6380  0.1810
 6850SOL     OW21127   5.394   8.760   0.056 -0.1796 -0.3449 -0.1186
 6850SOL    HW121128   5.390   8.779  -0.038  2.0502 -0.1558 -0.2282
 6850SOL    HW221129   5.427   8.671   0.060 -0.9528 -0.6101  0.5031
 6851SOL     OW21130   9.385   2.826   4.105  0.2166 -0.0113 -0.3764
 6851SOL    HW121131   9.402   2.916   4.134  0.3358 -0.0273 -0.3946
 6851SOL    HW221132   9.434   2.772   4.167 -0.7031 -0.1139  0.2742
 6852SOL     OW21133   1.332   4.536   1.713 -0.1820  0.3312 -0.0461
 6852SOL    HW121134   1.423   4.528   1.742 -0.6359  0.5747  1.5761
 6852SOL    HW221135   1.337   4.538   1.618  1.6054  1.3543  0.0181
 6853SOL     OW21136   9.072   6.769   9.736 -0.7526 -0.3898 -0.0325
 6853SOL    HW121137   9.092   6.859   9.710 -2.3107 -0.4658 -1.7186
 6853SOL    HW221138   9.042   6.776   9.826 -3.0563  1.1884 -0.8248
 6854SOL     OW21139   2.223   5.570   2.915 -0.4721 -0.2640  0.2649
 6854SOL    HW121140   2.296   5.580   2.854 -1.0106 -2.1298 -0.7428
 6854SOL    HW221141   2.149   5.542   2.861 -1.1276 -1.3698  1.6633
 6855SOL     OW21142   8.261   7.577   7.287  0.7508  0.0273 -0.1593
 6855SOL    HW121143   8.258   7.482   7.275  2.0250  0.0327 -0.7196
 6855SOL    HW221144   8.271   7.589   7.382  3.0082 -0.5351 -0.2494
 6856SOL     OW21145   0.194   0.505   2.478  0.1465  0.1286  0.0672
 6856SOL    HW121146   0.133   0.468   2.415 -0.1016  1.8819 -0.7975
 6856SOL    HW221147   0.276   0.515   2.430  0.4843 -0.1928  0.5660
 6857SOL     OW21148   6.514   3.291   7.946 -0.1319 -0.1976 -0.0009
 6857SOL    HW121149   6.478   3.376   7.968 -2.0065 -1.2819  1.3697
 6857SOL    HW221150   6.576   3.272   8.017  0.1860 -0.0573 -0.2357
 6858SOL     OW21151   0.434   0.908   3.599  0.1700  0.1809 -0.0192
 6858SOL    HW121152   0.419   0.947   3.685  0.3109 -1.3198  0.7213
 6858SOL    HW221153   0.475   0.823   3.618  0.0287 -0.2658 -1.5578
 6859SOL     OW21154   0.906   4.462   9.476 -0.3780 -0.2888  0.5638
 6859SOL    HW121155   0.961   4.535   9.448 -1.8686  0.3488 -0.8509
 6859SOL    HW221156   0.833   4.504   9.522  0.7421 -1.1770  3.3149
 6860SOL     OW21157   2.188   9.692   2.493 -0.3721  0.1260 -0.2347
 6860SOL    HW121158   2.118   9.731   2.442  0.0976 -0.7803 -1.6397
 6860SOL    HW221159   2.261   9.753   2.485 -0.8930  0.9647  1.0520
 6861SOL     OW21160   6.318   1.871   3.848  0.3456  0.1150 -0.2195
 6861SOL    HW121161   6.273   1.870   3.933  0.9399 -1.2647  0.0966
 6861SOL    HW221162   6.247   1.871   3.784 -0.1862 -2.1642  0.2693
 6862SOL     OW21163   9.812   2.204   5.859 -0.2518  0.9260 -0.1633
 6862SOL    HW121164   9.896   2.239   5.828 -0.1402  0.0555 -0.8656
 6862SOL    HW221165   9.797   2.249   5.942  0.0636  2.3718 -0.8556
 6863SOL     OW21166   4.148   8.223   6.335 -0.8275 -0.2333 -0.1124
 6863SOL    HW121167   4.148   8.128   6.323  0.6722 -0.5487  1.7802
 6863SOL    HW221168   4.068   8.241   6.385 -0.2181 -0.7995  1.1180
 6864SOL     OW21169   0.740   4.256   0.085 -0.0366 -0.0191 -1.0114
 6864SOL    HW121170   0.668   4.311   0.053 -0.1672  0.6509  0.3590
 6864SOL    HW221171   0.715   4.234   0.175  0.8794 -0.8276 -0.9440
 6865SOL     OW21172   3.316   2.038   4.462  0.6725 -0.1642 -0.3565
 6865SOL    HW121173   3.277   1.997   4.385  1.5507 -0.3300 -0.7269
 6865SOL    HW221174   3.284   2.128   4.461  0.2808 -0.3048 -0.6326
 6866SOL     OW21175   1.749   8.412   3.057 -0.3303 -0.2299  0.8795
 6866SOL    HW121176   1.698   8.346   3.010 -2.7094  0.3172  2.5259
 6866SOL    HW221177   1.824   8.363   3.092 -1.2624 -1.7461  0.8526
 6867SOL     OW21178   5.645   0.865   3.302 -0.0333 -0.2935 -0.1956
 6867SOL    HW121179   5.557   0.888   3.334  0.2682 -0.2444  0.6229
 6867SOL    HW221180   5.655   0.915   3.221  0.6398  2.6635  1.5549
 6868SOL     OW21181   2.755   2.288   7.748  0.1834  0.0262 -0.2109
 6868SOL    HW121182   2.759   2.244   7.833 -0.4941 -2.2151 -1.2525
 6868SOL    HW221183   2.844   2.284   7.714  0.4688  0.9813  0.3829
 6869SOL     OW21184   3.552   0.556   8.246 -0.5294 -0.4157  0.4927
 6869SOL    HW121185   3.633   0.552   8.296 -0.9462 -0.4316  1.1848
 6869SOL    HW221186   3.550   0.646   8.211 -0.7982 -0.0209  1.4921
 6870SOL     OW21187   6.266   6.427   9.635 -0.1077  0.3185 -0.3016
 6870SOL    HW121188   6.235   6.400   9.721  1.5344 -0.5101  0.0771
 6870SOL    HW221189   6.280   6.345   9.588 -1.4404  0.7725 -1.5590
 6871SOL     OW21190   2.689   3.917   5.544 -0.1318 -0.3731  0.5520
 6871SOL    HW121191   2.626   3.962   5.489 -0.0401 -1.0240 -0.1092
 6871SOL    HW221192   2.638   3.851   5.591 -0.1730  0.0373  1.0980
 6872SOL     OW21193   5.092   5.125   0.612  0.2936 -0.6920  0.4591
 6872SOL    HW121194   5.186   5.118   0.628  0.2701  0.8166  1.4789
 6872SOL    HW221195   5.084   5.118   0.517  1.5593  0.2000  0.2542
 6873SOL     OW21196   8.507   2.097   5.696 -0.1557 -0.0830 -0.1883
 6873SOL    HW121197   8.545   2.131   5.777  0.6355 -1.9506  0.2785
 6873SOL    HW221198   8.516   2.170   5.634  2.8298  0.1600  0.3421
 6874SOL     OW21199   5.882   7.129   4.576 -0.3222 -0.2987  0.2938
 6874SOL    HW121200   5.923   7.089   4.652  0.3693 -1.4432 -0.6301
 6874SOL    HW221201   5.791   7.098   4.578 -0.3100 -0.3036  0.6749
 6875SOL     OW21202   2.142   4.155   2.316  0.2927 -0.2078  0.3168
 6875SOL    HW121203   2.167   4.082   2.260 -0.8511 -1.0480  0.8475
 6875SOL    HW221204   2.087   4.211   2.261 -1.0868 -1.1928  0.6373
 6876SOL     OW21205   9.603   8.116   7.560  0.7419  0.2967  0.0484
 6876SOL    HW121206   9.681   8.079   7.599  1.0445 -0.6662 -1.3826
 6876SOL    HW221207   9.634   8.193   7.511  0.4241  1.2658  1.3137
 6877SOL     OW21208   6.397   6.975   3.915  0.4558 -0.2225  0.2153
 6877SOL    HW121209   6.468   7.019   3.869  0.7117 -1.6391 -0.8160
 6877SOL    HW221210   6.428   6.967   4.005  0.3252  1.7862  0.4923
 6878SOL     OW21211   8.516   6.415   3.488  0.3889 -0.1335  0.0147
 6878SOL    HW121212   8.557   6.421   3.401 -0.9988 -1.5195 -0.7730
 6878SOL    HW221213   8.586   6.380   3.544  1.2886  0.7365 -0.5169
 6879SOL     OW21214   3.297   4.980   6.073 -0.3220 -0.5134 -0.3068
 6879SOL    HW121215   3.387   5.012   6.073  0.1970 -1.8703  0.3621
 6879SOL    HW221216   3.245   5.052   6.109  0.2504  0.8350 -2.0826
 6880SOL     OW21217   7.754   4.176   2.349  0.2690  0.2502  0.4816
 6880SOL    HW121218   7.805   4.256   2.356 -0.4204  0.9579 -1.7808
 6880SOL    HW221219   7.815   4.110   2.317  0.3030  0.5214 -0.0256
 6881SOL     OW21220   3.720   6.925   7.964  0.2174 -0.2290  0.1279
 6881SOL    HW121221   3.641   6.878   7.937 -0.4624 -0.3511  2.1451
 6881SOL    HW221222   3.734   6.898   8.055  1.6969  0.9908  0.3029
 6882SOL     OW21223   5.322   9.179   6.344 -0.3014  0.7261 -0.0642
 6882SOL    HW121224   5.365   9.206   6.263 -1.1636 -0.1755 -0.8487
 6882SOL    HW221225   5.321   9.083   6.340 -1.1452  0.6945  0.5869
 6883SOL     OW21226   4.438   3.039   4.612  0.2255  0.0045  0.2425
 6883SOL    HW121227   4.375   3.045   4.539  0.0565  0.4593  0.4198
 6883SOL    HW221228   4.435   3.126   4.652  0.4557 -0.1903  0.6808
 6884SOL     OW21229   8.656   2.103   2.409  0.7254 -0.4651 -0.1174
 6884SOL    HW121230   8.567   2.068   2.415 -0.0661  0.6406 -3.0996
 6884SOL    HW221231   8.652   2.187   2.455  0.3762 -0.6448  0.1831
 6885SOL     OW21232   6.830   2.290   7.383  0.2737 -0.0400  0.2684
 6885SOL    HW121233   6.807   2.282   7.290  2.4346  0.1958 -0.3326
 6885SOL    HW221234   6.812   2.382   7.403  0.5718  0.1193 -0.1642
 6886SOL     OW21235   1.070   9.269   6.165  0.1530  0.9611  0.2123
 6886SOL    HW121236   1.095   9.323   6.240 -0.8694  1.1138  0.4646
 6886SOL    HW221237   0.974   9.270   6.166  0.1258  1.2812 -1.3411
 6887SOL     OW21238   3.666   2.466   6.013 -0.1340 -0.4303  0.0383
 6887SOL    HW121239   3.588   2.521   6.012 -0.3766 -0.7382  0.9262
 6887SOL    HW221240   3.693   2.462   5.921  0.0229  1.3349 -0.0360
 6888SOL     OW21241   1.289   3.983   4.910  0.0870  0.0368 -0.3102
 6888SOL    HW121242   1.209   3.930   4.916 -0.0022  0.2440  0.4282
 6888SOL    HW221243   1.305   3.991   4.816  0.3425 -1.6729 -0.4464
 6889SOL     OW21244   1.176   5.102   4.067  0.6694  0.1605 -0.0448
 6889SOL    HW121245   1.174   5.049   4.147  0.0989 -2.5562 -1.7205
 6889SOL    HW221246   1.208   5.042   3.999 -0.7840  1.7273 -2.2670
 6890SOL     OW21247   4.916   3.710   7.824 -0.0549 -0.4106 -0.1040
 6890SOL    HW121248   4.860   3.760   7.883 -2.2051 -1.9193 -0.7767
 6890SOL    HW221249   4.977   3.664   7.882 -0.0462  0.5823  0.7026
 6891SOL     OW21250   8.433   8.458   5.841 -0.3805  0.2422 -0.1502
 6891SOL    HW121251   8.355   8.479   5.790 -1.2084  0.8239  1.2979
 6891SOL    HW221252   8.444   8.364   5.831 -1.1333  0.1896 -0.5386
 6892SOL     OW21253   2.034   3.598   1.616  0.3831  0.4338  0.3028
 6892SOL    HW121254   1.968   3.545   1.571  1.0826  0.4140 -0.7449
 6892SOL    HW221255   2.074   3.538   1.678  1.2584 -0.3460 -0.9622
 6893SOL     OW21256   4.060   3.322   1.058  0.0161  0.4464 -0.6789
 6893SOL    HW121257   4.121   3.344   0.988 -0.0395  0.6741 -0.6563
 6893SOL    HW221258   4.068   3.227   1.068 -0.7875  0.2398 -1.7690
 6894SOL     OW21259   1.229   4.366   5.523  0.0583  0.8704  0.1235
 6894SOL    HW121260   1.256   4.457   5.507 -0.3778  0.6841 -1.9643
 6894SOL    HW221261   1.134   4.368   5.517  0.1076  0.0595 -1.4805
 6895SOL     OW21262   7.745   3.058   9.987 -0.1366  0.1231 -0.4457
 6895SOL    HW121263   7.708   2.979  10.027 -2.4119  1.2211 -0.2632
 6895SOL    HW221264   7.755   3.034   9.895  1.7839 -1.2212  0.0307
 6896SOL     OW21265   3.326   0.331   1.328  0.3450 -0.2143  0.1315
 6896SOL    HW121266   3.355   0.419   1.302  0.4719 -0.3439 -0.1682
 6896SOL    HW221267   3.322   0.282   1.246 -2.0683  0.1764 -0.0529
 6897SOL     OW21268   4.505   5.323   4.935  1.1838 -0.0089  0.1813
 6897SOL    HW121269   4.457   5.244   4.956 -0.8967  1.4795  1.4165
 6897SOL    HW221270   4.587   5.315   4.986  2.1172 -2.3127 -1.5197
 6898SOL     OW21271   2.040   0.107   0.489 -0.5569 -0.4432 -0.2784
 6898SOL    HW121272   2.056   0.163   0.413 -1.9054 -0.4078 -0.5714
 6898SOL    HW221273   2.036   0.168   0.563  0.8153 -0.4839 -0.1547
 6899SOL     OW21274   1.932   5.532   6.240 -0.0960  0.0810  0.0086
 6899SOL    HW121275   1.916   5.603   6.177 -0.7216  0.1193  0.2030
 6899SOL    HW221276   2.008   5.560   6.290  0.7650 -0.1914 -1.0835
 6900SOL     OW21277   0.718   1.269   2.952  0.1116  0.3236  0.2249
 6900SOL    HW121278   0.772   1.300   2.879  1.4722 -0.2799  0.9509
 6900SOL    HW221279   0.676   1.190   2.918 -1.7872  1.7514 -0.9474
 6901SOL     OW21280   3.659   8.760   0.510  0.1262  0.0342  0.4667
 6901SOL    HW121281   3.633   8.680   0.466 -1.9686  0.1536  1.3811
 6901SOL    HW221282   3.700   8.813   0.442  2.5739 -2.1804  0.0671
 6902SOL     OW21283   9.313   4.908   1.402  0.3530 -0.0183 -0.0083
 6902SOL    HW121284   9.250   4.962   1.449 -1.2449 -1.6544 -0.1183
 6902SOL    HW221285   9.399   4.936   1.433 -0.5460  0.6667  1.9759
 6903SOL     OW21286   8.822   6.985   5.186  0.1715  0.2758 -0.3400
 6903SOL    HW121287   8.864   7.071   5.198  0.1945  0.1252  0.8014
 6903SOL    HW221288   8.872   6.926   5.243 -0.6007 -0.2497 -0.1955
 6904SOL     OW21289   7.271   7.754   8.326  0.2893  0.6172  0.4570
 6904SOL    HW121290   7.217   7.739   8.248  1.7502  1.2674 -0.7547
 6904SOL    HW221291   7.277   7.669   8.368  1.1098 -0.2452 -1.2994
 6905SOL     OW21292   4.970   2.074   0.303  0.5705  0.1304  0.2559
 6905SOL    HW121293   4.955   2.135   0.231  1.1736  0.5990  0.5161
 6905SOL    HW221294   4.890   2.023   0.308 -0.7206  2.0982  1.1807
 6906SOL     OW21295   9.958   9.123   9.813 -0.3368 -0.3956 -0.0315
 6906SOL    HW121296   9.985   9.105   9.724  2.4790  1.7104  0.2453
 6906SOL    HW221297   9.888   9.188   9.805  1.5718  1.6887 -0.7924
 6907SOL     OW21298   2.558   8.807   4.133 -0.5764 -0.0235  0.3233
 6907SOL    HW121299   2.467   8.793   4.162 -0.6938  1.8063  0.9532
 6907SOL    HW221300   2.577   8.898   4.157  1.4677 -0.3987  0.2941
 6908SOL     OW21301   1.997   2.458   9.342 -0.4774  0.3781  0.0426
 6908SOL    HW121302   1.924   2.518   9.358 -0.6587  0.9466 -2.5659
 6908SOL    HW221303   1.975   2.414   9.260  2.0296  0.4202 -0.7221
 6909SOL     OW21304   3.797   4.565   2.031  0.4075  0.4961  0.1469
 6909SOL    HW121305   3.746   4.586   2.109 -0.1325  2.0924 -0.6002
 6909SOL    HW221306   3.878   4.527   2.065 -0.3528 -0.0564  1.4225
 6910SOL     OW21307   3.683   3.763   0.631  0.2635 -0.1394  0.4704
 6910SOL    HW121308   3.716   3.754   0.720  2.5866  0.4679 -0.2603
 6910SOL    HW221309   3.592   3.733   0.636  0.7424 -1.4691  2.7328
 6911SOL     OW21310   4.363   1.935   6.058  0.7255  0.2896 -0.1130
 6911SOL    HW121311   4.428   1.997   6.025  1.3031 -0.3221 -0.1449
 6911SOL    HW221312   4.372   1.858   6.002 -0.0107  0.1857 -0.1000
 6912SOL     OW21313   0.509   3.313   1.959  0.0554 -0.4536  0.2479
 6912SOL    HW121314   0.478   3.394   1.998  0.4826  0.2430 -0.8222
 6912SOL    HW221315   0.475   3.315   1.869  0.7617 -1.0587 -0.0425
 6913SOL     OW21316   7.957   8.821   5.603 -0.7421 -0.5854 -0.3496
 6913SOL    HW121317   7.960   8.804   5.509 -1.7234 -1.1787 -0.2908
 6913SOL    HW221318   7.905   8.749   5.638 -2.1083  0.7093  0.3717
 6914SOL     OW21319   2.427   7.650   7.995 -0.3250 -0.1706 -0.9341
 6914SOL    HW121320   2.415   7.652   8.090 -0.1156 -1.9504 -0.8405
 6914SOL    HW221321   2.468   7.734   7.974  3.5918 -1.3020  1.1445
 6915SOL     OW21322   8.681   1.473   7.790 -0.1205 -0.8054 -0.1313
 6915SOL    HW121323   8.601   1.507   7.829 -0.8556 -0.8323 -1.5425
 6915SOL    HW221324   8.695   1.389   7.835 -1.5966 -1.4003 -0.6844
 6916SOL     OW21325   1.399   6.710   6.694  0.2078 -0.0420  0.3176
 6916SOL    HW121326   1.351   6.790   6.715 -1.2230  0.3251 -3.4824
 6916SOL    HW221327   1.341   6.639   6.722 -0.4076  0.3458  0.0525
 6917SOL     OW21328   5.947   0.274   3.111 -0.2998 -0.7771 -0.1915
 6917SOL    HW121329   5.962   0.201   3.050 -1.6022  0.4665 -2.0848
 6917SOL    HW221330   6.035   0.309   3.128  0.1658 -1.6865 -0.6353
 6918SOL     OW21331   9.094   9.472   3.832  0.8060  0.4292  0.2039
 6918SOL    HW121332   9.072   9.461   3.924  1.3829  0.5326  0.3568
 6918SOL    HW221333   9.152   9.548   3.830 -0.4333  1.4114 -0.4379
 6919SOL     OW21334   4.414   1.941   8.365 -0.1543 -0.0553  0.1565
 6919SOL    HW121335   4.383   2.000   8.434 -0.3335 -0.5004  0.4662
 6919SOL    HW221336   4.509   1.954   8.363 -0.1887  0.2175  0.2449
 6920SOL     OW21337   1.237   8.732   5.328 -0.2183 -0.2511 -0.5104
 6920SOL    HW121338   1.281   8.756   5.410 -0.0611  0.6558 -0.8481
 6920SOL    HW221339   1.210   8.641   5.341 -1.4126  0.2740  1.1029
 6921SOL     OW21340   1.682   9.599   8.370 -0.3536  0.0338 -0.1103
 6921SOL    HW121341   1.605   9.649   8.397 -0.2763 -0.0228  0.2311
 6921SOL    HW221342   1.647   9.515   8.341 -0.3493 -0.3563  0.9777
 6922SOL     OW21343   5.117   5.442   0.402 -0.1631 -0.3789 -0.2748
 6922SOL    HW121344   5.160   5.527   0.413  0.9843 -1.0975  1.1030
 6922SOL    HW221345   5.045   5.459   0.342 -0.4113  1.7256  0.5367
 6923SOL     OW21346   7.441   7.719   2.862 -0.2196 -0.1871 -0.0246
 6923SOL    HW121347   7.396   7.636   2.879  0.1507 -0.7331 -1.5432
 6923SOL    HW221348   7.525   7.693   2.823  0.1239  0.8854 -0.0125
 6924SOL     OW21349   4.327   8.163   8.286  0.7898 -0.3419  0.3195
 6924SOL    HW121350   4.242   8.150   8.328  1.2120 -0.1147  1.2692
 6924SOL    HW221351   4.371   8.079   8.296  0.3339 -0.7618 -1.0145
 6925SOL     OW21352   7.838   9.918   2.814 -0.0170 -0.3471 -0.1017
 6925SOL    HW121353   7.851   9.955   2.727  1.1397 -0.0478  0.1899
 6925SOL    HW221354   7.824   9.825   2.798  1.6243 -0.5520 -0.5305
 6926SOL     OW21355   8.925   2.330   2.341  0.0370 -0.2620 -0.5002
 6926SOL    HW121356   8.927   2.424   2.320  2.0245 -0.4411 -1.3266
 6926SOL    HW221357   8.892   2.288   2.262 -3.8776 -0.1513  0.8442
 6927SOL     OW21358   7.972   3.223   8.059  0.6295 -0.4272 -0.0768
 6927SOL    HW121359   7.972   3.175   7.976  2.0231  1.1714 -1.0728
 6927SOL    HW221360   7.928   3.306   8.038 -0.2740 -0.5673  1.1737
 6928SOL     OW21361   8.718   3.264   1.327  0.6531 -0.0287  0.3334
 6928SOL    HW121362   8.648   3.199   1.321  0.3159  0.3550  0.0162
 6928SOL    HW221363   8.673   3.343   1.357  0.8571  0.3631 -0.3880
 6929SOL     OW21364   6.885   0.658   5.957  0.0355 -0.1669  0.2314
 6929SOL    HW121365   6.798   0.653   5.996 -0.1021  0.8556  0.0919
 6929SOL    HW221366   6.875   0.620   5.869 -0.8817  2.1184 -0.7310
 6930SOL     OW21367   7.206   1.055   7.664 -0.0578  0.3592 -0.1281
 6930SOL    HW121368   7.130   0.997   7.675  0.2291 -0.2190 -1.0438
 6930SOL    HW221369   7.202   1.114   7.739 -0.5969 -0.5887  0.6262
 6931SOL     OW21370   0.144   4.495   9.620  0.3525  0.1237 -0.1878
 6931SOL    HW121371   0.223   4.546   9.635 -0.7165  1.5481  0.8487
 6931SOL    HW221372   0.160   4.449   9.538  3.8056 -2.7113  1.7958
 6932SOL     OW21373   1.426   7.240   6.995 -0.2564  0.3886  0.4684
 6932SOL    HW121374   1.351   7.183   6.985  1.1884 -1.2344 -1.8853
 6932SOL    HW221375   1.483   7.195   7.057 -0.0019  0.2635  0.1444
 6933SOL     OW21376   7.435   7.239   0.868  0.0805 -0.0940 -0.0260
 6933SOL    HW121377   7.375   7.297   0.917  0.2830  0.2191 -0.1445
 6933SOL    HW221378   7.516   7.240   0.919  0.0179 -0.4394  0.0811
 6934SOL     OW21379   1.064   0.871   0.275  0.2383 -0.0217  0.4379
 6934SOL    HW121380   1.138   0.860   0.216 -1.2171  1.5126 -1.8836
 6934SOL    HW221381   0.999   0.807   0.245  0.0166 -0.2321  1.3482
 6935SOL     OW21382   3.582   8.608   9.871  0.9951  0.6385 -0.3084
 6935SOL    HW121383   3.592   8.629   9.778  0.2712  1.4154 -0.2318
 6935SOL    HW221384   3.547   8.689   9.909  1.5472  0.4212  0.6903
 6936SOL     OW21385   8.586   6.780   8.500  0.6825  0.0417 -0.0325
 6936SOL    HW121386   8.597   6.851   8.564 -1.0095 -1.6385  2.2787
 6936SOL    HW221387   8.566   6.825   8.418  0.4098  2.2460  1.1606
 6937SOL     OW21388   1.804   5.051   6.374  1.1675 -0.7701  0.2978
 6937SOL    HW121389   1.850   5.019   6.451 -0.5707 -4.0246  0.1454
 6937SOL    HW221390   1.712   5.052   6.399  0.7214 -0.2946 -1.2378
 6938SOL     OW21391   6.945   9.052   9.594 -0.2262 -0.0220  0.5848
 6938SOL    HW121392   6.872   9.113   9.602 -0.7340 -0.4926 -0.2610
 6938SOL    HW221393   6.904   8.969   9.567  0.5119 -0.5650  1.0762
 6939SOL     OW21394   6.105   0.094   4.853  0.4031 -0.6462  0.5561
 6939SOL    HW121395   6.120   0.146   4.932  1.7863  0.4682 -0.3727
 6939SOL    HW221396   6.191   0.091   4.810 -0.5216 -0.2632 -1.4427
 6940SOL     OW21397   6.319   2.527   2.460 -0.0799  0.0301 -0.4236
 6940SOL    HW121398   6.326   2.461   2.529 -2.3463  0.1679  0.0247
 6940SOL    HW221399   6.231   2.563   2.470  0.8556  2.7419 -1.0192
 6941SOL     OW21400   6.122   1.346   2.460  0.5465  0.4084 -0.2528
 6941SOL    HW121401   6.073   1.421   2.428 -1.2689 -1.3484 -1.8235
 6941SOL    HW221402   6.081   1.323   2.544  0.4323  0.5388 -0.2743
 6942SOL     OW21403   5.635   3.071   8.426  0.2056 -0.5033 -0.2110
 6942SOL    HW121404   5.584   2.990   8.436  0.3078 -0.5746 -0.2666
 6942SOL    HW221405   5.621   3.119   8.508  1.2487 -1.2008  0.4017
 6943SOL     OW21406   0.013   4.606   3.181 -0.2168  0.4327 -0.3356
 6943SOL    HW121407   0.012   4.522   3.135  0.8218  0.5199 -0.5279
 6943SOL    HW221408   0.105   4.624   3.197 -0.4883  1.0526  0.6143
 6944SOL     OW21409   8.606   4.316   0.246  0.4769  0.3626  0.3655
 6944SOL    HW121410   8.551   4.329   0.168  1.5884  0.1551 -0.4860
 6944SOL    HW221411   8.695   4.309   0.211  0.8433 -1.3198  1.5168
 6945SOL     OW21412   9.248   6.546   8.597  0.2064  0.5276 -0.0248
 6945SOL    HW121413   9.258   6.614   8.663 -0.1947  0.7366 -0.1770
 6945SOL    HW221414   9.155   6.549   8.573 -0.4208 -1.7415  1.7782
 6946SOL     OW21415   9.781   8.915   4.024  0.4688 -0.2962  0.2535
 6946SOL    HW121416   9.858   8.868   3.990 -0.3357 -0.6730 -1.1219
 6946SOL    HW221417   9.721   8.846   4.050  0.0382 -0.0196  0.0004
 6947SOL     OW21418   0.338   8.726   6.876  0.4014 -0.7114 -0.7598
 6947SOL    HW121419   0.428   8.701   6.857  0.6133  0.9182 -2.0750
 6947SOL    HW221420   0.291   8.642   6.883  1.9876 -1.5836 -0.0162
 6948SOL     OW21421   5.984   9.892   9.381  0.6091  0.1498  0.2495
 6948SOL    HW121422   6.042   9.956   9.421  2.2256 -0.4768 -0.9966
 6948SOL    HW221423   5.922   9.944   9.330  2.0374  0.7567 -0.9260
 6949SOL     OW21424   5.072   9.188   4.513 -0.4236 -0.1655 -0.2675
 6949SOL    HW121425   5.066   9.117   4.449 -0.8900 -1.4356  1.1323
 6949SOL    HW221426   5.080   9.144   4.598  2.5147  1.4387  0.4279
 6950SOL     OW21427   1.956   5.568   8.449 -0.4197  0.5814 -0.1892
 6950SOL    HW121428   1.943   5.490   8.503  3.2612  0.1031  0.2409
 6950SOL    HW221429   2.015   5.540   8.379  1.0381  2.8926 -0.0090
 6951SOL     OW21430   9.492   2.062   3.031 -0.0259 -0.1584 -0.0740
 6951SOL    HW121431   9.418   2.118   3.054 -1.3592 -0.8753 -2.2943
 6951SOL    HW221432   9.463   2.014   2.954  2.9149 -0.1794 -1.3200
 6952SOL     OW21433   3.903   8.814   9.876  0.7578 -0.6524  0.3205
 6952SOL    HW121434   3.862   8.773   9.953  0.1938 -0.3271  0.2040
 6952SOL    HW221435   3.931   8.740   9.822 -1.6524 -0.9662 -0.6349
 6953SOL     OW21436   2.500   9.886   8.428 -0.5689 -0.3436 -0.1965
 6953SOL    HW121437   2.465   9.832   8.498  0.0751 -0.7992 -0.2160
 6953SOL    HW221438   2.512   9.972   8.468 -1.4026 -0.2643 -0.1091
 6954SOL     OW21439   7.179   9.389   7.626 -0.2312  0.1842 -0.5528
 6954SOL    HW121440   7.205   9.459   7.566  0.2354 -0.2930 -0.9200
 6954SOL    HW221441   7.251   9.326   7.622  0.3442  0.6696  1.3720
 6955SOL     OW21442   0.438   0.896   4.911 -0.0809  0.3181 -0.5066
 6955SOL    HW121443   0.508   0.876   4.848 -1.6923  0.2178 -2.3542
 6955SOL    HW221444   0.457   0.986   4.940  0.7148  0.3535 -1.1031
 6956SOL     OW21445   9.110   2.531   3.588 -0.4239 -0.3738  0.2276
 6956SOL    HW121446   9.163   2.516   3.665 -0.8838  0.1268  0.6551
 6956SOL    HW221447   9.131   2.459   3.529  0.5345 -0.3124  0.4842
 6957SOL     OW21448   6.425   0.965   1.014  0.0381  0.1400  0.2491
 6957SOL    HW121449   6.500   0.918   1.051  0.4276 -0.0266 -0.7322
 6957SOL    HW221450   6.357   0.958   1.082  0.1144 -1.7473  0.1881
 6958SOL     OW21451   2.155   3.360   3.644 -0.4838 -0.0099  0.0226
 6958SOL    HW121452   2.075   3.396   3.604 -0.5748  0.3005  0.4766
 6958SOL    HW221453   2.142   3.371   3.738  0.1725  0.2214  0.0947
 6959SOL     OW21454   3.612   0.285   3.653 -0.1484 -0.3351  0.1575
 6959SOL    HW121455   3.678   0.218   3.636  0.8666  0.4006  1.0778
 6959SOL    HW221456   3.606   0.334   3.571 -0.2431 -0.9856 -0.2298
 6960SOL     OW21457   9.282   6.960   1.649 -0.0257  0.2782 -0.4644
 6960SOL    HW121458   9.368   6.953   1.607  0.8948 -0.0647  1.3920
 6960SOL    HW221459   9.301   6.979   1.741 -1.8669 -1.2069  0.2981
 6961SOL     OW21460   9.319   6.933   0.840  0.5220 -0.0327 -0.5534
 6961SOL    HW121461   9.246   6.871   0.843 -0.3555  0.9149  2.7556
 6961SOL    HW221462   9.395   6.882   0.866  0.2820 -0.2615 -0.2861
 6962SOL     OW21463   8.842   7.963   7.789 -0.5424 -0.6067 -0.2764
 6962SOL    HW121464   8.804   7.929   7.708 -1.0684  0.9759 -0.7205
 6962SOL    HW221465   8.928   7.922   7.794 -0.7393 -1.1753 -1.3135
 6963SOL     OW21466   2.370   2.398   0.259 -0.1128  0.0829 -0.1733
 6963SOL    HW121467   2.395   2.343   0.333  1.2117  2.0552  0.9242
 6963SOL    HW221468   2.431   2.373   0.190  1.5477  1.1811  0.8237
 6964SOL     OW21469   5.881   7.662   5.181  0.4127 -0.3423  0.4873
 6964SOL    HW121470   5.914   7.751   5.193 -1.9675  0.4968  1.4938
 6964SOL    HW221471   5.958   7.610   5.158  2.0107  1.8039  0.7215
 6965SOL     OW21472   8.478   8.529   1.885  0.1436 -0.5251 -0.5159
 6965SOL    HW121473   8.511   8.451   1.931 -1.5372 -1.4419 -0.7693
 6965SOL    HW221474   8.468   8.501   1.794  0.3346  0.2665 -0.7875
 6966SOL     OW21475   7.004   7.905   0.605  0.2920 -0.2007  0.2311
 6966SOL    HW121476   6.944   7.952   0.662 -0.1148 -1.0190  0.5014
 6966SOL    HW221477   7.014   7.961   0.528 -1.6022 -0.4831 -0.2687
 6967SOL     OW21478   3.419   7.049   7.856  0.3951 -0.0512  0.1148
 6967SOL    HW121479   3.435   6.961   7.889  1.2344 -0.2212 -0.7130
 6967SOL    HW221480   3.390   7.036   7.766  0.6472  0.5151 -0.0555
 6968SOL     OW21481   6.626   7.141   6.823  0.1510 -0.2997 -0.8085
 6968SOL    HW121482   6.676   7.097   6.892  1.3282  0.6219 -1.0365
 6968SOL    HW221483   6.617   7.231   6.854 -1.4867 -0.4783 -0.7288
 6969SOL     OW21484   4.937   9.442   6.877 -0.4444 -0.1775 -0.2426
 6969SOL    HW121485   4.982   9.421   6.795  0.5684 -0.3327  0.3377
 6969SOL    HW221486   4.864   9.498   6.850  0.3268  0.4129 -1.1803
 6970SOL     OW21487   9.916   9.808   1.398  0.5979 -0.2197 -0.8745
 6970SOL    HW121488   9.955   9.863   1.331  1.6753 -0.6294 -0.6155
 6970SOL    HW221489   9.946   9.846   1.481 -0.7761  0.3243 -0.6177
 6971SOL     OW21490   4.670   5.639   9.418 -0.2879 -0.3027 -0.0167
 6971SOL    HW121491   4.749   5.606   9.375 -0.1082  1.4881 -1.1586
 6971SOL    HW221492   4.671   5.733   9.401 -1.3020  0.1841  2.2240
 6972SOL     OW21493   0.104   4.883   6.682 -0.0977 -0.5734  0.1705
 6972SOL    HW121494   0.177   4.944   6.691  0.6090 -1.3888  0.1577
 6972SOL    HW221495   0.077   4.864   6.772 -0.4715 -0.0685  0.1664
 6973SOL     OW21496   5.446   9.234   3.492  0.3414  0.2111 -0.0718
 6973SOL    HW121497   5.398   9.169   3.543 -0.7150 -1.2899 -2.7332
 6973SOL    HW221498   5.430   9.317   3.536  2.3661 -1.2746  3.9120
 6974SOL     OW21499   9.246   8.466   5.002 -0.0920  0.1665 -0.0947
 6974SOL    HW121500   9.242   8.457   5.097 -0.9956  1.5893  0.0257
 6974SOL    HW221501   9.177   8.529   4.981 -1.7603 -2.0929 -1.9669
 6975SOL     OW21502   8.017   4.761   5.642 -0.2342 -0.0377  0.8998
 6975SOL    HW121503   8.010   4.841   5.693  0.1572  1.7925 -1.6828
 6975SOL    HW221504   8.109   4.734   5.652 -0.1369  0.3611  1.1062
 6976SOL     OW21505   5.264   4.266   3.389  0.6373  0.1136  0.6371
 6976SOL    HW121506   5.329   4.294   3.325  0.6138 -0.2917  0.4320
 6976SOL    HW221507   5.306   4.195   3.437  0.7138  0.5260  1.1819
 6977SOL     OW21508   4.540   8.795   6.333  0.5209  0.1998 -0.3545
 6977SOL    HW121509   4.536   8.771   6.240 -0.5803 -0.5412 -0.1388
 6977SOL    HW221510   4.449   8.811   6.357  0.8183  0.5774  0.5582
 6978SOL     OW21511   9.500   6.520   8.519 -0.2026  0.1618 -0.4054
 6978SOL    HW121512   9.407   6.528   8.538 -0.2286 -1.3044  0.1637
 6978SOL    HW221513   9.506   6.447   8.458  0.6195 -0.1386  0.0206
 6979SOL     OW21514   4.697   9.247   1.022 -0.0140 -0.5050  0.0507
 6979SOL    HW121515   4.649   9.172   1.056  1.5870 -2.2097 -1.2388
 6979SOL    HW221516   4.773   9.209   0.979  0.4068  1.8247 -1.4353
 6980SOL     OW21517   5.012   3.864   0.306 -0.8342 -0.1135 -0.0890
 6980SOL    HW121518   5.034   3.858   0.213  0.0607  0.2945  0.0889
 6980SOL    HW221519   4.925   3.905   0.307 -0.6602  0.2815 -0.7291
 6981SOL     OW21520   9.292   5.530   7.018 -0.1859 -0.5478  0.4382
 6981SOL    HW121521   9.234   5.494   6.951 -0.7735 -0.7347  1.0410
 6981SOL    HW221522   9.369   5.473   7.016  0.4954  0.3695 -1.1439
 6982SOL     OW21523   9.087   5.289   4.917  0.6249  0.0327  0.6507
 6982SOL    HW121524   9.117   5.287   5.008 -0.1071 -3.7053  0.9485
 6982SOL    HW221525   8.997   5.257   4.920  0.4601  0.1608 -1.3663
 6983SOL     OW21526   1.364   7.512   6.255  0.4186  0.2907 -0.0314
 6983SOL    HW121527   1.435   7.576   6.253  1.5066 -0.8982 -0.8417
 6983SOL    HW221528   1.405   7.431   6.285 -0.4559 -0.5715 -1.0738
 6984SOL     OW21529   3.025   9.835   3.746 -0.3065  0.2334  0.0827
 6984SOL    HW121530   3.065   9.834   3.659 -0.8627  0.9124 -0.1965
 6984SOL    HW221531   3.060   9.914   3.787  0.2729 -0.3012  0.6448
 6985SOL     OW21532   7.476   3.959   1.921  0.3107 -0.1877 -0.2994
 6985SOL    HW121533   7.535   3.996   1.986  0.3319  0.0962 -0.4780
 6985SOL    HW221534   7.480   4.019   1.847  0.1498 -0.4117 -0.4951
 6986SOL     OW21535   3.343   4.263   4.058  0.3744 -0.0285 -0.0507
 6986SOL    HW121536   3.276   4.199   4.085  0.0707  0.3802  0.1738
 6986SOL    HW221537   3.395   4.277   4.137 -0.1431  0.7106  0.1726
 6987SOL     OW21538   1.938   3.039   7.345  0.5061  0.2123  0.1388
 6987SOL    HW121539   1.895   3.122   7.324  2.1162  1.2489  0.8041
 6987SOL    HW221540   1.940   3.036   7.441 -1.3527 -1.6168  0.2086
 6988SOL     OW21541   4.436   6.420   6.794  0.0577  0.1014 -0.0103
 6988SOL    HW121542   4.460   6.335   6.832 -0.6909 -1.0826 -1.9845
 6988SOL    HW221543   4.360   6.448   6.844  0.6344 -0.1083  1.0138
 6989SOL     OW21544   1.205   0.558   2.502  0.5831 -0.0324 -0.1780
 6989SOL    HW121545   1.166   0.643   2.521  1.2209  0.8007 -2.3103
 6989SOL    HW221546   1.280   0.551   2.561 -0.3120  0.2043  1.0225
 6990SOL     OW21547   4.407   0.131   1.590  0.2253  0.0380 -0.1271
 6990SOL    HW121548   4.483   0.097   1.637 -0.5337 -0.8930  0.4637
 6990SOL    HW221549   4.443   0.162   1.507  1.4595  0.9266  0.6973
 6991SOL     OW21550   7.837   9.250   3.284  0.4686  0.0323  0.4613
 6991SOL    HW121551   7.764   9.312   3.274 -0.2633 -0.9848 -0.7301
 6991SOL    HW221552   7.805   9.186   3.348  0.3547 -0.3264  0.0543
 6992SOL     OW21553   9.065   4.704   8.447 -0.6916 -0.0799 -0.6981
 6992SOL    HW121554   8.973   4.677   8.456 -0.4041 -0.4677  1.5114
 6992SOL    HW221555   9.062   4.799   8.444 -1.1531 -0.0886 -0.5930
 6993SOL     OW21556   6.658   6.047   8.723 -0.0686  0.0154  0.6103
 6993SOL    HW121557   6.708   6.094   8.790 -0.2592  0.4357  0.4576
 6993SOL    HW221558   6.684   5.956   8.735  1.8521  0.3716 -0.3805
 6994SOL     OW21559   4.065   0.180   3.427  0.1429 -0.2012  0.5005
 6994SOL    HW121560   4.124   0.246   3.390 -1.7013  0.8395 -0.7379
 6994SOL    HW221561   4.066   0.197   3.521  2.5963 -0.9377  0.6799
 6995SOL     OW21562   3.915   1.032   4.509  0.3018  0.4863 -0.3094
 6995SOL    HW121563   3.909   1.048   4.603 -1.5044 -1.5995  0.0202
 6995SOL    HW221564   3.840   1.079   4.472 -1.5836 -2.1156 -0.0593
 6996SOL     OW21565   6.080   8.334   0.207 -0.5793  0.3753  0.2783
 6996SOL    HW121566   6.172   8.359   0.207 -0.4275 -0.1370  1.8042
 6996SOL    HW221567   6.060   8.312   0.298 -2.5377  1.6410  0.2207
 6997SOL     OW21568   7.030   0.615   3.180  0.4165  0.1641 -0.0685
 6997SOL    HW121569   7.122   0.642   3.187  0.6687  0.2227 -2.4832
 6997SOL    HW221570   7.030   0.553   3.107 -1.3869 -0.3243  0.3025
 6998SOL     OW21571   2.492   8.145   6.994 -0.0945  0.2633 -0.2673
 6998SOL    HW121572   2.586   8.133   7.002 -0.2108 -1.4470 -0.9770
 6998SOL    HW221573   2.471   8.216   7.055  1.7807  1.4235 -0.9034
 6999SOL     OW21574   3.948   1.631   1.432  0.4490  0.0888  0.0573
 6999SOL    HW121575   3.903   1.595   1.507  0.1113 -0.9593 -0.6264
 6999SOL    HW221576   4.040   1.605   1.444  0.1117 -1.6079 -0.7362
 7000SOL     OW21577   6.874   1.201   1.054 -0.6970 -0.0485 -0.3532
 7000SOL    HW121578   6.874   1.282   1.105  0.8025  1.6158 -2.7838
 7000SOL    HW221579   6.786   1.195   1.019 -0.9289  0.3041  0.1517
 7001SOL     OW21580   2.035   9.857   5.994 -0.5519 -0.5264  0.0476
 7001SOL    HW121581   2.086   9.840   6.073 -1.7877 -0.6177  0.8622
 7001SOL    HW221582   2.065   9.791   5.932 -0.7393 -1.5564  1.0182
 7002SOL     OW21583   5.694   7.118   8.397 -0.3234 -0.2510  0.3256
 7002SOL    HW121584   5.685   7.024   8.416 -0.8038 -0.1328  0.7092
 7002SOL    HW221585   5.774   7.144   8.443 -1.1360 -0.1041  1.7288
 7003SOL     OW21586   5.726   8.068   8.529 -0.0388  0.0744 -0.1991
 7003SOL    HW121587   5.637   8.093   8.506  0.3981  1.1402 -0.8159
 7003SOL    HW221588   5.759   8.022   8.451 -0.5641 -1.7962  0.6238
 7004SOL     OW21589   1.986   3.664   8.105 -0.7251  0.5944  0.3152
 7004SOL    HW121590   1.971   3.691   8.015  0.6489 -0.9421 -0.4158
 7004SOL    HW221591   1.930   3.588   8.118  1.8882 -1.6376 -0.5999
 7005SOL     OW21592   9.239   8.156   3.370  0.0708 -0.1637  0.2906
 7005SOL    HW121593   9.181   8.232   3.375  0.5528  0.4775 -2.2751
 7005SOL    HW221594   9.323   8.187   3.404 -0.0177  0.1361  0.2367
 7006SOL     OW21595   1.865   4.275   2.296  0.2108 -0.0973 -0.3945
 7006SOL    HW121596   1.916   4.266   2.377  0.7034 -1.0193 -0.7885
 7006SOL    HW221597   1.781   4.235   2.317  0.1864  0.0462 -0.2123
 7007SOL     OW21598   3.292   7.277   7.014  0.1121 -0.0569  0.2027
 7007SOL    HW121599   3.351   7.208   6.982  0.8404  0.7449 -0.2135
 7007SOL    HW221600   3.348   7.333   7.067 -0.0526  1.2176 -0.9188
 7008SOL     OW21601   9.164   6.652   6.090 -0.2070  0.1269 -0.3958
 7008SOL    HW121602   9.201   6.728   6.135 -0.1373 -0.5425  0.7183
 7008SOL    HW221603   9.103   6.690   6.027  1.4078  1.2020 -1.3974
 7009SOL     OW21604   2.276   2.623   8.645  0.3028  0.4890 -0.2298
 7009SOL    HW121605   2.299   2.686   8.577  3.2727 -0.3514 -0.1513
 7009SOL    HW221606   2.301   2.665   8.727  0.8667 -0.1745 -0.0494
 7010SOL     OW21607   3.954   2.714   8.115  0.0300 -0.2940  0.1248
 7010SOL    HW121608   3.925   2.724   8.205 -0.4304  0.6600 -0.1155
 7010SOL    HW221609   3.896   2.648   8.077  1.2290 -1.8935  0.9366
 7011SOL     OW21610   1.633   4.157   8.000 -0.0002 -0.4595  0.0788
 7011SOL    HW121611   1.684   4.087   7.959 -0.1429 -0.8196  0.5076
 7011SOL    HW221612   1.613   4.123   8.088  2.3065  1.2087  1.3678
 7012SOL     OW21613   9.216   5.055   8.870  0.2064 -0.2185  0.8658
 7012SOL    HW121614   9.160   5.042   8.794  1.5888 -0.5860 -0.1353
 7012SOL    HW221615   9.221   4.969   8.912  0.1796 -0.2315  0.8421
 7013SOL     OW21616   9.100   6.393   2.199  0.0115 -0.2584 -0.0451
 7013SOL    HW121617   9.152   6.323   2.160  2.4733  1.5288 -0.1532
 7013SOL    HW221618   9.129   6.397   2.290 -0.2636  0.4852  0.0121
 7014SOL     OW21619   7.646   4.591   7.300  0.0336 -0.3377 -0.3136
 7014SOL    HW121620   7.645   4.611   7.394 -0.5025  1.0798 -0.5934
 7014SOL    HW221621   7.602   4.506   7.293 -0.0545 -0.3885  0.7011
 7015SOL     OW21622   3.506   3.707   7.129 -0.2556  0.1780 -0.0866
 7015SOL    HW121623   3.438   3.718   7.195 -0.2820  1.6558 -0.3255
 7015SOL    HW221624   3.585   3.685   7.179 -0.5564  0.0395  0.3254
 7016SOL     OW21625   3.472   0.845   0.859  0.2224  0.4195  0.6429
 7016SOL    HW121626   3.488   0.772   0.920 -1.8939 -0.1003  0.6652
 7016SOL    HW221627   3.446   0.918   0.915  0.2217  0.5446  0.4804
 7017SOL     OW21628   8.839   4.138   4.476 -0.1924  0.1296  0.1083
 7017SOL    HW121629   8.789   4.091   4.542  0.0695 -0.3513 -0.0337
 7017SOL    HW221630   8.783   4.137   4.398 -0.0963 -0.1383  0.0411
 7018SOL     OW21631   4.596   1.488   5.244 -0.4200  0.0226  0.5943
 7018SOL    HW121632   4.602   1.397   5.215  2.1336  0.0527  0.7958
 7018SOL    HW221633   4.562   1.483   5.333 -1.1586 -0.6447  0.2826
 7019SOL     OW21634   5.085   7.384   5.259  0.1635 -0.8630 -0.1959
 7019SOL    HW121635   5.012   7.325   5.279 -1.2071  1.0559  0.8054
 7019SOL    HW221636   5.086   7.391   5.164 -1.4295 -0.4344 -0.2074
 7020SOL     OW21637   5.466   9.157   1.979  0.2871 -0.2601  0.7092
 7020SOL    HW121638   5.441   9.154   1.886  0.3032 -2.5036  0.7113
 7020SOL    HW221639   5.541   9.098   1.985  0.4947  0.1159  2.0954
 7021SOL     OW21640   9.538   2.888   3.283 -0.2699 -0.7447  0.1870
 7021SOL    HW121641   9.496   2.967   3.319 -1.5733 -1.1111 -0.4668
 7021SOL    HW221642   9.625   2.918   3.255 -0.2418  0.1477  1.1472
 7022SOL     OW21643   1.473   3.959   2.530 -0.2695 -0.5934 -0.1154
 7022SOL    HW121644   1.423   3.987   2.608  1.1374 -0.6673  0.8601
 7022SOL    HW221645   1.473   3.864   2.534  2.1937 -0.6306  1.4912
 7023SOL     OW21646   0.759   0.225   4.393 -0.2634  0.0454 -0.1004
 7023SOL    HW121647   0.684   0.176   4.426  0.0928  0.5898  1.6036
 7023SOL    HW221648   0.734   0.317   4.403  1.2734  0.2892  2.2496
 7024SOL     OW21649   8.448   0.331   3.791 -0.2166 -0.0841  0.8671
 7024SOL    HW121650   8.478   0.396   3.855 -0.9492  0.4243  0.7170
 7024SOL    HW221651   8.490   0.357   3.709 -1.0726  0.6533  0.6464
 7025SOL     OW21652   2.549   4.014   2.715  0.4348 -0.2037  0.1125
 7025SOL    HW121653   2.485   4.083   2.733  1.3310  1.0408 -1.2123
 7025SOL    HW221654   2.511   3.935   2.753 -1.4119  0.6909  0.2382
 7026SOL     OW21655   8.415   5.990   7.509 -0.0239 -0.0515 -0.3881
 7026SOL    HW121656   8.329   5.952   7.528 -0.0006 -0.4131 -0.9767
 7026SOL    HW221657   8.477   5.933   7.555 -0.1158  0.3879  0.2875
 7027SOL     OW21658   9.723   8.933   4.618  0.2411 -0.4124  0.1146
 7027SOL    HW121659   9.676   9.011   4.588  0.9403 -0.7362 -1.9845
 7027SOL    HW221660   9.722   8.940   4.714 -0.6124  1.6092  0.0159
 7028SOL     OW21661   8.971   0.573   7.430 -0.4021  0.1609 -0.3067
 7028SOL    HW121662   9.065   0.569   7.445 -0.2942 -0.6159 -1.0978
 7028SOL    HW221663   8.946   0.662   7.454  0.1834 -0.1755  1.7716
 7029SOL     OW21664   0.198   7.694   3.993  0.2210  0.9036 -0.3654
 7029SOL    HW121665   0.138   7.686   4.067 -0.0824  0.9839 -0.6060
 7029SOL    HW221666   0.278   7.729   4.032  0.6121 -0.5342  0.2126
 7030SOL     OW21667   5.789   6.167   3.449 -0.1273  0.0472 -0.0028
 7030SOL    HW121668   5.787   6.086   3.500  0.1598 -0.8174 -1.3188
 7030SOL    HW221669   5.703   6.171   3.408 -0.8803  1.4696  1.5810
 7031SOL     OW21670   9.783   1.248   1.567 -0.1112 -0.5287  0.8393
 7031SOL    HW121671   9.793   1.170   1.513  0.7904  1.9758 -3.0935
 7031SOL    HW221672   9.873   1.281   1.577 -0.6572  1.4697 -0.2497
 7032SOL     OW21673   8.389   1.656   4.563 -0.0112  0.2846 -0.1804
 7032SOL    HW121674   8.328   1.645   4.490 -0.0157  2.3104 -0.5354
 7032SOL    HW221675   8.345   1.716   4.622  0.7744  0.1171  0.5979
 7033SOL     OW21676   4.934   5.647   8.750 -0.1602 -0.1394  0.4649
 7033SOL    HW121677   4.978   5.719   8.796  0.6421  0.2823 -0.8978
 7033SOL    HW221678   5.001   5.579   8.743  0.8040  0.9594 -2.6847
 7034SOL     OW21679   6.460   8.005   4.650 -0.1521 -0.5381 -0.2185
 7034SOL    HW121680   6.366   8.022   4.659 -0.3087  0.4534 -2.8724
 7034SOL    HW221681   6.466   7.926   4.597  0.3990  1.1700 -2.8588
 7035SOL     OW21682   4.752   2.052   4.192  0.6060  0.3813 -0.3087
 7035SOL    HW121683   4.757   1.994   4.268 -1.5853  1.1698  0.5145
 7035SOL    HW221684   4.716   1.997   4.122 -0.1791  0.3603  0.0926
 7036SOL     OW21685   6.936   5.858   8.040  0.7895 -0.1963 -0.0291
 7036SOL    HW121686   6.997   5.808   8.096  1.3620 -0.8132 -1.1779
 7036SOL    HW221687   6.870   5.794   8.013 -0.2180  0.3934  0.9359
 7037SOL     OW21688   7.890   5.999   1.627  0.3836 -0.4677 -0.5484
 7037SOL    HW121689   7.856   5.923   1.579 -1.7686  1.1441 -1.7275
 7037SOL    HW221690   7.888   6.070   1.564 -0.6934  1.2982  1.3747
 7038SOL     OW21691   5.080   0.522   8.912 -0.3620  0.1868  0.2593
 7038SOL    HW121692   5.011   0.491   8.970  0.3594  1.6886  2.0200
 7038SOL    HW221693   5.036   0.583   8.853 -0.9739 -0.7943 -0.3120
 7039SOL     OW21694   4.734   8.786   2.198 -0.4930 -0.1276  0.0038
 7039SOL    HW121695   4.827   8.765   2.191 -0.2200 -0.4743  3.2318
 7039SOL    HW221696   4.693   8.705   2.226 -1.0876  0.9027  2.3473
 7040SOL     OW21697   4.765   2.013   4.651  0.2401 -0.0394 -0.0063
 7040SOL    HW121698   4.823   1.938   4.662 -0.8692 -1.0897 -1.0488
 7040SOL    HW221699   4.678   1.975   4.637 -0.1135  1.3770 -2.1031
 7041SOL     OW21700   6.615   0.459   3.039  0.6366  0.0961 -0.0956
 7041SOL    HW121701   6.614   0.539   2.986  0.8138 -0.4884 -1.0110
 7041SOL    HW221702   6.707   0.433   3.041  0.7538  0.5115  1.1620
 7042SOL     OW21703   9.776   0.202   6.627  0.2115 -0.0569  0.4492
 7042SOL    HW121704   9.759   0.182   6.535  1.0003 -0.6652  0.4223
 7042SOL    HW221705   9.868   0.177   6.640 -0.4321 -1.8545  1.8906
 7043SOL     OW21706   5.726   3.381   6.910  0.1713  0.3967 -0.4405
 7043SOL    HW121707   5.758   3.318   6.845  0.2868  0.2521 -0.2451
 7043SOL    HW221708   5.801   3.440   6.924 -0.3877  1.4617 -1.6858
 7044SOL     OW21709   8.164   4.425   6.323 -0.1105 -0.0438 -0.6382
 7044SOL    HW121710   8.246   4.451   6.364  0.6929 -0.0055 -2.1928
 7044SOL    HW221711   8.172   4.331   6.310  0.5694  0.2252 -2.5433
 7045SOL     OW21712   0.201   0.330   0.292 -0.3187 -0.0880 -0.1279
 7045SOL    HW121713   0.220   0.413   0.337  2.5988  0.0205 -1.3359
 7045SOL    HW221714   0.175   0.271   0.363  0.4233  1.0842  1.1915
 7046SOL     OW21715   5.136   1.174   4.639 -0.0809  0.2446  0.3691
 7046SOL    HW121716   5.110   1.087   4.667 -0.4518 -0.1541 -1.1264
 7046SOL    HW221717   5.180   1.161   4.555  1.7855  1.2863  1.1084
 7047SOL     OW21718   8.285   8.776   5.602  0.0458 -0.7737 -0.5840
 7047SOL    HW121719   8.208   8.809   5.556  0.9746 -0.7321 -2.1648
 7047SOL    HW221720   8.272   8.804   5.693 -1.5834 -0.3933 -0.9036
 7048SOL     OW21721   4.596   7.196   9.404  0.1273 -0.1010 -0.4891
 7048SOL    HW121722   4.515   7.176   9.358 -0.6860  0.9594  0.4233
 7048SOL    HW221723   4.624   7.281   9.370 -1.3742  1.5209  2.0009
 7049SOL     OW21724   1.129   4.118   3.910 -0.6991  0.6009 -0.1573
 7049SOL    HW121725   1.050   4.123   3.962  0.5165 -0.6906  1.9593
 7049SOL    HW221726   1.106   4.063   3.835 -1.0287 -2.8064  2.2228
 7050SOL     OW21727   7.779   8.488   8.482 -0.2398  0.2835 -0.3308
 7050SOL    HW121728   7.752   8.481   8.390 -2.0043  2.0238 -0.0102
 7050SOL    HW221729   7.806   8.399   8.505 -1.5431 -0.6271 -2.0230
 7051SOL     OW21730   0.733   4.630   9.575  0.0376 -0.0553  0.0007
 7051SOL    HW121731   0.788   4.704   9.600  0.4663 -0.3446 -0.0746
 7051SOL    HW221732   0.645   4.656   9.601  0.1914  0.4642  0.0084
 7052SOL     OW21733   2.258   4.860   4.376  1.1761  0.2485 -0.2927
 7052SOL    HW121734   2.311   4.781   4.389  0.2777 -0.4705 -0.8494
 7052SOL    HW221735   2.194   4.858   4.447  1.3367  0.6408 -0.1345
 7053SOL     OW21736   5.344   0.962   2.653  0.5508  0.1338 -0.0286
 7053SOL    HW121737   5.438   0.972   2.665  0.2979  1.4151  1.1575
 7053SOL    HW221738   5.317   1.043   2.609  0.0889 -0.4821 -0.8819
 7054SOL     OW21739   7.291   8.464   5.277  0.0647 -0.0149 -0.5184
 7054SOL    HW121740   7.298   8.370   5.260  0.1153 -0.2920  0.8934
 7054SOL    HW221741   7.363   8.483   5.336 -0.5289  0.7100 -0.0123
 7055SOL     OW21742   6.401   2.680   4.269  0.1245 -0.3779  0.9868
 7055SOL    HW121743   6.347   2.689   4.191  2.9254 -3.2165 -1.5439
 7055SOL    HW221744   6.347   2.631   4.331 -2.1044  1.8355  0.9677
 7056SOL     OW21745   5.250   1.885   5.354 -0.0960 -0.1038  0.0380
 7056SOL    HW121746   5.257   1.937   5.274 -0.9591 -0.8164 -0.5156
 7056SOL    HW221747   5.184   1.930   5.406 -0.7449 -0.5591 -0.3824
 7057SOL     OW21748   6.881   6.460   8.456 -0.3975  0.4701 -0.2123
 7057SOL    HW121749   6.824   6.444   8.380 -0.9373  2.0112 -0.1689
 7057SOL    HW221750   6.936   6.382   8.461 -1.5574 -0.4614 -1.1028
 7058SOL     OW21751   1.436   5.157   8.632 -0.5088  0.0114  0.0265
 7058SOL    HW121752   1.529   5.162   8.653 -0.4155 -2.4040  0.5549
 7058SOL    HW221753   1.432   5.171   8.537  0.3731  0.3137  0.0271
 7059SOL     OW21754   5.264   6.419   9.715  0.8704  0.4387 -0.3124
 7059SOL    HW121755   5.206   6.356   9.673  0.7388  0.6631 -0.4644
 7059SOL    HW221756   5.352   6.391   9.690  0.8434 -0.0373  0.1048
 7060SOL     OW21757   3.605   8.826   8.403 -0.1230 -0.4599 -0.2807
 7060SOL    HW121758   3.565   8.912   8.416 -3.1579 -1.7967 -0.0491
 7060SOL    HW221759   3.596   8.782   8.487 -0.2084 -1.6273 -0.8857
 7061SOL     OW21760   9.580   7.990   0.669 -0.4453  0.5201 -0.2060
 7061SOL    HW121761   9.488   8.012   0.684 -1.2275 -0.1240 -3.3016
 7061SOL    HW221762   9.579   7.899   0.639  1.2305  0.4399 -0.1174
 7062SOL     OW21763   2.114   2.858   3.551 -0.2388 -0.1789  0.5446
 7062SOL    HW121764   2.082   2.859   3.642  0.0394  0.6857  0.6332
 7062SOL    HW221765   2.056   2.795   3.507  1.4116 -2.8877  1.9373
 7063SOL     OW21766   5.394   8.650   3.538  0.2007 -0.3068 -0.2737
 7063SOL    HW121767   5.339   8.638   3.460  1.0714  0.4752 -1.0368
 7063SOL    HW221768   5.371   8.577   3.595 -0.3686 -0.9697 -1.3205
 7064SOL     OW21769   6.770   3.111   5.671  0.5307 -0.3463  0.0092
 7064SOL    HW121770   6.778   3.128   5.765  0.3170  1.8385 -0.3286
 7064SOL    HW221771   6.676   3.119   5.653  0.6902  0.2430 -0.5685
 7065SOL     OW21772   2.766   6.157   5.324 -0.3608 -0.4116  0.5297
 7065SOL    HW121773   2.765   6.064   5.299  0.1211 -0.9801  2.4424
 7065SOL    HW221774   2.846   6.191   5.284 -0.0186 -1.0781  0.6248
 7066SOL     OW21775   3.185   6.333   8.477  0.4544 -0.4059  0.8297
 7066SOL    HW121776   3.125   6.405   8.498  0.8002  0.0736  0.2079
 7066SOL    HW221777   3.234   6.318   8.558  1.2006  0.8599  0.6346
 7067SOL     OW21778   8.072   1.724   4.888  0.6165  0.3496  0.0269
 7067SOL    HW121779   8.064   1.768   4.973 -2.9691  0.5884 -0.2991
 7067SOL    HW221780   8.025   1.642   4.899  1.2820 -0.2427 -1.3774
 7068SOL     OW21781   8.121   6.745   5.839 -0.3115 -0.3049 -0.3272
 7068SOL    HW121782   8.087   6.805   5.772 -0.7377 -0.8975 -0.6485
 7068SOL    HW221783   8.092   6.784   5.922 -1.4402 -0.5669 -0.5752
 7069SOL     OW21784   3.446   9.019   5.082 -0.4206 -0.1016 -0.0593
 7069SOL    HW121785   3.409   8.989   5.165 -0.0708 -1.8501 -0.5004
 7069SOL    HW221786   3.539   8.999   5.088 -0.3377  0.0258 -0.7618
 7070SOL     OW21787   0.373   3.232   7.772  0.0543 -0.0932 -0.3026
 7070SOL    HW121788   0.284   3.203   7.756 -0.6014  0.6238  1.8242
 7070SOL    HW221789   0.398   3.191   7.855  1.2668  0.6499 -0.2692
 7071SOL     OW21790   2.432   2.026   8.398  0.1596 -0.5232  0.3817
 7071SOL    HW121791   2.357   1.967   8.395  0.1232 -0.5095  0.9549
 7071SOL    HW221792   2.394   2.111   8.421  0.5618 -0.9222  2.8092
 7072SOL     OW21793   9.132   3.323   9.672  0.0013  0.1089 -0.9194
 7072SOL    HW121794   9.122   3.274   9.590  2.1248 -0.5619 -0.8162
 7072SOL    HW221795   9.188   3.396   9.650  2.1165 -1.0620  0.2472
 7073SOL     OW21796   3.761   7.884   0.899  0.3361  0.0711 -0.2880
 7073SOL    HW121797   3.779   7.812   0.838  0.7815  0.2339 -0.3513
 7073SOL    HW221798   3.827   7.873   0.968  0.2926  0.3163 -0.2093
 7074SOL     OW21799   0.110   2.839   5.929 -0.3129  0.0891 -0.3067
 7074SOL    HW121800   0.127   2.808   5.840 -0.1409 -0.0997 -0.2082
 7074SOL    HW221801   0.194   2.871   5.960 -0.2961 -0.1789 -0.0796
 7075SOL     OW21802   0.562   2.034   2.355  0.2394  0.5228  0.7935
 7075SOL    HW121803   0.550   2.108   2.295  0.2096  0.5638  0.8490
 7075SOL    HW221804   0.518   2.062   2.435  1.6354  1.1314  1.3765
 7076SOL     OW21805   4.912   5.593   5.838  0.1630 -0.1880  0.4235
 7076SOL    HW121806   4.948   5.511   5.872  3.3205  1.6673  1.9236
 7076SOL    HW221807   4.972   5.620   5.769 -0.0442  1.5175  0.8569
 7077SOL     OW21808   0.272   3.502   9.657  0.0734 -0.0598 -0.9284
 7077SOL    HW121809   0.220   3.515   9.577  1.2906 -0.0055 -1.7316
 7077SOL    HW221810   0.356   3.542   9.638 -0.4582  2.4851  1.4118
 7078SOL     OW21811   7.981   2.555   2.099 -0.8734 -0.1566  0.6142
 7078SOL    HW121812   8.000   2.482   2.040  0.3317 -0.4311  1.3117
 7078SOL    HW221813   7.914   2.605   2.054  0.2033 -0.2097 -1.1300
 7079SOL     OW21814   8.331   0.420   4.884 -0.7933 -0.1433 -0.0844
 7079SOL    HW121815   8.256   0.449   4.935  1.0177  1.8064  1.6849
 7079SOL    HW221816   8.393   0.387   4.949  1.1099  1.2333 -1.0921
 7080SOL     OW21817   9.082   1.527   5.253  0.4915  0.2082 -0.2338
 7080SOL    HW121818   8.996   1.569   5.261 -0.3532 -1.6781  1.6696
 7080SOL    HW221819   9.092   1.510   5.160 -1.8898 -0.8309 -0.3576
 7081SOL     OW21820   6.628   2.015   5.975  0.2346  0.3965 -0.4563
 7081SOL    HW121821   6.671   1.930   5.973  0.0218  0.3085 -1.4409
 7081SOL    HW221822   6.547   2.000   6.024  0.1640  0.0210 -0.6904
 7082SOL     OW21823   7.554   2.349   5.223  0.0631 -0.2866  0.0990
 7082SOL    HW121824   7.521   2.439   5.231  0.5204 -0.2183  1.4162
 7082SOL    HW221825   7.490   2.296   5.270  0.7164 -0.4085  0.8799
 7083SOL     OW21826   6.334   8.033   8.442 -0.3182 -0.2874  0.6838
 7083SOL    HW121827   6.408   8.074   8.487 -0.1923 -0.6398  0.8029
 7083SOL    HW221828   6.329   7.945   8.480 -0.4424 -0.4594  0.2734
 7084SOL     OW21829   9.552   4.135   4.613  0.3668 -0.2819 -0.5387
 7084SOL    HW121830   9.507   4.073   4.555 -1.9360  1.3696 -0.6164
 7084SOL    HW221831   9.548   4.218   4.567 -0.9164  0.9428  1.6383
 7085SOL     OW21832   8.091   4.986   6.747 -0.1174  0.4674 -0.0512
 7085SOL    HW121833   8.033   5.024   6.813  0.2550  1.4745 -0.2802
 7085SOL    HW221834   8.176   5.027   6.763  0.4418 -0.6765  0.0178
 7086SOL     OW21835   5.646   7.851   2.926 -0.8871  0.5582  0.1892
 7086SOL    HW121836   5.710   7.904   2.877 -1.7453 -0.3673 -2.0705
 7086SOL    HW221837   5.595   7.915   2.976  0.8061  1.4437  0.8711
 7087SOL     OW21838   1.280   1.248   4.607  0.0370 -0.2517 -0.8371
 7087SOL    HW121839   1.280   1.183   4.678 -0.4904 -0.4322 -0.9978
 7087SOL    HW221840   1.362   1.234   4.561 -0.2046 -1.0084 -1.0490
 7088SOL     OW21841   6.406   2.791   0.044 -0.4709 -0.2608  0.6459
 7088SOL    HW121842   6.397   2.745   0.127 -1.6974  0.7434  1.1089
 7088SOL    HW221843   6.319   2.829   0.028 -0.7064 -1.6758 -1.8752
 7089SOL     OW21844   5.531   3.904   3.718 -0.2549 -0.2895 -0.2135
 7089SOL    HW121845   5.474   3.840   3.676 -0.9212  0.8830 -1.1352
 7089SOL    HW221846   5.607   3.910   3.660  0.2991 -0.9923  0.4153
 7090SOL     OW21847   2.897   5.266   0.362  0.1173  0.1971 -0.1085
 7090SOL    HW121848   2.914   5.263   0.456 -0.4182  1.1845  0.0292
 7090SOL    HW221849   2.980   5.295   0.324  0.9227 -1.9619 -0.1471
 7091SOL     OW21850   1.427   4.729   7.885 -0.9480  0.3118 -0.7876
 7091SOL    HW121851   1.508   4.765   7.922 -0.3276  0.2072 -2.0110
 7091SOL    HW221852   1.380   4.696   7.961  0.4834 -0.2782 -0.1072
 7092SOL     OW21853   1.904   0.693   6.036  0.2267 -0.1534 -0.3448
 7092SOL    HW121854   1.923   0.602   6.056 -0.5990 -0.1089  0.7250
 7092SOL    HW221855   1.870   0.692   5.946  2.7871 -0.5216 -1.4116
 7093SOL     OW21856   1.701   6.745   4.637 -0.0708  0.1652  0.7662
 7093SOL    HW121857   1.629   6.682   4.628 -0.7769  0.8749  1.2772
 7093SOL    HW221858   1.687   6.808   4.567  2.1311 -1.5892 -1.4452
 7094SOL     OW21859   5.984   9.661   4.937 -0.6229  0.9040  0.0967
 7094SOL    HW121860   6.048   9.669   5.009 -0.4022 -0.8701  0.1573
 7094SOL    HW221861   5.919   9.729   4.954  0.7431  2.1459  0.5662
 7095SOL     OW21862   2.277   1.318   5.397 -0.0632  0.3879  0.6555
 7095SOL    HW121863   2.266   1.247   5.335  1.4487  0.8111 -0.1402
 7095SOL    HW221864   2.255   1.397   5.348  0.5828  0.6768  0.8142
 7096SOL     OW21865   5.536   3.299   7.516 -0.1854 -0.5075  0.2427
 7096SOL    HW121866   5.593   3.287   7.440  3.6190 -1.1478  2.9072
 7096SOL    HW221867   5.511   3.392   7.513  1.7200  0.0276 -0.6607
 7097SOL     OW21868   2.637   3.979   0.844  0.5143 -0.2312  0.0363
 7097SOL    HW121869   2.586   3.996   0.923  0.5587  0.7107 -0.1235
 7097SOL    HW221870   2.604   3.896   0.811  0.3197 -0.5083  0.9094
 7098SOL     OW21871   7.794   8.760   7.598 -0.3406  0.4866  0.2597
 7098SOL    HW121872   7.819   8.807   7.678 -0.8048 -0.2138  0.8385
 7098SOL    HW221873   7.701   8.742   7.610 -0.2256 -0.3482 -0.0590
 7099SOL     OW21874   1.943   3.732   0.130  0.0001 -0.2371 -0.2957
 7099SOL    HW121875   1.897   3.670   0.185 -1.9098 -0.3629 -1.9313
 7099SOL    HW221876   1.944   3.813   0.181 -0.3021 -0.7566  0.5595
 7100SOL     OW21877   4.934   4.161   6.426  0.3033 -0.2191 -0.7016
 7100SOL    HW121878   5.021   4.159   6.387  1.3594  1.0781  1.3826
 7100SOL    HW221879   4.925   4.251   6.459 -0.4093 -1.1788  1.9916
 7101SOL     OW21880   3.180   5.658   1.052 -0.2925 -0.4659  0.4620
 7101SOL    HW121881   3.203   5.579   1.004  1.6600  0.4121 -0.1346
 7101SOL    HW221882   3.086   5.650   1.067 -0.5814 -1.7569 -1.6797
 7102SOL     OW21883   9.063   0.192   7.756  0.0286 -0.1135  0.1708
 7102SOL    HW121884   9.104   0.278   7.751 -0.3302  0.0044 -1.5028
 7102SOL    HW221885   8.978   0.204   7.714 -0.1120 -1.2301  0.1103
 7103SOL     OW21886   7.325   3.340   6.910  0.2085 -0.2286 -0.1481
 7103SOL    HW121887   7.323   3.389   6.993  2.5875  0.6974 -0.5554
 7103SOL    HW221888   7.277   3.259   6.929 -3.0451  1.7338  0.8279
 7104SOL     OW21889   8.942   5.627   9.956  0.4605  0.0703  0.2056
 7104SOL    HW121890   8.982   5.563  10.014 -0.6389  0.3811  1.3633
 7104SOL    HW221891   8.998   5.704   9.963 -1.0550  1.0606  3.0510
 7105SOL     OW21892   4.072   8.970   9.474  0.1223 -0.7412 -0.3062
 7105SOL    HW121893   4.081   9.004   9.385 -1.4695 -0.4691 -0.3971
 7105SOL    HW221894   4.153   8.922   9.490  0.3901 -0.8957 -1.9513
 7106SOL     OW21895   6.340   2.194   1.854 -0.1189 -0.0742  0.0722
 7106SOL    HW121896   6.289   2.199   1.773  0.8466 -0.3118 -0.5588
 7106SOL    HW221897   6.347   2.285   1.883 -0.1406  0.0538 -0.3171
 7107SOL     OW21898   0.137   3.491   1.420 -0.0339 -0.1274 -0.6483
 7107SOL    HW121899   0.048   3.458   1.421 -0.5188  0.8856 -2.9136
 7107SOL    HW221900   0.128   3.583   1.394  1.5915  0.4119  0.5171
 7108SOL     OW21901   8.299   0.748   1.742 -0.1787  0.1376 -0.0216
 7108SOL    HW121902   8.243   0.709   1.674 -0.2727 -2.0509  1.1953
 7108SOL    HW221903   8.387   0.743   1.706 -0.4724  1.2190 -0.9233
 7109SOL     OW21904   7.882   9.235   6.213  0.7493  0.4728 -0.2481
 7109SOL    HW121905   7.830   9.215   6.291  0.8808 -0.6619 -0.4292
 7109SOL    HW221906   7.840   9.312   6.175 -1.5455 -1.0401 -1.0003
 7110SOL     OW21907   3.159   4.871   6.842  0.1317  0.5907  0.4464
 7110SOL    HW121908   3.135   4.781   6.819  2.0283  0.0506  0.4274
 7110SOL    HW221909   3.250   4.880   6.814  0.4373  2.0559  1.7499
 7111SOL     OW21910   8.571   6.890   9.610 -0.0086  0.0478 -0.3814
 7111SOL    HW121911   8.625   6.838   9.670 -0.3341  1.1957  0.9610
 7111SOL    HW221912   8.611   6.977   9.612  1.0078 -0.2500 -3.1914
 7112SOL     OW21913   8.257   1.038   9.114  0.0412 -0.5017 -0.5106
 7112SOL    HW121914   8.350   1.057   9.111 -0.2218  0.8519 -0.3593
 7112SOL    HW221915   8.216   1.109   9.066 -0.9291 -1.0605 -0.5433
 7113SOL     OW21916   2.048   4.631   1.923 -0.5863  0.0449 -0.1815
 7113SOL    HW121917   2.034   4.537   1.928  1.5300 -0.3744 -0.9000
 7113SOL    HW221918   2.143   4.642   1.937 -0.5682  1.9211 -1.3839
 7114SOL     OW21919   0.900   8.435   7.571 -0.1764  0.0611  0.3024
 7114SOL    HW121920   0.953   8.373   7.621 -0.2895  1.8494  2.8627
 7114SOL    HW221921   0.810   8.407   7.586 -0.1676 -0.0230  0.2006
 7115SOL     OW21922   1.180   9.423   6.345  0.2327  0.7666  0.0597
 7115SOL    HW121923   1.204   9.425   6.437 -0.7648  0.9383  0.3309
 7115SOL    HW221924   1.256   9.459   6.299  1.9014 -1.9292  0.5114
 7116SOL     OW21925   0.322   6.499   1.356  0.3114  0.0391 -0.5404
 7116SOL    HW121926   0.405   6.507   1.404  0.3881  0.2476 -0.7064
 7116SOL    HW221927   0.318   6.578   1.302  0.6001 -0.5713 -1.4697
 7117SOL     OW21928   2.046   1.985   5.163  0.0401  0.3061  0.0710
 7117SOL    HW121929   2.109   2.056   5.174  1.0287 -0.6315  0.6094
 7117SOL    HW221930   2.066   1.923   5.233  0.1095 -1.1854 -1.2089
 7118SOL     OW21931   5.878   0.499   3.544  0.0638  0.0727  0.6331
 7118SOL    HW121932   5.932   0.578   3.541 -2.3458  1.9642  2.5819
 7118SOL    HW221933   5.934   0.431   3.507  2.5693  2.4825 -0.4188
 7119SOL     OW21934   7.428   8.326   9.800 -0.0641  0.7501  0.3886
 7119SOL    HW121935   7.486   8.401   9.787  1.4071 -0.3811  0.1697
 7119SOL    HW221936   7.456   8.289   9.883  1.1839 -1.1801 -0.8127
 7120SOL     OW21937   6.662   3.303   9.284  0.3211 -0.3788  0.0392
 7120SOL    HW121938   6.681   3.391   9.252  0.2331  0.7848  2.9044
 7120SOL    HW221939   6.712   3.245   9.226 -0.3356  1.4305 -2.4975
 7121SOL     OW21940   5.634   4.912   7.101  0.2889  0.1125  0.3449
 7121SOL    HW121941   5.611   4.922   7.009 -1.5895 -0.4670  0.6964
 7121SOL    HW221942   5.729   4.904   7.102  0.1898 -2.4653 -1.7866
 7122SOL     OW21943   5.901   6.341   1.304 -0.7550  0.0578  0.1722
 7122SOL    HW121944   5.968   6.279   1.275 -1.0815 -1.3147  2.1063
 7122SOL    HW221945   5.818   6.296   1.286 -1.0310  0.3233  0.7523
 7123SOL     OW21946   9.378   2.920   8.139 -0.3839  0.5228  0.1140
 7123SOL    HW121947   9.456   2.887   8.094 -0.0919 -0.0336  0.9952
 7123SOL    HW221948   9.379   2.875   8.224 -0.8270  1.6681  0.7415
 7124SOL     OW21949   7.812   2.620   6.270  0.0519  0.3720  0.0890
 7124SOL    HW121950   7.745   2.561   6.304  0.3013 -0.0408 -0.1333
 7124SOL    HW221951   7.830   2.588   6.182  1.1865 -0.0646  0.4763
 7125SOL     OW21952   3.914   8.240   2.955  0.4496  0.0591 -0.2154
 7125SOL    HW121953   3.963   8.257   3.035  2.2198  0.9538 -1.4203
 7125SOL    HW221954   3.970   8.180   2.905  0.5488  1.3656 -1.7765
 7126SOL     OW21955   7.496   3.608   8.071 -0.0172  0.3755 -0.0609
 7126SOL    HW121956   7.590   3.629   8.076 -0.4796  2.5930  0.4438
 7126SOL    HW221957   7.485   3.571   7.983  1.3251 -0.0232 -0.0943
 7127SOL     OW21958   9.730   6.083   2.911 -0.1407  0.5124  0.3213
 7127SOL    HW121959   9.685   6.153   2.864 -0.1729 -1.0298 -2.1144
 7127SOL    HW221960   9.677   6.070   2.990 -1.9725  1.1235 -0.7339
 7128SOL     OW21961   1.569   4.103   8.245  0.0173  0.1057 -0.6930
 7128SOL    HW121962   1.483   4.061   8.243  0.2416 -0.4123  0.0683
 7128SOL    HW221963   1.594   4.103   8.337  0.1674  1.6449 -0.7065
 7129SOL     OW21964   7.611   8.998   1.865  0.0657 -0.0166  0.4552
 7129SOL    HW121965   7.627   9.071   1.804 -1.0322 -0.7756 -0.7923
 7129SOL    HW221966   7.653   8.923   1.824 -0.6733 -0.5351  0.6319
 7130SOL     OW21967   8.405   2.710   0.392 -0.9248 -0.2592 -0.2881
 7130SOL    HW121968   8.369   2.666   0.315 -2.0958 -0.1363  0.1721
 7130SOL    HW221969   8.499   2.715   0.375 -0.8240 -2.3887 -0.6382
 7131SOL     OW21970   2.529   1.603   3.788  0.0580 -0.6291 -0.3123
 7131SOL    HW121971   2.481   1.581   3.868 -0.4263  1.2167 -0.0407
 7131SOL    HW221972   2.462   1.633   3.727  0.5533 -0.9303 -1.0221
 7132SOL     OW21973   4.802   9.545   4.662 -0.0321 -0.1446  0.0854
 7132SOL    HW121974   4.874   9.599   4.696 -0.5950  0.7398 -0.1090
 7132SOL    HW221975   4.841   9.494   4.591  0.5366 -0.1121  0.3690
 7133SOL     OW21976   6.284   2.831   3.466  0.4061 -0.4543  0.3092
 7133SOL    HW121977   6.258   2.739   3.473 -1.8847  0.2524  2.1679
 7133SOL    HW221978   6.202   2.879   3.466  1.5277  1.6370 -1.1015
 7134SOL     OW21979   7.500   1.523   1.859 -0.1613 -0.1182  0.3044
 7134SOL    HW121980   7.474   1.519   1.951 -0.5480 -0.0733  0.1978
 7134SOL    HW221981   7.442   1.588   1.820  0.5580  0.4867  0.2083
 7135SOL     OW21982   7.175   9.286   6.238 -0.0329 -0.0985  0.4112
 7135SOL    HW121983   7.133   9.200   6.226  0.1515 -0.6200  3.0631
 7135SOL    HW221984   7.159   9.308   6.329  1.6535  1.7957  0.3056
 7136SOL     OW21985   3.449   3.691   4.410 -0.2268  0.1382 -0.7102
 7136SOL    HW121986   3.531   3.670   4.366  0.5217 -1.3180  1.2469
 7136SOL    HW221987   3.466   3.774   4.454 -0.8810  1.4427 -2.7666
 7137SOL     OW21988   9.098   5.437   6.846 -0.3303 -0.3266 -0.1810
 7137SOL    HW121989   9.104   5.468   6.756 -0.9947  0.7807  0.1337
 7137SOL    HW221990   9.004   5.425   6.861 -0.1995 -0.8263  0.2624
 7138SOL     OW21991   0.003   5.633   4.266  0.1563  0.1914 -0.0871
 7138SOL    HW121992  -0.069   5.692   4.288  0.9767  1.9546 -1.8500
 7138SOL    HW221993   0.078   5.690   4.252  1.6973 -1.5221  0.7415
 7139SOL     OW21994   2.490   6.402   1.355  0.0025 -0.0451 -0.0523
 7139SOL    HW121995   2.414   6.453   1.327  0.6617  0.0711 -1.8028
 7139SOL    HW221996   2.490   6.407   1.450 -0.7556  2.0407 -0.1236
 7140SOL     OW21997   9.074   9.134   2.758 -0.3908  0.2547  0.0995
 7140SOL    HW121998   9.077   9.072   2.832  0.9385  1.6255  1.2802
 7140SOL    HW221999   9.106   9.084   2.684  0.1531 -0.6364  0.9079
 7141SOL     OW22000   4.361   7.396   6.702 -0.0001 -0.3546 -0.5730
 7141SOL    HW122001   4.394   7.467   6.647 -0.3954  0.5762  0.3548
 7141SOL    HW222002   4.311   7.440   6.770 -1.9514 -1.6243 -1.1039
 7142SOL     OW22003   3.763   7.073   5.802 -0.0995  0.1078  0.1624
 7142SOL    HW122004   3.751   7.010   5.730 -0.7559  2.3049 -1.7791
 7142SOL    HW222005   3.858   7.075   5.817 -0.0740 -1.3687  0.3254
 7143SOL     OW22006   2.297   8.327   4.247 -0.5519 -0.1112 -0.4194
 7143SOL    HW122007   2.289   8.370   4.161 -0.0609  2.0970  0.5731
 7143SOL    HW222008   2.223   8.362   4.298 -1.5475 -2.3204 -0.2600
 7144SOL     OW22009   3.251   5.645   8.775  0.4717  0.4021 -0.0937
 7144SOL    HW122010   3.198   5.711   8.820  2.4749  1.5097  0.7607
 7144SOL    HW222011   3.239   5.663   8.682 -1.5458 -0.1476  0.0138
 7145SOL     OW22012   3.319   4.382   7.419  0.1956  0.3183  0.0863
 7145SOL    HW122013   3.398   4.373   7.473  1.9942 -0.4957 -2.4608
 7145SOL    HW222014   3.261   4.312   7.448  1.3845 -0.5069  0.5422
 7146SOL     OW22015   3.259   8.910   8.648 -0.3885  0.1414 -0.2743
 7146SOL    HW122016   3.174   8.938   8.680 -1.3429 -1.3753 -1.3576
 7146SOL    HW222017   3.272   8.962   8.568 -0.6696 -0.1668 -0.5256
 7147SOL     OW22018   3.178   0.676   4.307 -0.5613  0.2160 -0.3228
 7147SOL    HW122019   3.255   0.695   4.254  0.9656  0.5350  1.8756
 7147SOL    HW222020   3.213   0.655   4.394 -3.0044  1.6989  1.1346
 7148SOL     OW22021   5.132   0.481   9.654 -0.8920  0.0685  0.2542
 7148SOL    HW122022   5.098   0.417   9.592 -0.0096  0.2030 -0.3845
 7148SOL    HW222023   5.058   0.540   9.671 -1.4445 -0.5944  0.1653
 7149SOL     OW22024   9.001   1.430   0.354  0.5829  0.1308 -0.0655
 7149SOL    HW122025   8.980   1.502   0.296  2.8397  0.3021 -0.7732
 7149SOL    HW222026   8.986   1.351   0.302  1.5656  0.2519 -0.5659
 7150SOL     OW22027   3.318   9.446   3.107  0.0346  0.2988  0.3453
 7150SOL    HW122028   3.305   9.535   3.140  0.3594  1.0643 -1.4443
 7150SOL    HW222029   3.370   9.458   3.027 -2.2186 -1.2387 -1.4619
 7151SOL     OW22030   3.998   8.489   3.941  0.7104  0.6670  0.7079
 7151SOL    HW122031   3.978   8.400   3.970  0.4099  0.5973  0.2940
 7151SOL    HW222032   3.973   8.544   4.014 -1.0230  0.5856  0.2128
 7152SOL     OW22033   0.986   7.072   9.537 -0.0726 -0.3821  0.0162
 7152SOL    HW122034   0.975   7.154   9.584  1.4406  0.1275 -0.4504
 7152SOL    HW222035   1.009   7.008   9.604 -0.3839 -0.2297  0.2694
 7153SOL     OW22036   3.430   3.558   1.550 -0.2886  0.0472  0.0653
 7153SOL    HW122037   3.469   3.627   1.497 -2.4063  2.4202  1.3491
 7153SOL    HW222038   3.497   3.490   1.556  1.4649  1.4417 -2.2510
 7154SOL     OW22039   3.357   6.687   5.864  0.0994 -0.3052  0.3769
 7154SOL    HW122040   3.280   6.670   5.917  0.7073  0.6701  1.5995
 7154SOL    HW222041   3.354   6.619   5.796 -2.1296  0.0630  0.0326
 7155SOL     OW22042   8.081   2.072   5.424  0.4643  0.3114  0.3373
 7155SOL    HW122043   8.042   2.045   5.507  0.6427  0.1345  0.3634
 7155SOL    HW222044   8.150   2.008   5.407 -0.3360 -0.3391 -0.5322
 7156SOL     OW22045   1.243   4.138   1.482  1.0149  0.6792 -0.1295
 7156SOL    HW122046   1.195   4.212   1.518  1.1370  0.3825  0.6549
 7156SOL    HW222047   1.179   4.092   1.428 -0.2339 -0.8551  2.4636
 7157SOL     OW22048   4.995   8.413   8.173  0.1732  0.4932 -0.0407
 7157SOL    HW122049   4.912   8.381   8.138  0.3580 -1.4939  1.1741
 7157SOL    HW222050   5.029   8.340   8.225  1.6748  1.9946  1.2034
 7158SOL     OW22051   5.858   4.959   0.031  0.2108  0.4337 -0.2916
 7158SOL    HW122052   5.909   4.925   0.104  0.3101  0.4647 -0.3464
 7158SOL    HW222053   5.909   5.032  -0.002  0.6478 -0.1744 -0.9994
 7159SOL     OW22054   8.228   5.080   7.151  0.2944  0.7261  0.3114
 7159SOL    HW122055   8.204   5.173   7.150  2.6606  1.3911 -0.5105
 7159SOL    HW222056   8.153   5.036   7.112 -0.3341  2.4628 -0.5625
 7160SOL     OW22057   8.473   5.655   7.338 -0.1683  0.2028  0.3255
 7160SOL    HW122058   8.402   5.631   7.397 -0.6103 -1.1171 -0.6838
 7160SOL    HW222059   8.474   5.750   7.338 -3.0557  0.3121 -0.9150
 7161SOL     OW22060   0.768   6.983   8.581 -0.2427  0.5167  0.2241
 7161SOL    HW122061   0.713   6.998   8.658 -0.3847 -2.3927  0.8134
 7161SOL    HW222062   0.831   6.916   8.609  1.7209  1.6162 -1.3185
 7162SOL     OW22063   7.833   4.594   3.326 -0.4526  0.6889 -0.5229
 7162SOL    HW122064   7.741   4.570   3.330 -0.2849  0.1600  1.3382
 7162SOL    HW222065   7.855   4.591   3.233 -2.0326 -0.2545 -0.9011
 7163SOL     OW22066   8.192   0.664   2.821 -0.6309  0.4160  0.4265
 7163SOL    HW122067   8.166   0.581   2.860  0.8339  0.0605  0.7171
 7163SOL    HW222068   8.286   0.654   2.804 -0.5326  1.8316  0.0096
 7164SOL     OW22069   5.499   5.978   4.768 -0.7154 -0.2901 -0.4465
 7164SOL    HW122070   5.465   5.909   4.712 -0.5770 -0.6211 -0.1219
 7164SOL    HW222071   5.475   6.059   4.723 -2.1232 -0.5028 -0.1246
 7165SOL     OW22072   8.598   8.084   9.825 -0.6287  0.0639  0.0197
 7165SOL    HW122073   8.611   7.990   9.808  1.0053  0.2869 -0.1064
 7165SOL    HW222074   8.597   8.124   9.738 -0.7534  0.2316  0.0975
 7166SOL     OW22075   0.084   1.639   4.630  0.4539 -0.5399  0.1407
 7166SOL    HW122076   0.158   1.586   4.600  0.3317 -1.1918  0.9566
 7166SOL    HW222077   0.121   1.726   4.646  1.1773 -1.0058  1.0917
 7167SOL     OW22078   0.404   2.183   8.786  0.1869  0.0870 -0.4256
 7167SOL    HW122079   0.457   2.172   8.864  0.6974 -0.8066 -0.8845
 7167SOL    HW222080   0.329   2.125   8.798 -0.5406  1.0982  0.0724
 7168SOL     OW22081   9.333   2.506   0.117  0.6316  0.3795  0.1103
 7168SOL    HW122082   9.325   2.601   0.124 -0.2577  0.3494 -0.3587
 7168SOL    HW222083   9.355   2.491   0.025  2.2358  0.1979  0.4896
 7169SOL     OW22084   6.144   6.679   9.382  0.0863  0.2449  0.1481
 7169SOL    HW122085   6.075   6.613   9.376  0.8136 -0.6583  1.1481
 7169SOL    HW222086   6.177   6.688   9.293 -0.4578 -0.2843 -0.1107
 7170SOL     OW22087   4.144   3.601   6.578 -0.2396  0.1194 -0.1940
 7170SOL    HW122088   4.058   3.572   6.546 -0.1664 -0.1793 -0.1163
 7170SOL    HW222089   4.202   3.526   6.564 -0.2099 -0.0309  0.6608
 7171SOL     OW22090   8.094   2.299   2.000  0.5792 -0.5484 -0.2606
 7171SOL    HW122091   8.094   2.251   1.917  2.4675 -1.4428  0.2080
 7171SOL    HW222092   8.081   2.232   2.066  1.6818 -0.2193  0.3116
 7172SOL     OW22093   7.151   1.072   0.948  0.2048  0.0861  0.1526
 7172SOL    HW122094   7.183   1.161   0.961  0.8605 -0.0988 -0.1618
 7172SOL    HW222095   7.056   1.078   0.960  0.2159  0.8741 -0.1291
 7173SOL     OW22096   7.478   5.724   8.138 -0.1644 -0.0677 -0.2644
 7173SOL    HW122097   7.536   5.751   8.066 -0.5528  1.4811 -0.0417
 7173SOL    HW222098   7.522   5.756   8.217  0.0381 -1.3674  0.1691
 7174SOL     OW22099   1.756   8.024   4.117  0.0142  0.0674  0.4218
 7174SOL    HW122100   1.800   8.039   4.034 -0.4068  1.1172  0.3686
 7174SOL    HW222101   1.738   8.112   4.151 -0.9795 -0.3393  0.9961
 7175SOL     OW22102   2.582   5.214   2.522 -0.2856  0.1342 -0.5282
 7175SOL    HW122103   2.493   5.181   2.531 -0.2313  0.3505  1.0334
 7175SOL    HW222104   2.580   5.269   2.443 -1.6473  0.5277 -0.2301
 7176SOL     OW22105   2.594   7.143   8.566 -0.1163  0.3200 -0.4606
 7176SOL    HW122106   2.689   7.150   8.576 -0.0529 -0.6125 -0.3519
 7176SOL    HW222107   2.579   7.054   8.535 -0.9294  0.6031 -0.9149
 7177SOL     OW22108   5.587   1.915   6.058  0.0398  0.1773  0.6583
 7177SOL    HW122109   5.655   1.855   6.029 -1.2632 -0.3128 -1.6133
 7177SOL    HW222110   5.575   1.976   5.985 -0.1646  1.9280  2.0602
 7178SOL     OW22111   5.600   2.345   3.849 -0.1934  0.4908 -0.2998
 7178SOL    HW122112   5.542   2.407   3.893 -0.4542 -0.6186  0.9886
 7178SOL    HW222113   5.638   2.293   3.921  0.6766 -0.2540 -1.2759
 7179SOL     OW22114   1.397   4.752   2.038  0.2805 -0.3485  0.4710
 7179SOL    HW122115   1.410   4.772   1.945 -0.6214  0.9674  0.5954
 7179SOL    HW222116   1.486   4.738   2.072  0.7957  1.1254 -0.1886
 7180SOL     OW22117   1.690   4.413   2.659  0.0404 -0.4607  0.3927
 7180SOL    HW122118   1.723   4.410   2.749  1.4472 -3.5893 -0.1070
 7180SOL    HW222119   1.739   4.483   2.617  1.3596 -0.7741  1.3720
 7181SOL     OW22120   5.241   9.282   8.404  0.1306  0.6938 -0.2326
 7181SOL    HW122121   5.255   9.337   8.481  0.3870  1.1576 -0.6085
 7181SOL    HW222122   5.235   9.193   8.439 -0.5969  0.9884  0.4122
 7182SOL     OW22123   2.792   5.139   4.241 -0.0496 -0.1774  0.1513
 7182SOL    HW122124   2.802   5.058   4.291 -1.1790  0.3198  1.2415
 7182SOL    HW222125   2.809   5.208   4.305 -1.2008  0.4727 -0.2152
 7183SOL     OW22126   7.437   0.762   8.476 -0.0187 -0.1774 -0.6847
 7183SOL    HW122127   7.518   0.713   8.461 -0.7004 -1.5308 -0.1285
 7183SOL    HW222128   7.434   0.775   8.571  0.1364  0.9580 -0.8184
 7184SOL     OW22129   6.724   9.652   4.607  0.0610 -0.9009 -0.1506
 7184SOL    HW122130   6.634   9.620   4.619 -0.3449  0.1940 -0.1619
 7184SOL    HW222131   6.714   9.746   4.590  0.9072 -1.3285 -3.8780
 7185SOL     OW22132   2.275   9.672   1.827 -0.1391  0.0113 -0.2539
 7185SOL    HW122133   2.258   9.656   1.734 -0.0347 -0.1674 -0.2424
 7185SOL    HW222134   2.370   9.674   1.835 -0.0965 -1.5373  0.0989
 7186SOL     OW22135   4.221   3.212   9.949 -0.3659  0.4610  0.4978
 7186SOL    HW122136   4.306   3.254   9.937 -1.2501  1.6696 -2.3272
 7186SOL    HW222137   4.230   3.126   9.908 -0.3096  0.2982  0.8473
 7187SOL     OW22138   4.576   5.671   4.034 -0.1776 -0.3784  0.5059
 7187SOL    HW122139   4.554   5.714   3.951  0.1496  0.4040  0.8131
 7187SOL    HW222140   4.499   5.619   4.056 -1.1522  1.1450  0.8167
 7188SOL     OW22141   8.955   8.262   9.461  0.3321 -0.0453  0.2492
 7188SOL    HW122142   8.970   8.348   9.501 -0.5051  0.6853 -0.9053
 7188SOL    HW222143   8.982   8.274   9.370  3.0766 -1.9175  0.7084
 7189SOL     OW22144   5.422   0.861   5.775  0.5061  0.8512 -0.0113
 7189SOL    HW122145   5.493   0.796   5.774  1.2076  1.5982 -0.4688
 7189SOL    HW222146   5.352   0.820   5.825  1.3047  0.1258  0.5317
 7190SOL     OW22147   0.254   5.067   1.246 -0.5884 -0.5261 -0.1057
 7190SOL    HW122148   0.204   5.008   1.190  1.4985 -0.9719 -1.6546
 7190SOL    HW222149   0.217   5.154   1.230 -2.4574 -1.1409  0.7349
 7191SOL     OW22150   0.175   9.211   2.651 -0.0211 -0.1827 -0.0290
 7191SOL    HW122151   0.106   9.206   2.584 -0.9763  0.1230  0.8945
 7191SOL    HW222152   0.187   9.120   2.678 -0.2470 -0.2087 -0.0110
 7192SOL     OW22153   9.195   1.777   0.311 -0.3947  0.2610 -0.2203
 7192SOL    HW122154   9.194   1.705   0.248  0.1087  1.3957 -1.5597
 7192SOL    HW222155   9.192   1.733   0.397  0.3028 -1.3641 -0.9803
 7193SOL     OW22156   1.872   9.311   7.390 -0.2690 -0.3749  0.2127
 7193SOL    HW122157   1.835   9.288   7.476  1.2879 -0.5374  0.8654
 7193SOL    HW222158   1.883   9.226   7.346  1.7403 -0.5956  1.0589
 7194SOL     OW22159   5.112   5.294   9.181 -0.3885 -0.3437 -0.0822
 7194SOL    HW122160   5.177   5.268   9.117 -0.3159 -0.3684  0.0011
 7194SOL    HW222161   5.123   5.389   9.190  1.7119 -0.7051  2.1640
 7195SOL     OW22162   0.509   9.604   7.408 -0.0177 -0.3219  0.5591
 7195SOL    HW122163   0.561   9.659   7.349 -2.6761 -0.2845 -1.9694
 7195SOL    HW222164   0.441   9.663   7.441 -0.9776 -1.3272  0.4011
 7196SOL     OW22165   6.695   8.449   0.972  0.2686  0.1344 -0.1500
 7196SOL    HW122166   6.611   8.478   0.937  0.0421 -0.1759  0.1328
 7196SOL    HW222167   6.760   8.504   0.927 -0.2119  1.8456  1.1362
 7197SOL     OW22168   7.722   5.420   7.366  0.0742  0.0617  0.8161
 7197SOL    HW122169   7.717   5.366   7.287  0.7177  0.7116  0.3112
 7197SOL    HW222170   7.678   5.502   7.341 -1.6297 -0.4952  1.8372
 7198SOL     OW22171   7.118   1.974   6.689 -0.1494  0.0353  0.0832
 7198SOL    HW122172   7.053   1.977   6.759 -1.3531  0.0318 -0.9871
 7198SOL    HW222173   7.135   1.881   6.675 -0.4037  0.0076 -0.0550
 7199SOL     OW22174   5.994   3.250   7.654 -0.2064 -0.2064 -0.1623
 7199SOL    HW122175   6.029   3.223   7.569  0.0846 -0.5765  0.0698
 7199SOL    HW222176   5.951   3.334   7.637  1.2767  0.5581 -0.3677
 7200SOL     OW22177   3.163   4.589   9.700 -0.2383  0.0221 -0.0262
 7200SOL    HW122178   3.142   4.500   9.730 -0.1916 -0.1524 -0.5091
 7200SOL    HW222179   3.094   4.644   9.738  0.6392  0.0358  1.6300
 7201SOL     OW22180   4.259   3.908   7.298 -0.3723  0.6992  0.1238
 7201SOL    HW122181   4.304   3.963   7.234  1.7001 -0.5702  0.3815
 7201SOL    HW222182   4.263   3.957   7.380 -1.8266  1.7344 -0.3991
 7202SOL     OW22183   8.675   0.368   5.901  1.0976  0.0517 -0.2719
 7202SOL    HW122184   8.754   0.393   5.853  0.2033 -0.6533 -2.2171
 7202SOL    HW222185   8.634   0.451   5.925  1.4592  0.4299 -0.9461
 7203SOL     OW22186   5.440   6.948   8.433 -0.6498  0.3250 -0.5676
 7203SOL    HW122187   5.528   6.926   8.401 -0.1595  1.2362  0.1237
 7203SOL    HW222188   5.429   7.040   8.410 -0.5796  0.7968  1.1782
 7204SOL     OW22189   5.471   3.066   7.273 -0.3815  0.0081 -0.0399
 7204SOL    HW122190   5.447   3.045   7.364 -0.3565  0.8546  0.1683
 7204SOL    HW222191   5.505   3.155   7.277 -1.0984  0.3431 -0.9980
 7205SOL     OW22192   8.840   5.411   6.971  0.5076  0.4060  0.5209
 7205SOL    HW122193   8.851   5.459   7.053 -0.8919 -1.4935  1.9196
 7205SOL    HW222194   8.747   5.389   6.968  0.7353 -0.5345 -1.0408
 7206SOL     OW22195   4.608   3.976   7.213  0.4579 -0.1766  0.1254
 7206SOL    HW122196   4.518   4.002   7.195  0.6469 -0.1487 -0.7884
 7206SOL    HW222197   4.660   4.055   7.195  0.7283 -0.3589  0.0965
 7207SOL     OW22198   5.148   1.275   2.984 -0.2007  0.2017 -0.0578
 7207SOL    HW122199   5.168   1.363   2.953 -1.4888 -0.3075 -2.4977
 7207SOL    HW222200   5.069   1.285   3.037 -0.6498  0.4520 -0.7682
 7208SOL     OW22201   2.884   3.503   0.497  0.0345 -0.5647 -0.1230
 7208SOL    HW122202   2.846   3.456   0.423 -0.3426 -0.4411 -0.0121
 7208SOL    HW222203   2.963   3.543   0.462  1.4294 -2.8157  0.2213
 7209SOL     OW22204   5.105   2.390   2.200  0.2361  0.1066  0.4619
 7209SOL    HW122205   5.079   2.400   2.292 -1.3548  1.3017 -0.0754
 7209SOL    HW222206   5.115   2.480   2.168 -0.0264 -0.2788 -0.7476
 7210SOL     OW22207   5.242   5.412   2.463  0.2962 -0.5004 -0.2706
 7210SOL    HW122208   5.233   5.468   2.540 -0.4759 -1.3659  0.2925
 7210SOL    HW222209   5.273   5.329   2.496 -0.6444 -1.0833 -0.7973
 7211SOL     OW22210   1.450   2.247   4.958 -0.5106  0.2333 -0.4730
 7211SOL    HW122211   1.388   2.281   4.894  2.0616  1.2491 -2.6111
 7211SOL    HW222212   1.536   2.268   4.922  1.1361  0.8464  3.3372
 7212SOL     OW22213   2.262   3.680   0.877 -0.1277  0.5448  0.6501
 7212SOL    HW122214   2.224   3.715   0.957  0.7719  0.0276  1.3146
 7212SOL    HW222215   2.284   3.589   0.899 -1.9004 -0.3239 -0.8486
 7213SOL     OW22216   2.451   4.891   7.813  0.6385  0.1672 -0.5317
 7213SOL    HW122217   2.358   4.912   7.822  1.0560  1.6730  0.8107
 7213SOL    HW222218   2.480   4.943   7.739  0.8172  1.3324  0.3267
 7214SOL     OW22219   5.172   2.408   8.208  0.2542 -0.0952 -0.2685
 7214SOL    HW122220   5.166   2.414   8.113 -1.1039 -2.3676 -0.3770
 7214SOL    HW222221   5.265   2.395   8.225  0.6740  1.4296 -1.1553
 7215SOL     OW22222   8.503   6.290   0.173 -0.0447  0.0918 -0.1852
 7215SOL    HW122223   8.572   6.230   0.201 -0.3513  0.1045  0.6564
 7215SOL    HW222224   8.494   6.352   0.246  0.0894  1.0060 -0.9217
 7216SOL     OW22225   7.343   7.625   9.752  0.2436 -0.4834 -0.0870
 7216SOL    HW122226   7.351   7.531   9.769 -1.3176 -0.8553 -1.1056
 7216SOL    HW222227   7.387   7.637   9.668  2.6648  0.2144  1.2046
 7217SOL     OW22228   6.358   5.191   1.210 -0.1355  0.2774  0.0179
 7217SOL    HW122229   6.342   5.115   1.155  0.3300  1.1631 -1.4006
 7217SOL    HW222230   6.323   5.265   1.161 -1.4303  0.9082  1.7781
 7218SOL     OW22231   1.045   5.358   3.438 -0.3383  0.7224 -0.4872
 7218SOL    HW122232   1.127   5.401   3.414 -0.1736  1.2084  0.8551
 7218SOL    HW222233   1.005   5.417   3.503 -1.9926  0.7437 -1.4552
 7219SOL     OW22234   3.772   0.176   2.098 -0.1807 -0.3395 -0.3887
 7219SOL    HW122235   3.682   0.171   2.066 -0.6421 -3.6097  1.0494
 7219SOL    HW222236   3.821   0.115   2.043  0.0895 -2.0874  1.6586
 7220SOL     OW22237   8.214   2.661   5.359  0.1492 -0.4081 -0.2243
 7220SOL    HW122238   8.131   2.651   5.311  0.8800  2.8590 -2.5510
 7220SOL    HW222239   8.195   2.727   5.425  0.6618 -0.2972 -0.1832
 7221SOL     OW22240   7.854   4.264   1.638  0.0589 -0.6172  0.4421
 7221SOL    HW122241   7.769   4.285   1.677  0.1429  0.8511 -0.1233
 7221SOL    HW222242   7.853   4.169   1.630 -1.7369 -0.6002 -0.0114
 7222SOL     OW22243   3.735   8.363   7.021 -0.0444 -0.0759 -0.2699
 7222SOL    HW122244   3.811   8.323   6.981 -0.2416 -1.5788  0.7837
 7222SOL    HW222245   3.770   8.426   7.084  0.3176 -0.5463 -0.0044
 7223SOL     OW22246   7.720   7.333   5.472  0.0887  0.1885  0.1375
 7223SOL    HW122247   7.644   7.334   5.415 -0.1582 -2.0727  0.3282
 7223SOL    HW222248   7.695   7.277   5.545  1.7569 -0.2385  0.4363
 7224SOL     OW22249   1.666   5.404   4.866 -0.2184  0.4933 -0.0437
 7224SOL    HW122250   1.753   5.366   4.853  0.1528  0.4322  2.1347
 7224SOL    HW222251   1.658   5.412   4.962 -2.5972  0.5394 -0.1981
 7225SOL     OW22252   2.403   1.724   6.917 -0.3794 -0.5045  0.0231
 7225SOL    HW122253   2.463   1.674   6.862 -1.7854 -1.5868 -0.5687
 7225SOL    HW222254   2.422   1.695   7.006 -0.0500 -0.8611 -0.1628
 7226SOL     OW22255   2.508   1.229   6.903 -0.6093 -0.3835 -0.3140
 7226SOL    HW122256   2.591   1.222   6.857 -0.5764  3.5085 -1.1959
 7226SOL    HW222257   2.531   1.253   6.992 -0.7998 -1.4239  0.0301
 7227SOL     OW22258   1.533   7.201   0.678  0.6353 -0.0645 -0.2251
 7227SOL    HW122259   1.549   7.107   0.671  0.2630 -0.1908  0.4480
 7227SOL    HW222260   1.528   7.232   0.588 -0.2248 -0.8656 -0.4702
 7228SOL     OW22261   9.108   4.157   5.107 -0.9160  0.1752  0.2586
 7228SOL    HW122262   9.188   4.206   5.087 -1.1691  1.6992  2.6129
 7228SOL    HW222263   9.094   4.102   5.030  1.8482  0.5594 -0.6369
 7229SOL     OW22264   5.789   5.972   3.945 -0.1211  0.0723 -0.2680
 7229SOL    HW122265   5.729   5.922   3.890  1.2713 -0.8494 -1.0052
 7229SOL    HW222266   5.737   5.996   4.022 -1.6418 -0.0066 -1.2314
 7230SOL     OW22267   9.321   4.804   0.608 -0.1829 -0.2312 -0.5433
 7230SOL    HW122268   9.393   4.745   0.632 -0.0786 -0.5406 -1.5849
 7230SOL    HW222269   9.250   4.745   0.582 -0.6516  0.0837 -0.0169
 7231SOL     OW22270   6.088   6.238   8.182 -0.3008 -0.1118 -0.6305
 7231SOL    HW122271   6.174   6.243   8.224 -1.2513  1.7135  1.2974
 7231SOL    HW222272   6.059   6.148   8.197  0.7280 -0.3861 -0.1726
 7232SOL     OW22273   3.875   7.392   5.115 -0.4989 -0.4237 -0.0248
 7232SOL    HW122274   3.955   7.441   5.094 -1.5716  0.5544 -2.1589
 7232SOL    HW222275   3.806   7.437   5.067 -2.4362 -1.0599  1.9701
 7233SOL     OW22276   6.069   8.054   3.706  0.2310 -0.8611 -0.0472
 7233SOL    HW122277   6.094   8.016   3.622  0.5446 -1.6726  0.4000
 7233SOL    HW222278   6.120   8.005   3.771  0.1672 -0.0953  0.6011
 7234SOL     OW22279   7.672   4.685   4.493 -0.1207  0.0214 -0.0846
 7234SOL    HW122280   7.586   4.645   4.478 -0.2870  0.5256 -0.4790
 7234SOL    HW222281   7.734   4.624   4.453 -0.3702  0.1205 -0.6378
 7235SOL     OW22282   1.815   5.819   4.343  0.0383  0.0584  0.7654
 7235SOL    HW122283   1.740   5.873   4.321  1.3675  0.4957 -3.7508
 7235SOL    HW222284   1.877   5.879   4.384 -0.0450  1.0765 -0.5334
 7236SOL     OW22285   7.757   4.164   3.223  0.1289  0.3451 -0.0476
 7236SOL    HW122286   7.791   4.076   3.203  0.9146  1.0252 -1.9097
 7236SOL    HW222287   7.810   4.193   3.298  0.8453 -0.2212 -0.3186
 7237SOL     OW22288   5.154   0.054   5.257 -0.2777 -0.1125  0.1867
 7237SOL    HW122289   5.183  -0.022   5.308  1.3421  1.2777  1.4305
 7237SOL    HW222290   5.066   0.073   5.291 -0.6590 -1.3466 -0.0730
 7238SOL     OW22291   5.040   5.812   9.908  0.2184  0.1467 -0.3222
 7238SOL    HW122292   5.058   5.903   9.886  1.0737  0.1354  0.3299
 7238SOL    HW222293   5.094   5.762   9.846 -0.6533  0.0563 -1.0403
 7239SOL     OW22294   4.036   4.973   3.126 -0.9814 -0.2756 -0.4389
 7239SOL    HW122295   4.126   5.004   3.135 -0.7750 -0.5750 -1.4054
 7239SOL    HW222296   4.016   4.933   3.211  0.0045 -0.7362 -0.4148
 7240SOL     OW22297   6.212   6.416   1.286 -0.0141 -0.0843  0.2246
 7240SOL    HW122298   6.209   6.431   1.380  1.9331  0.5881  0.2114
 7240SOL    HW222299   6.167   6.491   1.248 -0.3664 -0.1090  0.5818
 7241SOL     OW22300   5.430   4.526   7.614 -0.4071 -1.2449 -0.6637
 7241SOL    HW122301   5.339   4.525   7.582 -1.0701 -0.0029  1.0164
 7241SOL    HW222302   5.476   4.585   7.554 -1.2983 -0.0096 -0.1791
 7242SOL     OW22303   2.368   0.149   7.693  0.3624 -0.0057 -0.1650
 7242SOL    HW122304   2.378   0.084   7.763  0.3998  0.0998 -0.0725
 7242SOL    HW222305   2.422   0.222   7.720  1.8414 -0.6761 -1.1714
 7243SOL     OW22306   9.147   7.355   9.684 -0.4240  0.2838 -0.1254
 7243SOL    HW122307   9.162   7.364   9.589 -1.7104 -1.7244 -0.5894
 7243SOL    HW222308   9.071   7.409   9.701  0.1378  1.0815 -0.1260
 7244SOL     OW22309   1.373   4.714   5.243 -0.0870 -0.2843 -0.4598
 7244SOL    HW122310   1.459   4.700   5.283 -0.2482 -3.5542 -0.9425
 7244SOL    HW222311   1.388   4.699   5.149 -0.8084  1.2618 -0.8440
 7245SOL     OW22312   6.001   3.935   5.732  0.0293 -0.3713  0.4334
 7245SOL    HW122313   6.082   3.987   5.728  1.0588 -1.8597  1.2324
 7245SOL    HW222314   5.936   3.990   5.688  1.2930  1.1731  0.3913
 7246SOL     OW22315   0.372   3.477   5.669  0.1887 -0.1977 -0.0501
 7246SOL    HW122316   0.434   3.492   5.741 -0.0251  0.2040  0.0501
 7246SOL    HW222317   0.295   3.530   5.692  0.7099  1.1579 -1.3493
 7247SOL     OW22318   7.329   1.083   9.089 -0.2238  0.4512 -0.4068
 7247SOL    HW122319   7.397   1.038   9.038  0.7705  2.9981 -1.5063
 7247SOL    HW222320   7.252   1.083   9.031 -0.4359 -0.3448 -0.1387
 7248SOL     OW22321   8.769   2.258   2.885 -0.0099 -0.2582 -0.5990
 7248SOL    HW122322   8.790   2.252   2.792  1.1640  2.8907 -0.6862
 7248SOL    HW222323   8.695   2.319   2.889  2.3407  2.7570  0.5743
 7249SOL     OW22324   3.372   3.643   3.647 -0.1415  0.1753 -0.2241
 7249SOL    HW122325   3.336   3.633   3.736  0.0265 -0.2545 -0.2034
 7249SOL    HW222326   3.325   3.718   3.611  1.4959  1.9629  1.1065
 7250SOL     OW22327   3.728   4.856   9.070 -0.3769 -0.4166  0.2019
 7250SOL    HW122328   3.692   4.922   9.011 -3.2887 -0.4639  1.7391
 7250SOL    HW222329   3.709   4.772   9.028  0.6410 -0.3877 -0.3475
 7251SOL     OW22330   2.194   6.718   3.364 -0.1842 -0.1160 -0.3129
 7251SOL    HW122331   2.209   6.652   3.296 -2.3065 -0.9663 -0.0476
 7251SOL    HW222332   2.100   6.736   3.358  0.1353  2.0632  0.4012
 7252SOL     OW22333   1.222   9.167   9.657  0.2375  0.0611 -0.3682
 7252SOL    HW122334   1.218   9.145   9.750 -0.0434  0.4062 -0.2934
 7252SOL    HW222335   1.306   9.132   9.627  1.1662  1.4959  0.4212
 7253SOL     OW22336   6.881   6.730   2.301  0.0802  0.2448  0.4784
 7253SOL    HW122337   6.794   6.690   2.297 -0.1232  0.7971 -1.3016
 7253SOL    HW222338   6.864   6.823   2.313  0.4074  0.3791 -0.0658
 7254SOL     OW22339   7.908   0.945   5.838  0.3877  0.0908 -0.0195
 7254SOL    HW122340   7.949   0.960   5.923  0.3884  0.1363 -0.0280
 7254SOL    HW222341   7.895   0.850   5.834 -2.3267  0.2881  1.3335
 7255SOL     OW22342   5.071   0.950   1.939  0.7710 -0.2157  0.4327
 7255SOL    HW122343   5.051   0.903   2.020 -0.3637 -0.0644  0.2534
 7255SOL    HW222344   5.004   1.017   1.933  0.5665 -0.5146 -0.8589
 7256SOL     OW22345   1.647   9.783   8.641  0.4175  0.2885  0.4151
 7256SOL    HW122346   1.729   9.826   8.665  0.6706 -0.1873  0.4289
 7256SOL    HW222347   1.673   9.694   8.618 -0.1196  0.0785  0.5943
 7257SOL     OW22348   9.864   0.494   0.542  0.0912  0.1046  0.9874
 7257SOL    HW122349   9.830   0.532   0.623 -0.5895  1.6255  0.0135
 7257SOL    HW222350   9.900   0.568   0.493 -1.3404 -0.4183 -1.0010
 7258SOL     OW22351   1.086   5.101   1.836  0.2132  0.0229 -0.2396
 7258SOL    HW122352   1.168   5.067   1.801  0.0506  0.0153 -0.6196
 7258SOL    HW222353   1.068   5.178   1.783 -1.2040 -1.2537 -1.7396
 7259SOL     OW22354   7.461   3.274   7.490 -0.7682 -0.1126  0.3790
 7259SOL    HW122355   7.534   3.213   7.500  0.6786  1.4693  0.0662
 7259SOL    HW222356   7.410   3.239   7.417 -0.1666 -1.1160  0.4220
 7260SOL     OW22357   4.841   4.717   1.560  0.4030 -0.2589 -0.3138
 7260SOL    HW122358   4.752   4.687   1.545  0.5576 -0.6761 -0.3944
 7260SOL    HW222359   4.833   4.812   1.568 -0.1634 -0.3676  0.5084
 7261SOL     OW22360   2.534   4.411   4.635  0.0723 -0.1158  0.3124
 7261SOL    HW122361   2.625   4.439   4.643 -0.2359  2.1636 -2.4037
 7261SOL    HW222362   2.484   4.493   4.625 -2.7251 -1.0747  4.0771
 7262SOL     OW22363   2.257   9.863   6.182 -0.1515 -0.4440  0.2184
 7262SOL    HW122364   2.240   9.953   6.211  1.2460  0.2123 -0.9028
 7262SOL    HW222365   2.318   9.828   6.247 -0.2243 -0.3787  0.3221
 7263SOL     OW22366   8.426   5.751   7.763 -0.0651  0.4846 -0.4297
 7263SOL    HW122367   8.393   5.741   7.852 -1.5591  0.1926 -0.9892
 7263SOL    HW222368   8.510   5.796   7.773  0.0159  0.0373  1.1481
 7264SOL     OW22369   2.696   9.082   6.777  0.5504  0.3323 -0.5892
 7264SOL    HW122370   2.606   9.083   6.810  1.0120 -0.2703  0.7942
 7264SOL    HW222371   2.712   9.170   6.745 -0.8089  0.2143 -1.6731
 7265SOL     OW22372   1.041   2.598   1.903  0.5609  0.0343  0.6186
 7265SOL    HW122373   0.966   2.654   1.923 -0.8943 -1.5180 -0.2058
 7265SOL    HW222374   1.030   2.522   1.961 -0.7908 -2.0353 -2.1057
 7266SOL     OW22375   4.254   1.840   1.782 -0.3717  0.2030 -0.0563
 7266SOL    HW122376   4.300   1.783   1.722 -0.0135 -1.0289  1.3272
 7266SOL    HW222377   4.179   1.872   1.732 -0.6972 -1.6466 -0.8336
 7267SOL     OW22378   3.078   0.547   0.045 -0.1709 -0.7913  0.3895
 7267SOL    HW122379   3.040   0.611   0.106 -1.8772 -2.8350  1.6617
 7267SOL    HW222380   3.158   0.518   0.088 -1.2505 -2.0569  1.6722
 7268SOL     OW22381   1.217   0.440   0.298 -0.6552  0.2835  0.1373
 7268SOL    HW122382   1.124   0.454   0.283 -0.8548  1.3747  2.0543
 7268SOL    HW222383   1.236   0.488   0.379  1.1649 -1.4835  0.8552
 7269SOL     OW22384   2.056   6.145   8.401  1.0919  0.0227  0.4277
 7269SOL    HW122385   1.992   6.215   8.390  0.3548 -0.8549 -1.1598
 7269SOL    HW222386   2.029   6.100   8.481  0.6423  0.5641  0.5887
 7270SOL     OW22387   6.790   5.693   8.690  0.2615 -0.4374 -0.2454
 7270SOL    HW122388   6.790   5.713   8.597 -1.6708  1.6016  0.1002
 7270SOL    HW222389   6.874   5.727   8.722 -0.1880  1.3836 -0.8444
 7271SOL     OW22390   4.032   7.355   2.314 -0.0613  0.4181  0.3302
 7271SOL    HW122391   4.030   7.301   2.393 -0.0492  0.7215  0.5371
 7271SOL    HW222392   3.942   7.388   2.305 -0.2080 -0.0785 -0.1045
 7272SOL     OW22393   5.857   5.341   1.063  0.4690  0.1788 -0.2355
 7272SOL    HW122394   5.890   5.409   1.123 -1.2494  1.9239 -1.1546
 7272SOL    HW222395   5.901   5.359   0.980  0.4457 -0.2332 -0.3383
 7273SOL     OW22396   5.994   9.785   5.291  0.6804 -0.4723  0.3506
 7273SOL    HW122397   5.936   9.853   5.323 -0.5967 -0.0648 -2.4820
 7273SOL    HW222398   5.948   9.703   5.310  0.3005 -0.2947  0.2042
 7274SOL     OW22399   4.879   2.502   9.263 -0.5883 -0.1427  0.1336
 7274SOL    HW122400   4.918   2.450   9.333  0.9877 -2.8677 -2.5367
 7274SOL    HW222401   4.954   2.543   9.219 -1.4794  1.1325 -0.2508
 7275SOL     OW22402   3.953   8.594   2.056  0.6083  0.3178  0.0948
 7275SOL    HW122403   3.881   8.615   1.996 -0.6336 -0.8605  1.0924
 7275SOL    HW222404   4.032   8.605   2.003 -0.3499  0.7513 -1.3234
 7276SOL     OW22405   6.140   8.794   7.511 -0.1706  0.3353 -0.5334
 7276SOL    HW122406   6.104   8.817   7.425 -0.1390 -0.5826 -0.8059
 7276SOL    HW222407   6.209   8.730   7.492  1.0410  1.4418  0.0550
 7277SOL     OW22408   9.531   7.952   7.340 -0.2963  0.0652  0.4050
 7277SOL    HW122409   9.536   7.858   7.357 -1.4172 -0.0493  0.1770
 7277SOL    HW222410   9.571   7.992   7.417 -0.4095 -0.5833  0.8105
 7278SOL     OW22411   4.529   9.400   7.233  0.0133 -0.5117  0.5761
 7278SOL    HW122412   4.617   9.426   7.262 -0.9994  2.6690  1.1325
 7278SOL    HW222413   4.470   9.463   7.274 -2.3663 -1.2900 -1.3879
 7279SOL     OW22414   6.468   1.044   9.202 -0.2222  0.2298  0.0939
 7279SOL    HW122415   6.563   1.061   9.199 -0.1390 -0.3071 -0.8993
 7279SOL    HW222416   6.435   1.081   9.120 -0.6411 -0.8990 -0.2600
 7280SOL     OW22417   1.080   0.528   8.956  0.1845 -0.4040 -0.3419
 7280SOL    HW122418   1.102   0.460   9.021  2.5280  0.9922  0.4650
 7280SOL    HW222419   1.080   0.482   8.872  0.2059 -1.6681  0.3260
 7281SOL     OW22420   2.380   6.049   1.004  0.1580 -0.1752  0.1424
 7281SOL    HW122421   2.394   6.096   1.086 -1.0707  0.2993  0.1033
 7281SOL    HW222422   2.357   5.960   1.030 -0.3522  0.0075  0.3289
 7282SOL     OW22423   9.012   4.586   8.838 -0.0176  0.0889  0.1534
 7282SOL    HW122424   8.958   4.663   8.856  0.5266  0.5986 -0.3835
 7282SOL    HW222425   8.992   4.526   8.910 -0.0560  0.9356  0.8607
 7283SOL     OW22426   8.441   7.914   4.318  0.0775  0.6167  0.7292
 7283SOL    HW122427   8.457   7.987   4.258 -0.3585  0.0437 -0.1207
 7283SOL    HW222428   8.370   7.864   4.276  1.6307 -1.3639  0.2555
 7284SOL     OW22429   0.310   6.068   7.147  0.2171 -0.5922  0.0312
 7284SOL    HW122430   0.319   6.153   7.191  0.6870  0.2568 -1.6375
 7284SOL    HW222431   0.289   6.007   7.218 -0.5368  0.9739  1.2259
 7285SOL     OW22432   7.140   9.616   4.440 -0.6502 -0.4892  0.1707
 7285SOL    HW122433   7.046   9.612   4.421 -0.5580  0.0247 -0.4124
 7285SOL    HW222434   7.156   9.707   4.464 -0.5278 -0.8435  1.5286
 7286SOL     OW22435   2.422   9.741   6.360 -0.1932 -0.0728 -0.5806
 7286SOL    HW122436   2.462   9.723   6.445 -0.4266  0.6743 -0.3023
 7286SOL    HW222437   2.377   9.660   6.336 -0.5206 -0.1386  0.2345
 7287SOL     OW22438   6.979   1.867   5.912 -0.1225  0.3740  0.4138
 7287SOL    HW122439   6.905   1.838   5.859 -0.0800  0.0343  0.5386
 7287SOL    HW222440   6.965   1.961   5.922 -0.2465  0.4055 -0.0158
 7288SOL     OW22441   5.921   5.558   9.629 -0.2721  0.1447 -0.0130
 7288SOL    HW122442   5.970   5.476   9.625  0.1527  0.1986  2.4872
 7288SOL    HW222443   5.964   5.608   9.699 -0.3858  2.6195 -1.5726
 7289SOL     OW22444   4.287   7.672   7.120  0.6562  0.1439  0.0125
 7289SOL    HW122445   4.303   7.685   7.027  0.9694  2.4962  0.3363
 7289SOL    HW222446   4.361   7.715   7.163  1.6854 -2.7555  1.3743
 7290SOL     OW22447   0.552   0.298   1.957 -0.4622  0.2139 -0.1845
 7290SOL    HW122448   0.624   0.243   1.924  1.0705 -0.2889  3.5055
 7290SOL    HW222449   0.591   0.384   1.969 -0.6430  0.1066  1.2514
 7291SOL     OW22450   6.755   6.105   2.621  0.3321 -0.3720  0.3264
 7291SOL    HW122451   6.814   6.069   2.555 -0.3917  0.5908 -0.8709
 7291SOL    HW222452   6.775   6.198   2.624 -0.2109 -0.2646  0.8823
 7292SOL     OW22453   7.660   6.170   9.802 -0.7269 -0.0459  0.4777
 7292SOL    HW122454   7.608   6.130   9.733  0.6704  0.3450 -0.8378
 7292SOL    HW222455   7.622   6.258   9.813 -1.3977 -0.3606  0.7280
 7293SOL     OW22456   6.153   1.023   2.372  0.3090 -0.2701 -0.2573
 7293SOL    HW122457   6.074   1.026   2.318  0.6356 -0.6145 -0.7578
 7293SOL    HW222458   6.144   0.943   2.423  0.6724 -0.6976 -0.8470
 7294SOL     OW22459   0.909   3.458   3.069  0.1467  0.2688 -0.7103
 7294SOL    HW122460   0.820   3.457   3.036 -0.1049 -0.0419 -0.0367
 7294SOL    HW222461   0.921   3.546   3.105 -0.2415 -0.0201  0.1347
 7295SOL     OW22462   4.971   5.957   9.505 -0.0426  0.3111 -0.4777
 7295SOL    HW122463   4.902   6.023   9.504  0.3853  0.7893  0.3275
 7295SOL    HW222464   5.046   6.001   9.546  0.5744 -0.3557 -0.8599
 7296SOL     OW22465   6.223   4.797   4.694 -0.1841  0.0146 -0.8517
 7296SOL    HW122466   6.199   4.730   4.630  1.0180  0.8054 -2.2044
 7296SOL    HW222467   6.252   4.748   4.771 -2.2104 -0.9591 -0.6533
 7297SOL     OW22468   2.260   0.925   0.962  0.0297 -0.1855  0.1313
 7297SOL    HW122469   2.208   0.846   0.977 -0.5951  0.3094  0.6111
 7297SOL    HW222470   2.217   0.993   1.014  0.8883  0.3447  0.1668
 7298SOL     OW22471   1.300   1.737   5.230 -0.7110  0.1939 -0.0186
 7298SOL    HW122472   1.369   1.778   5.178  0.0788 -1.5285 -0.4153
 7298SOL    HW222473   1.227   1.799   5.227  0.4004  1.5194 -0.5864
 7299SOL     OW22474   1.917   0.003   2.212 -0.4087 -0.3829 -0.4198
 7299SOL    HW122475   1.906   0.078   2.153 -0.9220  0.4257  0.6656
 7299SOL    HW222476   1.834  -0.003   2.259  1.0896  1.2464  2.7626
 7300SOL     OW22477   4.785   0.376   8.733  0.2713  0.3634  0.1288
 7300SOL    HW122478   4.696   0.408   8.741  0.7650  1.8030  0.1523
 7300SOL    HW222479   4.809   0.348   8.821 -0.8190 -1.9819 -0.2537
 7301SOL     OW22480   1.932   2.744   1.375  0.1758  0.2646  1.0854
 7301SOL    HW122481   1.970   2.770   1.291 -0.3182 -1.2476  0.3544
 7301SOL    HW222482   2.006   2.719   1.429  0.3646 -2.5976 -0.2989
 7302SOL     OW22483   3.834   0.471   3.549 -0.2411  0.4326  0.3300
 7302SOL    HW122484   3.756   0.459   3.495 -0.2023 -2.2027  0.7259
 7302SOL    HW222485   3.902   0.421   3.504  0.8604  1.5076  0.7515
 7303SOL     OW22486   1.434   1.907   1.785 -0.0405 -0.5227 -0.2535
 7303SOL    HW122487   1.392   1.853   1.851  1.1109 -0.2364  0.7391
 7303SOL    HW222488   1.459   1.846   1.716 -0.0623 -1.0318  0.1884
 7304SOL     OW22489   8.977   7.209   4.469  0.1465 -0.3507 -0.3278
 7304SOL    HW122490   8.934   7.280   4.421  0.6214  0.0318 -0.1888
 7304SOL    HW222491   9.040   7.173   4.407 -0.7824 -1.3171 -0.7449
 7305SOL     OW22492   8.341   7.304   7.314  0.2467 -0.0269  0.1262
 7305SOL    HW122493   8.313   7.243   7.382 -1.2199 -1.7557 -1.8915
 7305SOL    HW222494   8.436   7.292   7.309  0.6133  1.1222  2.6534
 7306SOL     OW22495   9.522   1.496   2.872 -0.0283 -0.2466  0.2256
 7306SOL    HW122496   9.516   1.497   2.967  0.6568 -0.7345  0.2778
 7306SOL    HW222497   9.611   1.523   2.853 -0.5423  1.1397 -0.3346
 7307SOL     OW22498   6.621   1.081   8.090  0.1006 -0.0144  0.2833
 7307SOL    HW122499   6.564   1.058   8.017  0.4409  0.8647 -0.2813
 7307SOL    HW222500   6.605   1.014   8.156  0.0407 -1.0188 -0.7336
 7308SOL     OW22501   5.973   1.018   3.182  0.4574 -0.2696  0.0529
 7308SOL    HW122502   5.930   0.963   3.117  0.6686 -0.4452  0.0611
 7308SOL    HW222503   5.982   0.962   3.258  0.5624 -0.1838  0.1029
 7309SOL     OW22504   9.834   3.550   0.289  0.2184 -0.0666  0.6156
 7309SOL    HW122505   9.745   3.550   0.253 -0.2402 -1.6420  1.6499
 7309SOL    HW222506   9.888   3.512   0.220 -0.5312 -2.4018  1.2193
 7310SOL     OW22507   7.369   0.047   3.447  0.1393 -0.2152 -0.1750
 7310SOL    HW122508   7.341   0.096   3.524 -0.4079 -0.9573  0.1057
 7310SOL    HW222509   7.315  -0.032   3.447  0.8303 -0.7067 -0.7533
 7311SOL     OW22510   7.058   7.185   4.676  0.3970 -0.6266 -0.6851
 7311SOL    HW122511   6.985   7.221   4.625 -2.4088 -0.1711  3.1778
 7311SOL    HW222512   7.066   7.244   4.751  1.6989 -3.1758  1.3255
 7312SOL     OW22513   1.268   5.342   7.312  0.3923  0.0713  0.3530
 7312SOL    HW122514   1.262   5.289   7.233  1.5179  0.7963 -0.2412
 7312SOL    HW222515   1.181   5.336   7.352  0.6710 -2.7564  0.6872
 7313SOL     OW22516   9.128   8.805   3.639 -0.5134  0.0943  0.0700
 7313SOL    HW122517   9.069   8.836   3.708  1.0834  1.8256  0.7446
 7313SOL    HW222518   9.156   8.718   3.670  0.0640  0.7758  1.5783
 7314SOL     OW22519   9.613   3.048   5.713  0.2370 -0.2056 -0.1111
 7314SOL    HW122520   9.598   3.118   5.776  0.5246 -0.0782 -0.1818
 7314SOL    HW222521   9.646   3.092   5.635  0.6010 -0.4358 -0.0900
 7315SOL     OW22522   4.238   9.597   7.175  0.1122 -0.1136  0.1325
 7315SOL    HW122523   4.312   9.648   7.142  0.3728 -1.5190 -1.5968
 7315SOL    HW222524   4.187   9.660   7.225  1.3707  1.3965 -0.3772
 7316SOL     OW22525   5.575   5.648   4.182  0.8644  0.0892  0.2158
 7316SOL    HW122526   5.569   5.556   4.157 -0.8517  0.5369 -1.2331
 7316SOL    HW222527   5.594   5.694   4.100 -0.0096  1.1657  0.5865
 7317SOL     OW22528   9.593   5.111   2.380 -0.1378 -0.1674 -0.1189
 7317SOL    HW122529   9.569   5.021   2.401 -1.4612  0.1255 -0.2379
 7317SOL    HW222530   9.688   5.110   2.371 -0.0953 -1.4530  0.3212
 7318SOL     OW22531   8.242   1.760   8.442  0.4873 -0.5531  0.3282
 7318SOL    HW122532   8.229   1.718   8.357 -2.7939 -0.9760  0.8987
 7318SOL    HW222533   8.216   1.851   8.428  1.6683 -0.1718  0.5140
 7319SOL     OW22534   5.928   8.892   2.670  0.0673 -0.0984 -0.1722
 7319SOL    HW122535   5.926   8.955   2.598  1.2371 -0.1052 -0.2246
 7319SOL    HW222536   5.962   8.812   2.631  1.0373 -0.0008  0.4544
 7320SOL     OW22537   1.617   4.865   9.451 -0.0534 -0.3198 -0.2723
 7320SOL    HW122538   1.636   4.944   9.401  0.0972 -0.3379 -0.2459
 7320SOL    HW222539   1.700   4.845   9.495 -0.7656  1.0148  1.8328
 7321SOL     OW22540   9.526   3.903   8.404  0.7014  0.1667  0.6143
 7321SOL    HW122541   9.474   3.982   8.419 -0.6722 -0.4881 -0.3875
 7321SOL    HW222542   9.575   3.921   8.324  1.3257  0.4399  1.0516
 7322SOL     OW22543   1.307   7.996   0.229  0.2967 -0.2520 -0.2364
 7322SOL    HW122544   1.341   8.063   0.169 -0.1001 -2.1480 -2.7276
 7322SOL    HW222545   1.287   8.044   0.309 -0.4255  2.7194 -2.0386
 7323SOL     OW22546   3.503   2.729   6.328 -0.1633 -0.2897 -0.1972
 7323SOL    HW122547   3.581   2.675   6.344 -0.2784 -0.3256  0.2530
 7323SOL    HW222548   3.466   2.693   6.247 -0.8918 -1.6676  0.7168
 7324SOL     OW22549   2.692   6.906   1.333 -0.3871 -0.5607  0.1843
 7324SOL    HW122550   2.675   6.967   1.404  1.4413  0.2512 -0.0290
 7324SOL    HW222551   2.785   6.885   1.341 -0.5168 -1.7165 -1.0008
 7325SOL     OW22552   8.786   1.410   4.360 -0.2943 -0.1755 -0.1383
 7325SOL    HW122553   8.805   1.320   4.388 -0.8785 -0.3808 -0.3956
 7325SOL    HW222554   8.703   1.431   4.402 -0.9294 -0.3018 -1.3008
 7326SOL     OW22555   2.940   6.692   0.067 -0.0456  0.5979  0.0582
 7326SOL    HW122556   2.870   6.756   0.055 -0.7094 -0.1600 -0.2280
 7326SOL    HW222557   2.900   6.609   0.042  0.4331 -0.1184  1.5724
 7327SOL     OW22558   2.254   8.607   6.063  0.2597  0.3405  0.2669
 7327SOL    HW122559   2.347   8.586   6.062 -0.1545 -1.8153  1.4896
 7327SOL    HW222560   2.226   8.587   6.153 -1.7390 -0.9232 -0.5728
 7328SOL     OW22561   7.832   0.609   1.861  0.3763  0.7363 -0.4202
 7328SOL    HW122562   7.751   0.604   1.810 -0.8226  2.6391  1.1343
 7328SOL    HW222563   7.887   0.671   1.813  1.1673 -0.9320 -1.7405
 7329SOL     OW22564   7.686   7.360   7.604 -0.4685 -0.2346 -0.1927
 7329SOL    HW122565   7.708   7.426   7.538 -0.3274  0.1564  0.2386
 7329SOL    HW222566   7.664   7.411   7.682 -0.0840 -0.7046  0.2278
 7330SOL     OW22567   5.967   7.125   8.527 -0.1233 -0.3126 -0.3868
 7330SOL    HW122568   5.956   7.116   8.622  0.4096  1.1875 -0.1543
 7330SOL    HW222569   6.018   7.048   8.501  0.5862 -0.2341  0.7111
 7331SOL     OW22570   9.258   6.007   0.561 -0.3694  0.3328 -0.7501
 7331SOL    HW122571   9.265   5.924   0.609  0.6878  0.2176 -1.0908
 7331SOL    HW222572   9.177   5.997   0.509  0.7418 -1.3129 -2.2995
 7332SOL     OW22573   9.214   1.552   5.959 -0.3121 -0.1758 -0.1987
 7332SOL    HW122574   9.120   1.562   5.945 -0.9468 -2.8235  1.3789
 7332SOL    HW222575   9.239   1.478   5.904  0.5858 -0.2800  0.3281
 7333SOL     OW22576   1.636   7.215   0.145  0.8345 -0.0043  0.6062
 7333SOL    HW122577   1.651   7.122   0.159  0.3549 -0.2162 -0.2095
 7333SOL    HW222578   1.628   7.224   0.050 -2.1113  0.3979  0.8140
 7334SOL     OW22579   2.147   7.722   8.095 -0.6450  0.3300  0.4349
 7334SOL    HW122580   2.145   7.651   8.159 -0.7201  0.2510  0.3445
 7334SOL    HW222581   2.148   7.678   8.010  2.2319  0.3366  0.3531
 7335SOL     OW22582   2.146   9.339   9.796  0.1934 -0.2789 -0.1072
 7335SOL    HW122583   2.094   9.330   9.876 -0.8301  1.4793 -0.5165
 7335SOL    HW222584   2.164   9.433   9.789  0.6992 -0.4563 -1.6672
 7336SOL     OW22585   5.837   5.715   8.540  0.0668  0.3125 -0.1117
 7336SOL    HW122586   5.748   5.684   8.558 -0.2161 -0.0364 -1.9280
 7336SOL    HW222587   5.829   5.765   8.460  1.2641  1.6327  0.5539
 7337SOL     OW22588   8.594   7.101   1.452  0.7796 -0.5760  0.5157
 7337SOL    HW122589   8.627   7.020   1.490  0.1182 -1.0664  0.0639
 7337SOL    HW222590   8.599   7.165   1.523 -0.3557 -1.4496  1.4231
 7338SOL     OW22591   2.306   4.248   8.714  0.5159  0.3739  0.2844
 7338SOL    HW122592   2.248   4.320   8.693  1.7792  1.1772 -0.6210
 7338SOL    HW222593   2.282   4.179   8.652  0.2380  0.5296  0.2182
 7339SOL     OW22594   2.593   0.442   1.354 -0.4468  0.1300  0.3228
 7339SOL    HW122595   2.529   0.485   1.297  1.2797  2.0485 -0.2640
 7339SOL    HW222596   2.544   0.423   1.434 -1.6651  1.8745  0.0557
 7340SOL     OW22597   0.401   6.292   7.288  0.0849  0.1358 -0.1543
 7340SOL    HW122598   0.470   6.267   7.349  0.4862  0.7813 -0.3334
 7340SOL    HW222599   0.326   6.313   7.343  0.0518 -0.4957  0.0462
 7341SOL     OW22600   6.319   6.018   0.465  0.5503 -0.0308  0.0794
 7341SOL    HW122601   6.268   6.039   0.544  1.2908  2.3591 -0.0086
 7341SOL    HW222602   6.253   5.991   0.401 -0.4284  1.1240  0.5594
 7342SOL     OW22603   9.551   0.919   3.142 -0.0670 -0.0502 -0.5060
 7342SOL    HW122604   9.495   0.869   3.082  1.0138 -0.4015 -1.2634
 7342SOL    HW222605   9.590   0.987   3.087  0.3765  0.0843 -0.0269
 7343SOL     OW22606   5.044   8.607   7.334  0.3869 -0.7142  0.3700
 7343SOL    HW122607   4.974   8.670   7.350  0.6548 -0.9375  2.9450
 7343SOL    HW222608   5.005   8.542   7.276 -0.0762  1.4126 -1.8812
 7344SOL     OW22609   0.565   0.440   9.199 -0.1674 -0.0598 -0.3779
 7344SOL    HW122610   0.635   0.395   9.152  0.2261 -2.1655  2.0322
 7344SOL    HW222611   0.495   0.374   9.206 -1.2023  1.0292 -0.1503
 7345SOL     OW22612   0.906   8.599   9.147 -0.5676  0.0045 -0.3990
 7345SOL    HW122613   0.977   8.554   9.193 -0.1112 -1.9077 -2.7759
 7345SOL    HW222614   0.834   8.536   9.146 -1.9293  1.4424  0.8707
 7346SOL     OW22615   6.870   1.858   1.188  0.5626  0.1426 -0.2096
 7346SOL    HW122616   6.804   1.792   1.210  0.3958 -0.0704 -1.3245
 7346SOL    HW222617   6.849   1.932   1.245 -1.6755  0.7205 -1.6883
 7347SOL     OW22618   0.613   9.199   2.621  0.1308  0.2173  0.4071
 7347SOL    HW122619   0.599   9.215   2.714 -2.4604  1.9136 -0.1642
 7347SOL    HW222620   0.571   9.272   2.577  0.6079 -0.9135 -2.1518
 7348SOL     OW22621   7.540   6.068   5.000 -0.4600  0.7007 -0.2208
 7348SOL    HW122622   7.469   6.114   4.954  1.3075  1.9010 -1.9354
 7348SOL    HW222623   7.584   6.137   5.050  0.2835  0.2482 -0.2448
 7349SOL     OW22624   6.916   1.113   0.548 -0.6325  0.2528  0.3883
 7349SOL    HW122625   6.874   1.085   0.630 -0.2332 -1.4305  0.0467
 7349SOL    HW222626   7.009   1.098   0.563 -0.5502  0.0027 -0.3585
 7350SOL     OW22627   3.472   2.813   8.339  0.3601  0.1444  0.4042
 7350SOL    HW122628   3.486   2.899   8.379  2.5690  0.0144  0.0531
 7350SOL    HW222629   3.474   2.752   8.413 -3.8499  0.4804  1.0140
 7351SOL     OW22630   0.777   7.119   5.926 -0.0089 -0.3930  0.4341
 7351SOL    HW122631   0.688   7.090   5.946  0.5823 -2.3396  0.4302
 7351SOL    HW222632   0.784   7.114   5.831 -0.0022  0.1361  0.4027
 7352SOL     OW22633   8.809   0.337   0.630  0.4197  0.3481 -0.1927
 7352SOL    HW122634   8.738   0.304   0.685 -0.6742  1.7071 -0.7026
 7352SOL    HW222635   8.792   0.300   0.544  1.2105 -0.5130  0.0126
 7353SOL     OW22636   2.057   7.560   2.898  0.1497  0.5061  0.1849
 7353SOL    HW122637   1.983   7.558   2.959  1.2660 -0.8224  1.5970
 7353SOL    HW222638   2.067   7.653   2.876 -1.2248  0.8434  0.8574
 7354SOL     OW22639   0.039   6.775   5.970 -0.1920 -0.3223 -0.1604
 7354SOL    HW122640   0.087   6.851   6.002 -1.2345 -0.0690  0.8565
 7354SOL    HW222641   0.013   6.727   6.049 -0.7760 -0.9691 -0.7219
 7355SOL     OW22642   6.587   0.301   1.030 -0.3486  0.2980  0.3866
 7355SOL    HW122643   6.541   0.304   0.947 -0.6294 -0.8406  0.4753
 7355SOL    HW222644   6.518   0.304   1.096 -0.2483 -0.3641  0.5362
 7356SOL     OW22645   6.893   4.306   0.323  0.2455  0.8200 -0.1226
 7356SOL    HW122646   6.966   4.306   0.384  1.1116  1.5072 -1.1258
 7356SOL    HW222647   6.828   4.364   0.363  1.5641  2.7668 -0.6739
 7357SOL     OW22648   1.681   7.283   9.851  0.2682 -0.0852  0.3398
 7357SOL    HW122649   1.770   7.263   9.882 -0.2863 -4.2951 -0.1899
 7357SOL    HW222650   1.691   7.296   9.757  0.3987  0.3313  0.4075
 7358SOL     OW22651   8.175   6.644   3.868 -0.4610 -0.7155  0.1831
 7358SOL    HW122652   8.181   6.676   3.958  0.4691 -0.6342  0.1029
 7358SOL    HW222653   8.194   6.720   3.814 -3.1381 -0.2185 -0.1877
 7359SOL     OW22654   9.076   0.649   0.390  0.4716  0.3207 -0.5406
 7359SOL    HW122655   8.989   0.619   0.417  0.8216 -1.5099 -1.3237
 7359SOL    HW222656   9.060   0.698   0.309  0.2434 -0.9425 -1.2891
 7360SOL     OW22657   3.638   3.725   3.842  0.2403  0.5186 -0.3899
 7360SOL    HW122658   3.637   3.670   3.921  1.8880 -2.3350 -2.1787
 7360SOL    HW222659   3.727   3.717   3.808 -0.4506  1.5088 -2.5995
 7361SOL     OW22660   0.385   6.085   2.131 -0.0592  0.1687  0.2625
 7361SOL    HW122661   0.404   6.091   2.224  0.8880 -1.1146  0.1804
 7361SOL    HW222662   0.301   6.039   2.126 -0.3448  0.6612  0.4876
 7362SOL     OW22663   4.812   8.530   6.752 -0.4323  0.8075  0.5177
 7362SOL    HW122664   4.791   8.439   6.731 -0.3743  0.2315  2.6700
 7362SOL    HW222665   4.769   8.582   6.684  0.4231 -0.8464 -1.3681
 7363SOL     OW22666   4.434   4.750   3.210  0.0662  0.2981 -0.0322
 7363SOL    HW122667   4.472   4.663   3.201 -1.8715 -0.4142 -2.6106
 7363SOL    HW222668   4.421   4.761   3.304 -0.4916 -2.6274  0.3218
 7364SOL     OW22669   8.328   3.397   1.174  0.3629 -0.3683  0.2126
 7364SOL    HW122670   8.305   3.305   1.160 -1.8261  0.1227  0.2916
 7364SOL    HW222671   8.281   3.444   1.105  0.6046  0.7912  0.8220
 7365SOL     OW22672   7.392   0.802   5.341  0.5163 -0.1672  0.7663
 7365SOL    HW122673   7.341   0.869   5.295  0.9322 -1.9022 -2.4821
 7365SOL    HW222674   7.334   0.773   5.412 -3.1500 -1.8115 -2.5158
 7366SOL     OW22675   4.282   4.468   8.528  0.1272  0.1738 -0.1863
 7366SOL    HW122676   4.318   4.546   8.569  1.3205 -0.1919 -0.4979
 7366SOL    HW222677   4.188   4.486   8.521 -0.4614 -0.3536  4.0195
 7367SOL     OW22678   2.478   6.617   5.475 -0.5050 -0.6474  0.3354
 7367SOL    HW122679   2.489   6.677   5.549  2.9877 -2.0431  1.1406
 7367SOL    HW222680   2.478   6.673   5.398 -0.0118  0.5860  1.2022
 7368SOL     OW22681   5.901   3.440   3.843  0.3224  0.0343  0.1643
 7368SOL    HW122682   5.848   3.425   3.922 -0.2284  1.9550  0.1905
 7368SOL    HW222683   5.987   3.403   3.864 -0.1613 -0.5262  1.2115
 7369SOL     OW22684   5.272   7.598   0.531 -0.4770  0.0545 -0.1869
 7369SOL    HW122685   5.279   7.526   0.593  0.0254 -0.5606 -0.9373
 7369SOL    HW222686   5.237   7.671   0.582  0.0947 -0.3815  0.8513
 7370SOL     OW22687   1.311   7.790   2.008 -0.1321 -0.0478  0.0087
 7370SOL    HW122688   1.262   7.712   1.981  0.9185 -1.2480  1.4234
 7370SOL    HW222689   1.265   7.822   2.086  0.4716 -0.3184  0.4830
 7371SOL     OW22690   4.471   0.829   0.595 -0.0848  0.2173  0.0949
 7371SOL    HW122691   4.501   0.840   0.505 -1.2269  4.1159  0.0159
 7371SOL    HW222692   4.515   0.898   0.644 -0.6752 -0.8296  2.2393
 7372SOL     OW22693   0.299   8.451   1.629  0.4865 -0.0087  0.1518
 7372SOL    HW122694   0.383   8.493   1.651  0.2996  2.1221 -2.6653
 7372SOL    HW222695   0.235   8.497   1.683  0.9651 -0.9113  1.5300
 7373SOL     OW22696   3.167   5.348   8.750 -0.6449  0.0958 -0.4116
 7373SOL    HW122697   3.109   5.409   8.796  0.3002 -0.1705  1.2233
 7373SOL    HW222698   3.197   5.397   8.673 -2.2606  0.5632 -0.7823
 7374SOL     OW22699   5.679   7.104   0.354  0.3194  0.3121 -0.3837
 7374SOL    HW122700   5.595   7.116   0.310 -1.5408  0.6573  2.9376
 7374SOL    HW222701   5.683   7.011   0.374  1.1831  0.1427 -1.2520
 7375SOL     OW22702   5.545   8.691   2.874  0.1137 -0.1136 -0.4123
 7375SOL    HW122703   5.606   8.642   2.818  0.2775  0.2819 -0.5795
 7375SOL    HW222704   5.581   8.681   2.962  0.2172 -0.1925 -0.4622
 7376SOL     OW22705   6.060   8.844   9.188  0.4851  0.3119  0.2326
 7376SOL    HW122706   5.979   8.793   9.189  0.1213  0.8448 -0.5978
 7376SOL    HW222707   6.038   8.925   9.234  0.7315  0.1938  0.5580
 7377SOL     OW22708   7.318   9.049   7.186 -0.0210 -0.5533  0.2430
 7377SOL    HW122709   7.246   9.059   7.123  1.5761 -2.4288 -2.0415
 7377SOL    HW222710   7.397   9.046   7.132  1.3097 -4.1872  2.0486
 7378SOL     OW22711   3.091   3.609   7.075  0.0028 -0.3357  0.7220
 7378SOL    HW122712   3.158   3.623   7.142  1.1236 -1.8847 -0.0083
 7378SOL    HW222713   3.085   3.693   7.029  0.9842  0.0237  1.2255
 7379SOL     OW22714   7.089   5.341   0.560  0.1179 -0.1794  0.1355
 7379SOL    HW122715   7.175   5.308   0.589 -0.5875 -1.1116  1.2378
 7379SOL    HW222716   7.052   5.268   0.511 -1.1054 -0.7860  1.8694
 7380SOL     OW22717   0.793   4.654   6.207 -0.4325  0.2908  0.0294
 7380SOL    HW122718   0.797   4.631   6.115  1.3232 -0.6703  0.3058
 7380SOL    HW222719   0.702   4.638   6.233 -0.2388 -2.5104 -0.7844
 7381SOL     OW22720   5.726   1.486   8.871 -0.3583  0.2961 -0.4010
 7381SOL    HW122721   5.760   1.576   8.868  1.8060 -0.3951  1.3033
 7381SOL    HW222722   5.767   1.447   8.948 -2.7701 -1.6031  0.0424
 7382SOL     OW22723   3.707   7.388   1.132  0.2155 -0.2884 -0.4431
 7382SOL    HW122724   3.724   7.471   1.176 -0.3698  0.1190 -0.9814
 7382SOL    HW222725   3.615   7.369   1.150  0.3767 -0.8928 -0.2102
 7383SOL     OW22726   1.735   2.739   8.071  0.1974  0.2707  0.1409
 7383SOL    HW122727   1.666   2.784   8.021 -0.0784  1.2111  1.3346
 7383SOL    HW222728   1.812   2.747   8.016 -0.2994  0.5306 -0.5400
 7384SOL     OW22729   9.866   8.444   7.747  0.0511  0.3885 -0.2272
 7384SOL    HW122730   9.880   8.533   7.715  0.3453  0.6114  0.4836
 7384SOL    HW222731   9.772   8.430   7.741  0.1455  0.2666 -1.5548
 7385SOL     OW22732   5.577   9.162   7.597 -0.4962 -0.3213 -0.3445
 7385SOL    HW122733   5.591   9.190   7.507  1.5731 -0.9070 -0.2675
 7385SOL    HW222734   5.543   9.073   7.590 -0.2661 -0.3938 -0.5623
 7386SOL     OW22735   6.910   2.718   1.630 -0.6262  0.0888  0.4590
 7386SOL    HW122736   6.851   2.781   1.672 -1.5020 -2.1098  2.7383
 7386SOL    HW222737   6.866   2.634   1.639  0.8963 -1.0276 -1.7246
 7387SOL     OW22738   0.855   6.378   4.895  0.4240  0.1228  0.2613
 7387SOL    HW122739   0.781   6.335   4.938  0.2525  0.1172 -0.0351
 7387SOL    HW222740   0.815   6.448   4.843  0.4839 -0.7364 -0.9857
 7388SOL     OW22741   5.343   2.102   9.088  0.5665  0.1902 -0.1481
 7388SOL    HW122742   5.366   2.112   8.995  2.8822 -0.7541  0.2742
 7388SOL    HW222743   5.343   2.008   9.103 -0.3917  0.3123  0.6969
 7389SOL     OW22744   7.968   9.293   2.162 -0.4433  0.1166  0.2302
 7389SOL    HW122745   7.922   9.326   2.239 -1.8882  2.3104 -1.4399
 7389SOL    HW222746   7.925   9.210   2.141 -2.1205  1.0095  0.0400
 7390SOL     OW22747   4.579   7.011   3.036  0.0812 -0.1630 -0.2950
 7390SOL    HW122748   4.646   7.010   2.968  0.9863  1.0513  0.5247
 7390SOL    HW222749   4.594   6.932   3.086 -0.2603 -0.8016 -1.1734
 7391SOL     OW22750   8.983   3.352   6.929  0.3528 -0.1355  0.6136
 7391SOL    HW122751   8.933   3.324   7.006  0.6854 -1.8579  0.2395
 7391SOL    HW222752   8.929   3.326   6.854  0.1324  1.3326  0.2250
 7392SOL     OW22753   5.619   2.171   8.245  0.6084  0.2967  0.0295
 7392SOL    HW122754   5.585   2.175   8.155  0.4492 -0.4639  0.0548
 7392SOL    HW222755   5.544   2.195   8.299 -0.3036 -2.5066  0.1636
 7393SOL     OW22756   6.308   4.473   1.949  0.1789  1.4129  0.0927
 7393SOL    HW122757   6.225   4.493   1.992  0.7539  2.2709  0.8211
 7393SOL    HW222758   6.302   4.517   1.864 -0.3732  0.9158 -0.1332
 7394SOL     OW22759   6.254   2.270   5.001 -0.5051  0.4740 -0.1213
 7394SOL    HW122760   6.226   2.179   4.998 -1.5247  0.7318  1.0127
 7394SOL    HW222761   6.254   2.293   5.094 -2.4692  2.2799 -0.4943
 7395SOL     OW22762   0.921   6.803   4.565 -0.3498 -0.1540  0.0842
 7395SOL    HW122763   0.962   6.725   4.602  0.0577  0.0587  0.0820
 7395SOL    HW222764   0.909   6.861   4.640  0.0024  0.0697 -0.0353
 7396SOL     OW22765   1.892   9.974   3.686 -0.0209 -0.3054 -0.2159
 7396SOL    HW122766   1.951   9.901   3.707 -0.9480 -1.4888 -1.5444
 7396SOL    HW222767   1.933  10.017   3.611 -1.1427 -1.5504 -1.5832
 7397SOL     OW22768   6.642   0.636   5.482 -0.1559 -0.5274 -0.4392
 7397SOL    HW122769   6.595   0.622   5.400 -1.3511  0.9410 -0.0516
 7397SOL    HW222770   6.679   0.724   5.473 -1.7309  0.3654  1.2159
 7398SOL     OW22771   9.566   7.796   2.524  0.2413  0.0379 -0.3747
 7398SOL    HW122772   9.589   7.837   2.441 -0.9588 -0.1896 -0.8297
 7398SOL    HW222773   9.489   7.844   2.554 -1.3382 -1.9670 -1.0253
 7399SOL     OW22774   7.357   2.111   5.958  0.6347  0.0260 -0.0842
 7399SOL    HW122775   7.360   2.016   5.956  1.8877  0.0307  0.4479
 7399SOL    HW222776   7.338   2.137   5.868  0.3040 -0.7270 -0.2346
 7400SOL     OW22777   8.611   8.349   9.481 -0.3443 -0.2409 -0.0989
 7400SOL    HW122778   8.548   8.277   9.490  2.0060 -2.5405 -0.6732
 7400SOL    HW222779   8.624   8.380   9.570 -0.4778 -1.4061  0.3458
 7401SOL     OW22780   1.770   5.242   8.805 -0.5455 -0.7967 -0.0544
 7401SOL    HW122781   1.706   5.186   8.850 -1.8730 -0.2711 -1.1915
 7401SOL    HW222782   1.757   5.329   8.843 -0.0033 -0.8331  0.2119
 7402SOL     OW22783   5.564   4.925   3.392  0.4736  0.6101  0.0930
 7402SOL    HW122784   5.591   4.966   3.310 -0.6188  0.4749 -0.3567
 7402SOL    HW222785   5.548   4.833   3.369 -0.2681  0.6690  0.3517
 7403SOL     OW22786   7.603   1.787   5.575  0.1531 -0.0258  0.1496
 7403SOL    HW122787   7.509   1.779   5.589  0.2412 -2.0091 -0.0558
 7403SOL    HW222788   7.612   1.822   5.486 -0.3875  0.0417  0.1225
 7404SOL     OW22789   6.400   6.937   1.168 -0.8792 -0.1706  0.3008
 7404SOL    HW122790   6.484   6.963   1.128 -1.1013 -0.2509 -0.2282
 7404SOL    HW222791   6.371   7.015   1.214 -1.8582  0.7985 -1.8129
 7405SOL     OW22792   6.770   8.911   5.893 -0.1743  0.1377 -0.5570
 7405SOL    HW122793   6.840   8.946   5.837  1.9646 -2.2291  0.4433
 7405SOL    HW222794   6.773   8.817   5.878  0.2592 -0.5848  3.1331
 7406SOL     OW22795   5.492   9.099   5.824 -0.0900  0.2630  0.5402
 7406SOL    HW122796   5.579   9.134   5.842 -0.1141  1.1990 -0.9594
 7406SOL    HW222797   5.505   9.005   5.816  1.0638  0.5233 -1.0347
 7407SOL     OW22798   0.925   7.315   5.664  0.7491 -0.4217  0.5856
 7407SOL    HW122799   0.895   7.225   5.667  1.0945 -0.5162  1.9433
 7407SOL    HW222800   1.020   7.308   5.650  0.9737 -0.3461  1.8927
 7408SOL     OW22801   4.449   3.411   8.100 -0.1842 -0.1548  0.3726
 7408SOL    HW122802   4.512   3.483   8.093  0.0310 -0.3165  0.6526
 7408SOL    HW222803   4.462   3.359   8.021 -0.4703  0.2181  0.0757
 7409SOL     OW22804   2.870   7.152   0.974 -0.4034  0.6063 -0.2549
 7409SOL    HW122805   2.923   7.105   0.909  0.7582  1.7771 -0.2104
 7409SOL    HW222806   2.801   7.194   0.923 -0.1942  0.5548 -0.5832
 7410SOL     OW22807   0.894   3.560   8.368  0.0967  0.0109 -0.2945
 7410SOL    HW122808   0.897   3.638   8.423  0.2002 -1.8201  2.5268
 7410SOL    HW222809   0.952   3.580   8.294  0.3768  2.4293  0.4825
 7411SOL     OW22810   8.177   6.215   3.987 -0.1987  0.0814 -0.4482
 7411SOL    HW122811   8.198   6.165   4.066  2.0573  1.2838 -0.2040
 7411SOL    HW222812   8.176   6.149   3.917  2.6005 -0.4168 -0.1249
 7412SOL     OW22813   8.271   9.935   0.030 -0.2331  0.3019 -0.2034
 7412SOL    HW122814   8.263   9.912  -0.062 -1.3007 -0.1770 -0.0113
 7412SOL    HW222815   8.201   9.885   0.073 -1.2272  2.2529  0.5411
 7413SOL     OW22816   0.204   4.394   3.380 -0.3552 -0.5880 -0.3465
 7413SOL    HW122817   0.121   4.366   3.418 -1.0552  1.1581 -0.5344
 7413SOL    HW222818   0.245   4.448   3.448  0.0272 -0.3713 -0.7419
 7414SOL     OW22819   5.880   3.686   2.063 -0.1704  0.1130 -0.2185
 7414SOL    HW122820   5.868   3.648   1.976  2.1267 -1.2266 -0.0258
 7414SOL    HW222821   5.942   3.757   2.050 -0.8210  0.7611  0.1530
 7415SOL     OW22822   1.357   5.565   5.578  0.0847 -0.0948  0.4416
 7415SOL    HW122823   1.366   5.657   5.551 -0.4249 -0.2684 -0.3239
 7415SOL    HW222824   1.442   5.526   5.559 -0.4805 -0.3941 -1.6302
 7416SOL     OW22825   8.731   4.038   7.758  0.0018  0.2297 -0.1634
 7416SOL    HW122826   8.784   4.118   7.762  1.0470 -0.4863  2.3385
 7416SOL    HW222827   8.792   3.969   7.784 -0.6940 -1.5644 -2.9117
 7417SOL     OW22828   1.665   6.878   7.027  0.0265 -0.0874  0.1432
 7417SOL    HW122829   1.570   6.890   7.024  0.0542  0.4192  0.9943
 7417SOL    HW222830   1.681   6.800   6.975 -0.7378  0.4875 -1.0104
 7418SOL     OW22831   4.269   0.926   4.787 -0.5558 -0.1480  0.6066
 7418SOL    HW122832   4.265   0.998   4.849  0.9967  0.3620  0.1534
 7418SOL    HW222833   4.345   0.875   4.814 -0.1866 -0.2303 -0.5284
 7419SOL     OW22834   5.276   1.903   3.069 -0.5466  0.2711  0.3783
 7419SOL    HW122835   5.262   1.971   3.003 -0.9124  1.2718  1.4520
 7419SOL    HW222836   5.368   1.880   3.060 -0.6069  0.3390 -0.5215
 7420SOL     OW22837   1.988   6.755   6.924  0.3137  0.2534  0.0615
 7420SOL    HW122838   1.974   6.823   6.858  0.8323 -0.3907 -0.7165
 7420SOL    HW222839   2.082   6.739   6.922  0.0030 -1.6761 -0.9463
 7421SOL     OW22840   3.292   4.366   0.768 -0.6332 -1.0160  0.7624
 7421SOL    HW122841   3.377   4.347   0.727 -1.6739 -1.3067 -1.3417
 7421SOL    HW222842   3.240   4.405   0.699 -1.6801  0.8282  2.5025
 7422SOL     OW22843   2.295   1.286   6.101 -0.2821 -0.5298  0.0358
 7422SOL    HW122844   2.324   1.346   6.168 -0.0175 -0.4370 -0.1601
 7422SOL    HW222845   2.201   1.303   6.092 -0.1500  0.0817 -0.2471
 7423SOL     OW22846   3.803   7.688   7.048 -0.3395 -0.7669  0.3450
 7423SOL    HW122847   3.877   7.740   7.078  0.7865 -1.4569 -1.1074
 7423SOL    HW222848   3.759   7.743   6.983 -0.0769 -0.9916 -0.0325
 7424SOL     OW22849   6.032   7.938   3.414  0.0468 -0.4935  0.1730
 7424SOL    HW122850   6.112   7.990   3.401  1.2361 -2.0241  1.0261
 7424SOL    HW222851   6.060   7.847   3.401 -1.3839 -1.1225  1.2335
 7425SOL     OW22852   7.284   2.215   1.189  0.1116  0.1822 -0.1212
 7425SOL    HW122853   7.188   2.217   1.186  0.1441  1.5995 -1.2725
 7425SOL    HW222854   7.307   2.281   1.254  0.3053 -0.5953  0.6084
 7426SOL     OW22855   9.465   4.255   3.187 -0.7401  0.3727  0.7084
 7426SOL    HW122856   9.497   4.165   3.178 -0.9213  0.3973 -0.3162
 7426SOL    HW222857   9.390   4.249   3.246 -1.4169 -0.3175 -0.1948
 7427SOL     OW22858   0.851   6.410   1.613  0.1276  0.0162  0.1153
 7427SOL    HW122859   0.775   6.467   1.623  0.1556  0.0045  0.4165
 7427SOL    HW222860   0.817   6.322   1.631  0.7844  0.2856  3.3293
 7428SOL     OW22861   8.538   3.260   1.700  0.1468  0.6013  0.2482
 7428SOL    HW122862   8.482   3.312   1.642  0.5009  0.3052 -0.3758
 7428SOL    HW222863   8.513   3.169   1.682  2.6572  0.2293 -2.1133
 7429SOL     OW22864   0.556   3.884   1.767  0.2417  0.2767  0.0521
 7429SOL    HW122865   0.620   3.826   1.810  1.3864  0.4769 -1.3018
 7429SOL    HW222866   0.543   3.956   1.829  1.8704  0.5779  0.0889
 7430SOL     OW22867   4.686   4.709   9.083 -0.1661 -0.2586  0.2621
 7430SOL    HW122868   4.595   4.685   9.064 -0.0479 -0.0023 -0.6638
 7430SOL    HW222869   4.723   4.632   9.126 -1.1479  0.0615  1.7707
 7431SOL     OW22870   1.178   3.748   2.739  0.2846  0.2463 -0.0745
 7431SOL    HW122871   1.129   3.799   2.675 -0.4095 -0.4249 -0.0965
 7431SOL    HW222872   1.116   3.681   2.768  0.5371  0.6180  1.4035
 7432SOL     OW22873   6.836   3.581   0.429  0.6403 -0.2806  0.3516
 7432SOL    HW122874   6.792   3.497   0.416  0.8259 -0.0260 -2.5364
 7432SOL    HW222875   6.927   3.558   0.445  0.5969 -0.6488  0.0886
 7433SOL     OW22876   8.665   3.470   9.081  0.0434  0.6546 -0.2198
 7433SOL    HW122877   8.709   3.388   9.059 -2.0433 -0.4066 -0.7339
 7433SOL    HW222878   8.667   3.474   9.177 -2.0660 -1.4381  0.0264
 7434SOL     OW22879   0.382   5.094   0.269 -0.6585 -0.1150 -0.1177
 7434SOL    HW122880   0.316   5.126   0.330 -0.4078  0.0524  0.0692
 7434SOL    HW222881   0.334   5.077   0.188 -0.6374  1.7369 -0.5629
 7435SOL     OW22882   5.452   8.073   2.614 -0.1657 -0.0293  0.4733
 7435SOL    HW122883   5.542   8.075   2.581 -0.0245  0.5780  0.8670
 7435SOL    HW222884   5.402   8.124   2.551 -0.1310  0.0942  0.5465
 7436SOL     OW22885   0.408   1.050   9.515 -0.1349 -0.4310 -0.3530
 7436SOL    HW122886   0.323   1.096   9.512 -0.1125 -0.4199 -0.9216
 7436SOL    HW222887   0.391   0.966   9.473 -0.2969 -1.1672  1.1283
 7437SOL     OW22888   2.873   9.870   7.598  0.4646  0.3737  0.7952
 7437SOL    HW122889   2.833   9.956   7.607 -0.7552 -0.0932  0.0446
 7437SOL    HW222890   2.897   9.864   7.505  0.9928  0.0872  0.9428
 7438SOL     OW22891   6.222   4.534   3.563  0.0196  0.1312  0.4614
 7438SOL    HW122892   6.246   4.452   3.520 -0.5007  0.6049 -0.7747
 7438SOL    HW222893   6.280   4.539   3.639  0.3188 -1.1913  0.3478
 7439SOL     OW22894   5.357   5.939   8.044  0.4450  0.5013 -0.3942
 7439SOL    HW122895   5.290   5.876   8.070 -0.4261  0.8069 -1.7632
 7439SOL    HW222896   5.405   5.957   8.124 -0.0591 -0.9715  0.2884
 7440SOL     OW22897   0.284   9.340   3.674 -0.1038  0.4022  0.0544
 7440SOL    HW122898   0.357   9.341   3.736  0.5058 -1.7165 -0.5649
 7440SOL    HW222899   0.217   9.288   3.716 -0.8390  1.3859  0.1293
 7441SOL     OW22900   2.897   5.955   8.219  0.3910  0.2573  0.1884
 7441SOL    HW122901   2.948   5.987   8.293  1.8085 -0.1392 -0.5672
 7441SOL    HW222902   2.839   5.889   8.256  2.0701 -0.9733  0.7786
 7442SOL     OW22903   3.910   9.154   6.415 -0.3071 -0.0543  0.0761
 7442SOL    HW122904   3.849   9.131   6.344  0.9939  0.9263 -1.4393
 7442SOL    HW222905   3.956   9.073   6.434  0.2205 -0.0733 -1.1476
 7443SOL     OW22906   4.860   3.917   6.491  0.0702 -0.0276 -0.0631
 7443SOL    HW122907   4.857   4.010   6.470  0.9323  0.2680  1.0252
 7443SOL    HW222908   4.917   3.878   6.424  0.6541  0.4392  0.1546
 7444SOL     OW22909   7.592   1.397   8.034 -0.0994  0.1509 -0.2373
 7444SOL    HW122910   7.553   1.484   8.037 -0.7554 -0.1461  0.1223
 7444SOL    HW222911   7.537   1.345   8.093  1.7339  0.0692  1.4885
 7445SOL     OW22912   3.173   9.147   0.428  0.7443  0.2497  0.5169
 7445SOL    HW122913   3.104   9.089   0.461  1.4902 -0.4478  0.8674
 7445SOL    HW222914   3.125   9.223   0.394 -0.3111 -0.8347 -0.5512
 7446SOL     OW22915   2.096   1.156   1.076  0.2776  0.4202 -0.4854
 7446SOL    HW122916   2.089   1.158   0.980  0.5270  3.0769 -0.5249
 7446SOL    HW222917   2.006   1.161   1.107  0.2158 -0.1012 -0.5715
 7447SOL     OW22918   8.357   4.668   4.649  0.9276  0.3549 -0.1238
 7447SOL    HW122919   8.332   4.731   4.716  1.2699  0.7130 -0.3257
 7447SOL    HW222920   8.280   4.661   4.593  0.8665  0.5609 -0.0690
 7448SOL     OW22921   5.418   8.861   4.973 -0.4243 -0.0764 -0.2821
 7448SOL    HW122922   5.462   8.799   5.032 -1.6382 -1.3509 -0.6777
 7448SOL    HW222923   5.327   8.860   5.001 -0.6310  0.8969 -0.8762
 7449SOL     OW22924   4.386   2.765   7.501 -0.0126 -0.3403 -0.1177
 7449SOL    HW122925   4.446   2.781   7.574  0.1645 -1.7462  0.0746
 7449SOL    HW222926   4.346   2.680   7.521 -0.6924 -0.2894 -1.1684
 7450SOL     OW22927   4.027   2.943   0.802  0.0253  0.1249 -0.3620
 7450SOL    HW122928   4.012   2.849   0.812  0.8915 -0.1863 -1.7732
 7450SOL    HW222929   4.101   2.950   0.742 -0.3262  1.7144 -0.6750
 7451SOL     OW22930   3.361   6.213   5.420 -0.0184  0.3833 -0.1972
 7451SOL    HW122931   3.296   6.224   5.489  1.2178  1.6051  0.8350
 7451SOL    HW222932   3.425   6.152   5.456  0.7800  1.2357 -0.1225
 7452SOL     OW22933   1.649   9.610   2.167  0.1693  0.3448  0.4136
 7452SOL    HW122934   1.569   9.637   2.121 -1.9225 -1.8309  2.4692
 7452SOL    HW222935   1.652   9.665   2.245 -1.7808 -2.1705  2.4534
 7453SOL     OW22936   4.823   0.839   0.045 -0.1906 -0.0240  0.0201
 7453SOL    HW122937   4.843   0.844  -0.049  2.7890 -0.9160  0.5191
 7453SOL    HW222938   4.857   0.754   0.072  0.2777  0.7915  2.2012
 7454SOL     OW22939   5.239   9.500   7.906  0.5649 -0.5081 -0.1829
 7454SOL    HW122940   5.201   9.414   7.923 -1.1765 -0.1279 -1.7950
 7454SOL    HW222941   5.168   9.550   7.865  1.2268  2.0035  1.4947
 7455SOL     OW22942   5.673   1.224   3.599  0.5188  0.5352 -0.2164
 7455SOL    HW122943   5.589   1.221   3.646 -0.2696 -1.3845 -1.6350
 7455SOL    HW222944   5.661   1.292   3.533 -0.8433 -1.2066 -1.8956
 7456SOL     OW22945   1.608   1.819   0.859  0.4024 -0.2041 -0.2873
 7456SOL    HW122946   1.603   1.882   0.787  2.3468  0.4340  0.0773
 7456SOL    HW222947   1.582   1.869   0.936  1.2647 -0.0320 -0.1028
 7457SOL     OW22948   0.387   3.453   4.170 -0.0155 -0.0274  0.2925
 7457SOL    HW122949   0.463   3.469   4.113 -1.4160  2.1237 -1.0887
 7457SOL    HW222950   0.382   3.531   4.225  0.2204 -1.2864  2.1720
 7458SOL     OW22951   6.843   2.820   4.203 -0.8296 -0.0451  0.1300
 7458SOL    HW122952   6.830   2.737   4.249 -0.9235  0.4590  1.0452
 7458SOL    HW222953   6.766   2.872   4.225 -0.0393  0.8514  0.8687
 7459SOL     OW22954   9.207   9.089   9.793  0.1936  0.3649 -0.1862
 7459SOL    HW122955   9.212   9.048   9.879  0.1170 -0.4318 -0.5438
 7459SOL    HW222956   9.125   9.056   9.756  0.4601  0.3138 -0.7420
 7460SOL     OW22957   7.414   0.395   1.857 -0.6642  0.4074 -0.3740
 7460SOL    HW122958   7.331   0.440   1.871 -0.8667  0.0831 -0.5074
 7460SOL    HW222959   7.391   0.320   1.802 -0.2170  0.5460 -0.7535
 7461SOL     OW22960   6.155   0.403   7.730 -0.1911  0.0524  0.1195
 7461SOL    HW122961   6.063   0.429   7.726 -0.5506 -1.2734 -2.8853
 7461SOL    HW222962   6.200   0.465   7.672  0.3394 -0.8091 -0.4168
 7462SOL     OW22963   4.234   0.907   9.345  0.5808  0.2892 -0.1115
 7462SOL    HW122964   4.211   0.978   9.406 -0.2755  0.8384 -1.0401
 7462SOL    HW222965   4.184   0.832   9.375  1.9774 -0.1369  1.2632
 7463SOL     OW22966   7.183   4.763   1.543 -0.2367 -0.2156 -0.0143
 7463SOL    HW122967   7.246   4.692   1.553 -0.2590 -0.2892 -0.3819
 7463SOL    HW222968   7.196   4.818   1.620  0.5904  0.0146 -0.3073
 7464SOL     OW22969   6.995   5.325   6.440  0.0417 -0.2934 -0.3634
 7464SOL    HW122970   7.013   5.246   6.390  1.1501 -0.8672  0.8752
 7464SOL    HW222971   6.934   5.297   6.508 -0.0043  0.0416 -0.2670
 7465SOL     OW22972   2.951   8.076   2.029  0.7059  0.4027 -0.2888
 7465SOL    HW122973   2.862   8.095   2.001  0.3139  1.4659  1.5195
 7465SOL    HW222974   3.003   8.149   1.995  0.5635  0.7078  0.1403
 7466SOL     OW22975   8.838   0.519   0.362 -0.2927  0.1905  0.2699
 7466SOL    HW122976   8.839   0.424   0.363 -0.2075  0.0701 -2.3915
 7466SOL    HW222977   8.746   0.542   0.373 -0.5418 -0.3108 -0.6107
 7467SOL     OW22978   1.253   7.061   4.433 -0.1883  0.4303  0.1878
 7467SOL    HW122979   1.271   7.101   4.518 -0.5093  0.6381  0.1582
 7467SOL    HW222980   1.218   7.132   4.379 -0.2386  0.2377 -0.0376
 7468SOL     OW22981   0.469   1.832   1.826  0.4096 -0.4787  0.1136
 7468SOL    HW122982   0.536   1.801   1.887  1.5148  0.6359 -0.4982
 7468SOL    HW222983   0.518   1.872   1.754 -0.9115  0.2376 -0.4238
 7469SOL     OW22984   0.612   2.285   4.361  0.4571 -0.1830 -0.3883
 7469SOL    HW122985   0.590   2.194   4.340  0.0760 -0.2593  0.2914
 7469SOL    HW222986   0.632   2.326   4.276  1.1603 -1.0304 -0.6437
 7470SOL     OW22987   7.479   6.912   1.813  0.3211  0.2484  0.6604
 7470SOL    HW122988   7.486   6.988   1.755  0.9303  1.4326  2.2241
 7470SOL    HW222989   7.391   6.877   1.797  0.4820  0.5050 -0.9697
 7471SOL     OW22990   8.119   7.787   7.642  0.1582 -0.0517  0.4413
 7471SOL    HW122991   8.065   7.826   7.573  0.0812 -0.4370  0.2818
 7471SOL    HW222992   8.088   7.828   7.723  0.5620  0.7434  0.2023
 7472SOL     OW22993   9.093   9.764   8.833  0.0382  0.4050  0.1256
 7472SOL    HW122994   9.039   9.842   8.821 -0.8872  0.1972  2.3497
 7472SOL    HW222995   9.035   9.691   8.808  0.1108  0.3247  0.1898
 7473SOL     OW22996   3.340   6.830   6.198  0.1158  0.2014  0.4247
 7473SOL    HW122997   3.351   6.846   6.291  0.7032  0.1162  0.3733
 7473SOL    HW222998   3.299   6.744   6.193 -0.2064  0.3424  0.6094
 7474SOL     OW22999   1.841   0.962   5.033 -0.0835 -0.4300  0.4545
 7474SOL    HW123000   1.828   0.895   4.967  0.5799 -0.8450  0.7298
 7474SOL    HW223001   1.935   0.982   5.029 -0.3148  0.6483  0.2173
 7475SOL     OW23002   1.430   4.734   0.409 -0.1456 -0.5096  0.2730
 7475SOL    HW123003   1.508   4.702   0.364 -1.4360  1.0029 -3.3664
 7475SOL    HW223004   1.365   4.665   0.397 -0.1352 -0.6713  1.0794
 7476SOL     OW23005   1.659   1.450   1.241 -0.1595  0.2491 -0.4821
 7476SOL    HW123006   1.619   1.416   1.321 -0.5980 -0.6454 -1.0699
 7476SOL    HW223007   1.661   1.545   1.255  0.7586  0.0506  1.0248
 7477SOL     OW23008   5.644   0.013   1.702  0.0510  0.1193 -0.0084
 7477SOL    HW123009   5.614   0.098   1.733 -0.8023  1.1067 -3.1344
 7477SOL    HW223010   5.564  -0.038   1.691  0.2227  0.0767 -1.1614
 7478SOL     OW23011   8.227   3.059   4.873  0.0554 -0.6585 -0.1068
 7478SOL    HW123012   8.153   3.108   4.907  0.8636  0.1973  0.4669
 7478SOL    HW223013   8.211   3.053   4.779 -0.8083 -0.6169  0.0297
 7479SOL     OW23014   9.051   6.439   7.420 -0.4003  0.0510 -0.4865
 7479SOL    HW123015   9.006   6.365   7.379 -0.9558  0.2770 -0.3042
 7479SOL    HW223016   8.992   6.466   7.490 -0.2915  0.7831 -0.6683
 7480SOL     OW23017   8.042   4.342   9.456  0.8102 -0.5082 -0.0307
 7480SOL    HW123018   7.970   4.284   9.483 -0.2966  0.4073 -0.9258
 7480SOL    HW223019   8.047   4.333   9.361  1.2841  0.1083 -0.0757
 7481SOL     OW23020   7.257   4.170   2.033  0.3151  0.0070 -0.1183
 7481SOL    HW123021   7.341   4.216   2.026 -0.3754  1.4038  0.3430
 7481SOL    HW223022   7.269   4.109   2.106  0.5221  1.1616  0.8429
 7482SOL     OW23023   4.166   9.040   5.611 -0.0883  0.3238 -0.3737
 7482SOL    HW123024   4.151   9.070   5.701  0.9942 -0.0107 -0.0649
 7482SOL    HW223025   4.118   9.103   5.557 -2.2205 -0.4823  0.4891
 7483SOL     OW23026   6.952   2.620   7.690  0.2610  0.1971  0.1106
 7483SOL    HW123027   6.970   2.713   7.706  0.1715  0.4919 -1.3490
 7483SOL    HW223028   7.008   2.574   7.753  0.5097  1.2250  0.6730
 7484SOL     OW23029   0.643   5.764   0.474 -0.3671 -0.5385 -0.2639
 7484SOL    HW123030   0.582   5.836   0.487  0.9255  0.3223  1.3350
 7484SOL    HW223031   0.612   5.721   0.394 -0.6767  2.2773 -1.7846
 7485SOL     OW23032   8.369   9.788   5.184 -0.3379  0.5459  0.6971
 7485SOL    HW123033   8.336   9.851   5.248  1.3243  0.7832  1.3807
 7485SOL    HW223034   8.314   9.801   5.106 -2.1820  0.4819  1.9354
 7486SOL     OW23035   1.884   4.387   6.453 -0.3182 -0.5351 -0.1498
 7486SOL    HW123036   1.796   4.420   6.474 -0.1296 -0.4618  0.5810
 7486SOL    HW223037   1.919   4.450   6.390 -1.1113 -1.0517 -1.1316
 7487SOL     OW23038   4.923   3.742   3.613 -0.5271 -0.6475 -0.3145
 7487SOL    HW123039   4.856   3.752   3.680  0.8071 -1.9134  1.3092
 7487SOL    HW223040   4.875   3.717   3.534 -2.0787  0.0298  0.3727
 7488SOL     OW23041   1.806   3.825   6.057 -0.6307  0.3745  0.3660
 7488SOL    HW123042   1.741   3.801   6.124 -1.3270 -0.4422 -0.5779
 7488SOL    HW223043   1.886   3.843   6.107 -0.9223 -0.9792  1.3829
 7489SOL     OW23044   2.279   6.349   8.056  0.0983 -0.0640 -0.4258
 7489SOL    HW123045   2.326   6.427   8.085  0.1627 -0.0291 -0.6217
 7489SOL    HW223046   2.264   6.299   8.136 -0.3919  0.3948 -0.2310
 7490SOL     OW23047   1.298   1.377   2.800  0.2888  0.5052  0.1183
 7490SOL    HW123048   1.391   1.401   2.800  0.9394 -1.7230  0.6979
 7490SOL    HW223049   1.271   1.384   2.891  0.0282  0.6590  0.0300
 7491SOL     OW23050   7.677   6.075   2.937 -0.1440 -0.1146 -0.2654
 7491SOL    HW123051   7.629   6.115   3.010 -0.9614 -1.5215  0.0026
 7491SOL    HW223052   7.617   6.009   2.902  1.2895 -1.3907 -0.4295
 7492SOL     OW23053   4.045   0.817   4.783  0.0021  0.0151  0.5184
 7492SOL    HW123054   3.990   0.868   4.842 -0.0668  1.3443 -0.6357
 7492SOL    HW223055   4.129   0.863   4.781  0.0231 -0.0382 -0.3406
 7493SOL     OW23056   5.438   7.870   8.676  0.1803 -0.3967 -0.6078
 7493SOL    HW123057   5.405   7.902   8.760 -1.7815 -0.6537 -1.2265
 7493SOL    HW223058   5.436   7.946   8.618 -0.4683 -0.6613 -0.9508
 7494SOL     OW23059   2.171   4.332   5.801 -0.0172  0.2251  0.2565
 7494SOL    HW123060   2.098   4.270   5.794  0.6131 -0.3246 -2.0894
 7494SOL    HW223061   2.249   4.278   5.799  0.5434  1.0244 -1.6382
 7495SOL     OW23062   1.228   3.716   4.727 -0.7801  0.1862 -0.2035
 7495SOL    HW123063   1.239   3.724   4.632 -0.3800  0.6139 -0.1266
 7495SOL    HW223064   1.254   3.626   4.746 -1.1865 -0.0073 -0.5393
 7496SOL     OW23065   4.297   3.509   2.666  0.1697  0.2760  0.3552
 7496SOL    HW123066   4.352   3.585   2.648 -2.4985  2.5330  1.0482
 7496SOL    HW223067   4.234   3.507   2.594 -0.6169 -0.4563  1.0385
 7497SOL     OW23068   2.946   5.027   8.637  0.3079  0.2671 -0.1875
 7497SOL    HW123069   2.935   4.949   8.583  1.1417 -0.5318  0.7369
 7497SOL    HW223070   3.041   5.042   8.637  0.1573  1.2508 -0.3132
 7498SOL     OW23071   8.786   2.797   5.876  0.0737 -0.1034  0.1444
 7498SOL    HW123072   8.824   2.709   5.873 -1.5009 -0.8477 -2.9990
 7498SOL    HW223073   8.692   2.782   5.864 -0.3669  1.9866  0.6286
 7499SOL     OW23074   3.693   3.957   6.189 -0.1336  0.8246 -0.2031
 7499SOL    HW123075   3.759   3.966   6.120  2.2420 -1.2790  1.6225
 7499SOL    HW223076   3.664   3.866   6.184 -1.6834  1.2740  0.1186
 7500SOL     OW23077   8.351   4.268   7.776  0.0157  0.6718 -0.5388
 7500SOL    HW123078   8.356   4.221   7.859 -0.9929 -0.3905 -1.0445
 7500SOL    HW223079   8.376   4.358   7.797  1.1532  0.1128  0.6283
 7501SOL     OW23080   3.030   4.431   5.448  0.1842  0.1099 -0.1203
 7501SOL    HW123081   3.037   4.453   5.541  1.4791 -0.9861  0.0761
 7501SOL    HW223082   3.011   4.514   5.405 -0.2708  0.6629  1.1037
 7502SOL     OW23083   8.614   4.012   9.783  0.3508 -0.0373 -0.1683
 7502SOL    HW123084   8.541   3.954   9.760  0.1687  1.1415 -2.8856
 7502SOL    HW223085   8.691   3.969   9.746  0.6475  0.0877  0.2925
 7503SOL     OW23086   7.764   0.535   9.247 -0.1670 -0.4591 -0.0306
 7503SOL    HW123087   7.790   0.465   9.187  1.7052  0.8946 -0.8812
 7503SOL    HW223088   7.830   0.533   9.316 -0.7629 -0.2416  0.5597
 7504SOL     OW23089   7.965   4.440   5.119  0.3723 -0.0231 -0.0373
 7504SOL    HW123090   7.978   4.383   5.043  0.9496  0.0662 -0.0121
 7504SOL    HW223091   7.951   4.381   5.192  4.1490 -0.3424  0.6350
 7505SOL     OW23092   5.905   6.519   5.483 -0.0908  0.3772 -0.2750
 7505SOL    HW123093   5.927   6.583   5.551  1.0789 -0.4865  0.2075
 7505SOL    HW223094   5.878   6.441   5.532 -2.8361  0.8792 -0.8638
 7506SOL     OW23095   5.612   2.103   5.404  0.4290  0.8179 -0.0421
 7506SOL    HW123096   5.704   2.076   5.407  0.6825  1.6807  0.4416
 7506SOL    HW223097   5.563   2.023   5.420  1.1274  0.4735  0.4686
 7507SOL     OW23098   8.008   2.722   3.963 -0.0545 -0.0352  0.3563
 7507SOL    HW123099   8.052   2.752   3.884 -2.1163  0.1444 -0.7969
 7507SOL    HW223100   8.042   2.780   4.032 -1.0326  2.4660 -1.1162
 7508SOL     OW23101   5.058   4.269   9.757  0.0927 -0.4367 -0.3233
 7508SOL    HW123102   5.049   4.301   9.668  1.3296 -3.0003 -1.4749
 7508SOL    HW223103   4.985   4.208   9.768  0.1303 -0.3742  0.3011
 7509SOL     OW23104   4.538   0.727   3.863  0.0236  0.2169  0.4681
 7509SOL    HW123105   4.501   0.719   3.951  0.1143  1.7965  0.6764
 7509SOL    HW223106   4.462   0.719   3.805  0.0284 -1.3035  0.6477
 7510SOL     OW23107   7.171   2.375   8.524 -0.1706  0.0852 -0.0784
 7510SOL    HW123108   7.171   2.346   8.616 -1.5496 -0.9063 -0.3574
 7510SOL    HW223109   7.092   2.428   8.516 -1.1282 -1.4279 -1.1286
 7511SOL     OW23110   8.096   1.355   2.523  1.0435  0.4584  0.4694
 7511SOL    HW123111   8.002   1.346   2.539  1.3998 -0.7767  2.1527
 7511SOL    HW223112   8.102   1.386   2.433 -0.9770  0.8502  0.4198
 7512SOL     OW23113   4.258   2.437   6.489 -0.5002 -0.0718 -0.6213
 7512SOL    HW123114   4.206   2.514   6.464  1.8593  1.3724 -1.3946
 7512SOL    HW223115   4.229   2.369   6.428 -0.5767  1.0747 -1.9337
 7513SOL     OW23116   0.477   9.105   8.504  0.0307  0.2215  0.2667
 7513SOL    HW123117   0.536   9.045   8.458  3.1012  1.6579  2.0430
 7513SOL    HW223118   0.470   9.069   8.593 -0.9836  0.6209  0.3629
 7514SOL     OW23119   2.967   8.032   7.749 -0.0434  0.1848  0.7308
 7514SOL    HW123120   2.965   8.086   7.828 -1.8526  0.7268  0.3649
 7514SOL    HW223121   2.912   8.079   7.687  0.6836 -0.6563 -0.5875
 7515SOL     OW23122   8.725   9.365   0.173  0.3314 -0.7201  0.3355
 7515SOL    HW123123   8.710   9.274   0.146 -0.4869 -1.2745  2.5086
 7515SOL    HW223124   8.688   9.417   0.102  0.6145 -2.0635 -0.8509
 7516SOL     OW23125   1.737   0.547   0.150 -0.1801  0.1813 -0.1113
 7516SOL    HW123126   1.769   0.466   0.191 -0.8530 -0.9225 -1.6585
 7516SOL    HW223127   1.643   0.545   0.165 -0.4192 -0.1848 -1.5707
 7517SOL     OW23128   8.606   4.191   7.970 -0.1431 -0.0182 -0.3375
 7517SOL    HW123129   8.518   4.156   7.987  0.7047 -1.5119  1.3045
 7517SOL    HW223130   8.636   4.142   7.893 -0.9242  0.9307 -1.2890
 7518SOL     OW23131   1.307   7.452   7.542 -0.5919 -0.1108  0.0843
 7518SOL    HW123132   1.322   7.540   7.508 -1.0081 -0.5938 -1.4512
 7518SOL    HW223133   1.329   7.394   7.469  0.5678 -1.3545  1.3508
 7519SOL     OW23134   3.584   5.885   3.001  0.2306  0.3657  0.1846
 7519SOL    HW123135   3.636   5.804   3.009 -0.7981 -0.2847  0.4615
 7519SOL    HW223136   3.522   5.881   3.073  0.0023  1.2984  0.0527
 7520SOL     OW23137   0.646   0.849   9.215  0.3291  0.5949 -0.1067
 7520SOL    HW123138   0.660   0.764   9.257 -1.3685  1.0849  1.5431
 7520SOL    HW223139   0.717   0.904   9.249  1.5579 -0.1306 -1.3341
 7521SOL     OW23140   1.944   1.093   5.887 -0.1823  0.2956 -0.2437
 7521SOL    HW123141   2.038   1.111   5.877 -0.3826  0.5146 -2.2759
 7521SOL    HW223142   1.924   1.031   5.816 -1.6196  0.4929 -0.0390
 7522SOL     OW23143   8.684   3.772   1.568 -0.3283 -0.3694  0.2056
 7522SOL    HW123144   8.712   3.706   1.504 -1.3632 -0.4251 -0.1998
 7522SOL    HW223145   8.732   3.851   1.542 -0.8262 -0.3599 -0.7227
 7523SOL     OW23146   5.337   1.804   6.153  0.4356 -0.7553 -0.3985
 7523SOL    HW123147   5.431   1.810   6.135  0.4578 -1.1045 -0.4059
 7523SOL    HW223148   5.315   1.713   6.135 -0.1931 -0.3577 -1.7311
 7524SOL     OW23149   6.140   5.721   1.335 -0.3019  0.0100  0.4855
 7524SOL    HW123150   6.176   5.804   1.304  0.1027 -0.3851 -0.1256
 7524SOL    HW223151   6.082   5.746   1.407 -2.5516  1.1490 -1.5595
 7525SOL     OW23152   9.287   3.096   4.746  0.4490 -0.4824 -0.2669
 7525SOL    HW123153   9.206   3.084   4.797 -0.5301 -1.2145 -1.9163
 7525SOL    HW223154   9.271   3.175   4.694  1.9233  0.9754  1.3574
 7526SOL     OW23155   5.702   8.994   5.168  0.0233  0.2073 -0.3097
 7526SOL    HW123156   5.700   9.053   5.092 -2.0121 -0.1021 -0.5381
 7526SOL    HW223157   5.640   9.033   5.230 -0.1735 -0.8654  0.1814
 7527SOL     OW23158   2.283   1.569   5.173 -0.1796 -0.1323  0.4260
 7527SOL    HW123159   2.347   1.516   5.125 -2.3717 -1.1973 -1.5141
 7527SOL    HW223160   2.330   1.599   5.251  1.9852 -2.7417  0.2669
 7528SOL     OW23161   3.494   6.523   6.996  0.2230  0.0017  0.6634
 7528SOL    HW123162   3.489   6.532   6.901 -0.2985 -0.3890  0.6524
 7528SOL    HW223163   3.405   6.543   7.026  0.7375  1.6591  1.1996
 7529SOL     OW23164   1.998   6.296   4.697 -0.4290 -0.0627 -0.4048
 7529SOL    HW123165   1.949   6.254   4.626  0.0549  0.2061 -0.8988
 7529SOL    HW223166   1.964   6.385   4.699 -0.5633 -0.1166 -0.1776
 7530SOL     OW23167   6.581   3.902   4.208 -0.1384 -0.0566  0.3851
 7530SOL    HW123168   6.596   3.941   4.122  2.3723 -1.6596 -0.0309
 7530SOL    HW223169   6.578   3.808   4.191  2.1821 -0.5373  2.1628
 7531SOL     OW23170   4.807   3.382   8.184  0.0425 -0.6101  0.2308
 7531SOL    HW123171   4.805   3.471   8.147 -1.0345 -0.7867 -0.1765
 7531SOL    HW223172   4.836   3.327   8.111 -0.9465 -0.8061 -0.0266
 7532SOL     OW23173   3.146   5.855   8.884  0.2226  0.2592  0.5143
 7532SOL    HW123174   3.204   5.922   8.920  0.2335  0.3458  0.3353
 7532SOL    HW223175   3.063   5.900   8.868  0.2181  0.2223  0.4306
 7533SOL     OW23176   7.223   9.955   3.834 -0.1196  0.1797  0.0257
 7533SOL    HW123177   7.164   9.880   3.824 -0.0559 -0.0851  1.3571
 7533SOL    HW223178   7.216   9.977   3.927 -0.8293  2.4264 -0.5130
 7534SOL     OW23179   1.996   1.186   0.821 -0.3753  0.1805 -1.2225
 7534SOL    HW123180   1.947   1.106   0.802 -0.4416  0.0197 -0.4281
 7534SOL    HW223181   2.015   1.224   0.735 -0.1586 -0.7962 -1.6223
 7535SOL     OW23182   7.837   4.510   0.341  0.0466 -0.0083  0.4687
 7535SOL    HW123183   7.859   4.603   0.353 -0.2722  0.0773  0.3873
 7535SOL    HW223184   7.841   4.474   0.429  1.0429 -0.1147  0.3992
 7536SOL     OW23185   4.118   1.991   8.485 -0.0126 -0.0743 -0.5029
 7536SOL    HW123186   4.093   2.006   8.394 -1.1892 -0.6816 -0.2914
 7536SOL    HW223187   4.183   2.059   8.503 -0.4081  0.5966 -1.5325
 7537SOL     OW23188   7.072   0.867   5.634 -0.2814 -1.3901 -0.0135
 7537SOL    HW123189   7.045   0.882   5.725 -0.2611 -1.9756  0.0881
 7537SOL    HW223190   7.139   0.799   5.639  2.7115  1.3252 -0.0680
 7538SOL     OW23191   9.812   5.448   6.087  0.7514 -0.0006 -0.5144
 7538SOL    HW123192   9.776   5.519   6.033  1.2550  0.9855  0.4092
 7538SOL    HW223193   9.775   5.368   6.049 -2.0660  0.9174  0.0915
 7539SOL     OW23194   9.669   3.053   6.955 -0.2112 -0.0704  0.1415
 7539SOL    HW123195   9.672   3.122   6.889  1.8402 -0.5443 -0.3291
 7539SOL    HW223196   9.758   3.049   6.989 -1.0197 -0.4276  2.3595
 7540SOL     OW23197   3.725   1.649   2.238 -0.1461 -0.1272 -0.1430
 7540SOL    HW123198   3.673   1.569   2.236 -0.0777 -0.1853 -2.6801
 7540SOL    HW223199   3.669   1.715   2.197 -0.2874  1.2473  2.0988
 7541SOL     OW23200   5.106   9.906   7.733  0.5848  0.3589 -0.3069
 7541SOL    HW123201   5.133   9.870   7.648  2.2746  0.6293  0.0703
 7541SOL    HW223202   5.063   9.832   7.777  0.5064 -0.0479 -1.0452
 7542SOL     OW23203   7.644   0.250   2.433  0.0317 -0.2532 -0.0792
 7542SOL    HW123204   7.585   0.306   2.483  0.8843  0.5303  0.0628
 7542SOL    HW223205   7.585   0.197   2.378 -0.9414 -1.3172  1.8768
 7543SOL     OW23206   0.347   8.650   9.272 -0.1602  0.1450  0.2299
 7543SOL    HW123207   0.341   8.642   9.177 -0.1589  0.3110  0.2168
 7543SOL    HW223208   0.344   8.559   9.303  3.0856 -0.1722 -0.0964
 7544SOL     OW23209   5.378   2.114   4.875 -0.5832  0.1824  0.2801
 7544SOL    HW123210   5.444   2.065   4.825 -1.1075 -1.1283  0.8118
 7544SOL    HW223211   5.394   2.205   4.854 -0.2818 -0.2781 -1.6517
 7545SOL     OW23212   1.266   1.023   0.679 -0.9851 -0.2455  0.9616
 7545SOL    HW123213   1.236   1.102   0.635  2.3500  0.9084  0.5373
 7545SOL    HW223214   1.220   0.952   0.633 -0.0619  1.1129 -2.3404
 7546SOL     OW23215   6.504   5.536   7.972  0.3397  0.1953 -0.5169
 7546SOL    HW123216   6.420   5.509   7.934 -0.2440 -1.0161  1.4695
 7546SOL    HW223217   6.497   5.631   7.980 -1.3029  0.0302  0.5449
 7547SOL     OW23218   7.610   8.303   4.744 -0.7968 -0.4398  0.2697
 7547SOL    HW123219   7.658   8.355   4.679 -0.4066 -0.8644  0.2105
 7547SOL    HW223220   7.539   8.361   4.773 -0.0719  0.3250  0.5795
 7548SOL     OW23221   4.666   0.479   5.830 -0.6151 -0.2338 -0.1831
 7548SOL    HW123222   4.577   0.512   5.837 -0.3112  0.5832 -0.1227
 7548SOL    HW223223   4.660   0.387   5.858 -1.2030  0.1580  1.0163
 7549SOL     OW23224   8.401   2.477   8.639  0.1182 -0.0757  0.1666
 7549SOL    HW123225   8.364   2.403   8.591  0.0635 -0.9446  1.5002
 7549SOL    HW223226   8.457   2.522   8.576  0.9626 -1.8504 -0.3871
 7550SOL     OW23227   8.871   5.163   0.528 -0.6592  1.0127 -0.2219
 7550SOL    HW123228   8.931   5.146   0.455 -0.7171 -1.9923  0.2940
 7550SOL    HW223229   8.907   5.241   0.570  1.9483  0.3122 -0.9297
 7551SOL     OW23230   5.468   1.173   5.574 -0.9482  0.6366  0.2396
 7551SOL    HW123231   5.557   1.151   5.544 -1.6974 -0.7374 -1.1027
 7551SOL    HW223232   5.423   1.204   5.496 -2.0328  0.0702  0.6204
 7552SOL     OW23233   1.235   5.521   3.288  0.2935  0.2286 -0.2557
 7552SOL    HW123234   1.309   5.463   3.275  0.9098  0.9713 -0.1355
 7552SOL    HW223235   1.194   5.528   3.202  0.6422  0.1836 -0.4256
 7553SOL     OW23236   7.177   9.477   4.659 -0.2847  0.4631  0.2421
 7553SOL    HW123237   7.149   9.509   4.573  0.0364 -1.4125 -0.6252
 7553SOL    HW223238   7.237   9.543   4.692  1.3152  0.2186 -1.9826
 7554SOL     OW23239   0.387   4.932   5.865 -0.1952  0.2706  0.4920
 7554SOL    HW123240   0.482   4.940   5.867 -0.3194  2.0487  2.4600
 7554SOL    HW223241   0.365   4.918   5.773  1.9263  0.2125 -0.0392
 7555SOL     OW23242   4.909   8.780   3.857  0.1040 -0.0409 -0.3616
 7555SOL    HW123243   4.938   8.722   3.927  0.0666  0.4207  0.0420
 7555SOL    HW223244   4.897   8.865   3.899 -0.1059  0.1983 -0.8880
 7556SOL     OW23245   5.637   4.643   3.998 -0.3786  0.5503 -0.4011
 7556SOL    HW123246   5.699   4.710   4.027  0.4425 -0.7607  1.0678
 7556SOL    HW223247   5.551   4.680   4.017  0.0884  0.4290  2.3792
 7557SOL     OW23248   7.494   5.916   2.730 -0.4005  0.3519 -0.2059
 7557SOL    HW123249   7.434   5.958   2.791 -0.9020 -0.9999  0.2847
 7557SOL    HW223250   7.453   5.831   2.711  0.2466  0.3214 -1.6373
 7558SOL     OW23251   0.027   7.177   1.852 -0.3364 -0.3985 -0.2228
 7558SOL    HW123252   0.113   7.220   1.851 -0.8902  0.7650 -0.3812
 7558SOL    HW223253  -0.023   7.224   1.785 -1.9274  0.8083  1.6910
 7559SOL     OW23254   7.950   1.786   7.921 -0.3795  0.3490  0.4543
 7559SOL    HW123255   7.881   1.796   7.854 -1.0878 -0.6912  0.9879
 7559SOL    HW223256   8.014   1.854   7.901 -0.3434 -0.2213 -1.5711
 7560SOL     OW23257   4.704   2.711   7.235 -0.2309 -0.2813  0.3088
 7560SOL    HW123258   4.753   2.629   7.227 -0.7098 -0.5586  0.0945
 7560SOL    HW223259   4.767   2.775   7.265 -0.1321 -1.0193  1.7447
 7561SOL     OW23260   9.469   6.706   2.322  0.5804  0.5232  0.0148
 7561SOL    HW123261   9.387   6.754   2.334  0.0872 -0.5094  1.0097
 7561SOL    HW223262   9.538   6.771   2.332  0.0193  0.8058  3.1490
 7562SOL     OW23263   3.039   2.987   6.890  0.5621 -0.0218  0.0502
 7562SOL    HW123264   3.104   2.928   6.853  1.5847  0.2922  1.2474
 7562SOL    HW223265   3.008   2.942   6.969  0.8544  0.7301  0.6064
 7563SOL     OW23266   2.807   4.937   3.713 -0.3517 -0.2924 -0.0670
 7563SOL    HW123267   2.826   5.020   3.669  3.7695 -1.7600 -1.6063
 7563SOL    HW223268   2.853   4.944   3.797  1.2773 -1.4343 -0.8175
 7564SOL     OW23269   5.353   0.398   9.400  0.3078  0.1072 -0.3294
 7564SOL    HW123270   5.440   0.392   9.439  0.6703  0.5845 -1.0338
 7564SOL    HW223271   5.303   0.452   9.462 -0.3155 -2.3122  1.4262
 7565SOL     OW23272   0.858   0.416   8.773  0.0621  0.3492  0.6508
 7565SOL    HW123273   0.863   0.359   8.850  1.1511 -0.1554  0.2342
 7565SOL    HW223274   0.800   0.487   8.799  1.6178  1.0293  2.4977
 7566SOL     OW23275   8.661   4.115   9.480  0.1856  0.1795 -0.5190
 7566SOL    HW123276   8.607   4.067   9.543 -2.8633  4.7197  0.8401
 7566SOL    HW223277   8.607   4.120   9.401  2.4396 -2.2465 -2.4239
 7567SOL     OW23278   4.873   7.457   9.886 -0.5494  0.0096  0.2079
 7567SOL    HW123279   4.946   7.505   9.926 -0.5557 -0.6019  0.9801
 7567SOL    HW223280   4.859   7.383   9.944 -0.2426 -1.2087 -1.2188
 7568SOL     OW23281   7.887   1.274   7.565 -0.1267 -0.1203 -0.2133
 7568SOL    HW123282   7.848   1.270   7.652  2.3299 -0.6374  0.9673
 7568SOL    HW223283   7.918   1.364   7.556 -2.1371  0.4949 -1.4479
 7569SOL     OW23284   5.154   7.670   3.265 -0.1477 -0.1953  0.4371
 7569SOL    HW123285   5.109   7.640   3.344  0.7182 -1.8816  0.3395
 7569SOL    HW223286   5.085   7.679   3.199 -0.6016 -0.8195  0.8222
 7570SOL     OW23287   8.712   2.905   7.542 -0.5133 -0.3654  0.0496
 7570SOL    HW123288   8.624   2.942   7.534  0.1878  1.4794  0.2893
 7570SOL    HW223289   8.769   2.982   7.549  1.1490 -1.5095 -0.3856
 7571SOL     OW23290   0.297   0.187   9.556  0.1022  0.2711  0.5350
 7571SOL    HW123291   0.367   0.145   9.506  1.5338  0.2976  2.3932
 7571SOL    HW223292   0.244   0.114   9.589  0.0261  0.1725  0.1953
 7572SOL     OW23293   7.637   3.067   4.245 -0.5344  0.0173 -0.2983
 7572SOL    HW123294   7.588   3.096   4.322  0.3102  0.9390 -0.0838
 7572SOL    HW223295   7.601   3.118   4.173  0.6064  1.3030 -0.0056
 7573SOL     OW23296   4.804   2.680   0.104  0.2564 -0.0743 -0.0500
 7573SOL    HW123297   4.871   2.721   0.157  0.5715 -1.6040  0.7781
 7573SOL    HW223298   4.805   2.730   0.022  2.1759  0.1285  0.0588
 7574SOL     OW23299   3.485   1.326   9.197  0.5570  0.6038  0.4939
 7574SOL    HW123300   3.576   1.316   9.171  0.0415  0.5066 -1.4816
 7574SOL    HW223301   3.465   1.418   9.179 -0.6015 -0.0895 -2.5375
 7575SOL     OW23302   6.047   7.024   6.134  0.1926 -0.1010  0.7395
 7575SOL    HW123303   6.003   7.051   6.054  0.2895  0.6808  0.9326
 7575SOL    HW223304   5.978   7.021   6.200  0.3602  0.7890  0.9661
 7576SOL     OW23305   3.585   0.455   6.464  0.0205 -0.4501  0.0440
 7576SOL    HW123306   3.573   0.548   6.449 -3.4108 -1.0455 -2.0213
 7576SOL    HW223307   3.502   0.415   6.437  1.1350 -4.0697  1.3285
 7577SOL     OW23308   0.291   3.731   0.887  0.0619  0.2393  0.1995
 7577SOL    HW123309   0.282   3.709   0.980 -0.9981  0.1112  0.0787
 7577SOL    HW223310   0.244   3.662   0.841  0.4076  0.4112 -0.4302
 7578SOL     OW23311   2.737   1.710   3.998  0.0202  0.0765 -0.3845
 7578SOL    HW123312   2.813   1.762   3.974  0.4270  0.6118  1.8128
 7578SOL    HW223313   2.681   1.711   3.921  1.9017  0.2662 -1.8085
 7579SOL     OW23314   7.875   2.633   9.714  0.1339 -0.4915 -0.0524
 7579SOL    HW123315   7.970   2.637   9.717  0.1400  0.4662 -0.7890
 7579SOL    HW223316   7.847   2.665   9.800  0.4779  0.4481 -0.2728
 7580SOL     OW23317   1.017   8.554   5.915 -0.6000 -0.0577  0.0599
 7580SOL    HW123318   1.107   8.572   5.890 -1.0635  0.7952 -1.0647
 7580SOL    HW223319   1.023   8.522   6.005  0.7143  1.0319  0.3811
 7581SOL     OW23320   6.146   7.099   3.866 -0.0468  0.0144 -1.0519
 7581SOL    HW123321   6.161   7.154   3.789  1.2824 -0.8641 -1.4502
 7581SOL    HW223322   6.228   7.052   3.878 -0.5447 -0.5332  0.3767
 7582SOL     OW23323   6.940   8.416   3.310  0.0255  0.4570 -0.2427
 7582SOL    HW123324   6.958   8.484   3.375  1.0863  0.5306 -0.5975
 7582SOL    HW223325   7.009   8.427   3.244  1.8421 -2.5858  0.9447
 7583SOL     OW23326   6.694   1.182   5.454  0.2224 -0.1322  0.8322
 7583SOL    HW123327   6.691   1.222   5.367  0.7873  1.0602  1.3397
 7583SOL    HW223328   6.779   1.139   5.458  0.3316  0.0903  0.9112
 7584SOL     OW23329   7.075   0.223   6.200  0.1311 -0.5697  0.9098
 7584SOL    HW123330   7.158   0.270   6.206  0.1290 -0.3476 -0.4211
 7584SOL    HW223331   7.100   0.131   6.205  0.1099 -0.5040  3.7990
 7585SOL     OW23332   4.086   4.126   6.150  0.4185  0.3051  0.2128
 7585SOL    HW123333   4.081   4.194   6.217  1.8109  0.0864  0.5686
 7585SOL    HW223334   4.178   4.100   6.148  0.3161 -0.0652 -1.4240
 7586SOL     OW23335   8.405   1.401   4.228 -0.3633  0.0162 -0.3206
 7586SOL    HW123336   8.313   1.424   4.213 -0.2044 -0.1429 -1.6101
 7586SOL    HW223337   8.450   1.427   4.148  0.5660 -0.7607 -0.0673
 7587SOL     OW23338   5.950   3.819   8.058  0.2739  0.4580  0.5425
 7587SOL    HW123339   5.929   3.870   8.137 -1.3372  1.6569 -0.5923
 7587SOL    HW223340   5.905   3.735   8.071 -1.9941  1.5160 -0.0705
 7588SOL     OW23341   0.057   5.555   9.668 -0.2488 -0.6055 -0.0988
 7588SOL    HW123342   0.025   5.500   9.739 -1.4292  0.5323  0.2898
 7588SOL    HW223343   0.125   5.502   9.625  0.3838 -1.3846  1.7604
 7589SOL     OW23344   1.347   5.030   2.863 -0.0400 -0.0071  0.7231
 7589SOL    HW123345   1.347   5.125   2.869  1.0770  0.0533  0.0667
 7589SOL    HW223346   1.389   5.000   2.944  1.3812  0.1716  0.0972
 7590SOL     OW23347   8.845   7.787   5.463 -0.2016 -0.3895  0.2690
 7590SOL    HW123348   8.929   7.759   5.499 -0.4832 -1.3763  0.1897
 7590SOL    HW223349   8.828   7.725   5.392 -1.4651 -0.8437  0.9388
 7591SOL     OW23350   2.818   4.605   3.154 -0.5208 -0.2084  0.0555
 7591SOL    HW123351   2.820   4.658   3.234  1.4230  0.8603 -0.6200
 7591SOL    HW223352   2.908   4.610   3.120 -0.8681 -2.0703 -1.2826
 7592SOL     OW23353   7.785   3.769   9.293  0.1831  0.3825  0.4629
 7592SOL    HW123354   7.792   3.700   9.359  0.0170 -0.8406 -0.7432
 7592SOL    HW223355   7.856   3.830   9.314 -0.2761  0.3760  2.1357
 7593SOL     OW23356   0.849   0.495   4.365  0.3209  0.2978 -0.0607
 7593SOL    HW123357   0.911   0.489   4.293  1.5575  0.6512  0.9253
 7593SOL    HW223358   0.784   0.559   4.337  1.6798  1.6324 -0.2450
 7594SOL     OW23359   7.303   9.652   9.548  0.4527 -0.3590 -0.4192
 7594SOL    HW123360   7.295   9.602   9.628  1.2478 -1.3047 -0.9118
 7594SOL    HW223361   7.301   9.586   9.478  1.0259  0.3287 -1.1033
 7595SOL     OW23362   6.329   7.871   7.364 -0.3882  0.3324  0.3744
 7595SOL    HW123363   6.251   7.917   7.334 -1.0658 -1.0176 -0.0032
 7595SOL    HW223364   6.295   7.796   7.414  0.6868  0.8231  1.9376
 7596SOL     OW23365   5.570   7.986   6.952  0.1726 -0.6308 -0.6480
 7596SOL    HW123366   5.541   8.006   7.041  0.2332 -0.0170 -0.7580
 7596SOL    HW223367   5.607   8.069   6.920 -0.9897 -0.4942 -1.6846
 7597SOL     OW23368   9.345   6.600   1.932 -0.4640 -0.8318 -0.1994
 7597SOL    HW123369   9.417   6.629   1.876 -0.8137  1.1111  0.2768
 7597SOL    HW223370   9.286   6.554   1.872  0.6819 -1.5736 -0.7840
 7598SOL     OW23371   2.830   2.631   8.365 -0.7005  0.3827 -0.1295
 7598SOL    HW123372   2.891   2.693   8.406  1.4289  0.1234 -2.6094
 7598SOL    HW223373   2.869   2.545   8.380 -2.5388 -0.2488  1.4707
 7599SOL     OW23374   2.621   8.889   4.645 -0.5315 -0.2085 -0.1190
 7599SOL    HW123375   2.706   8.931   4.657 -1.0809  1.0273 -0.3881
 7599SOL    HW223376   2.638   8.816   4.586  0.0386  1.2034 -1.7863
 7600SOL     OW23377   5.592   0.426   9.768  0.2078  0.3573 -0.1689
 7600SOL    HW123378   5.681   0.461   9.776  1.0843 -1.7612 -0.1177
 7600SOL    HW223379   5.592   0.346   9.820 -0.6538 -1.6231 -2.9786
 7601SOL     OW23380   7.566   0.554   3.447 -0.3018 -0.1204 -0.2205
 7601SOL    HW123381   7.603   0.607   3.376 -1.2480 -0.9732 -1.3853
 7601SOL    HW223382   7.632   0.487   3.463  0.2002  0.4493  0.1737
 7602SOL     OW23383   4.806   5.904   8.236  0.0657 -0.1357  0.2159
 7602SOL    HW123384   4.837   5.857   8.159 -1.7209  1.3306 -1.5046
 7602SOL    HW223385   4.723   5.861   8.258  0.8302 -0.9193  1.7629
 7603SOL     OW23386   0.675   2.129   7.575 -0.0972 -0.6152  0.2010
 7603SOL    HW123387   0.644   2.217   7.554  2.8787  0.1967 -1.2887
 7603SOL    HW223388   0.663   2.122   7.670  0.9436  2.0364  0.6169
 7604SOL     OW23389   4.267   5.660   9.357 -0.2026 -0.1477 -0.1083
 7604SOL    HW123390   4.293   5.680   9.447 -0.1272  2.0281 -0.5679
 7604SOL    HW223391   4.340   5.608   9.323  1.8188  2.4479 -0.1156
 7605SOL     OW23392   6.759   9.660   4.866  0.3383 -0.1333 -0.3778
 7605SOL    HW123393   6.749   9.656   4.771  1.3536 -0.6110 -0.4846
 7605SOL    HW223394   6.718   9.743   4.891  3.2776  1.9514 -1.7315
 7606SOL     OW23395   8.366   1.736   1.804  0.1916  0.1627  0.3152
 7606SOL    HW123396   8.343   1.650   1.767 -0.5193  0.8705 -0.9476
 7606SOL    HW223397   8.341   1.730   1.896  1.4789 -1.4624  0.6126
 7607SOL     OW23398   3.541   6.453   6.132  0.3549 -0.0878 -0.1537
 7607SOL    HW123399   3.587   6.460   6.049  0.5464  0.8513  0.0186
 7607SOL    HW223400   3.609   6.433   6.196  0.2779 -0.3565 -0.1582
 7608SOL     OW23401   3.902   1.160   9.273  0.4946  0.5374  0.0669
 7608SOL    HW123402   3.895   1.096   9.203  0.1310 -0.2397  0.7943
 7608SOL    HW223403   3.994   1.158   9.299  0.2372 -0.6830  0.9736
 7609SOL     OW23404   5.566   1.382   3.377 -0.0607 -0.3832 -0.4671
 7609SOL    HW123405   5.604   1.468   3.396 -0.9332  0.3695 -1.9385
 7609SOL    HW223406   5.509   1.398   3.302  0.2014 -2.3637 -1.1276
 7610SOL     OW23407   1.362   0.783   7.921 -0.6340  0.4023  0.5993
 7610SOL    HW123408   1.370   0.844   7.848  1.5087  4.2237  3.6262
 7610SOL    HW223409   1.351   0.839   7.998 -1.1041 -3.2324  3.4568
 7611SOL     OW23410   9.039   8.837   7.401  0.1242 -0.0623  0.0441
 7611SOL    HW123411   8.986   8.915   7.389  0.0595 -0.1335 -0.1366
 7611SOL    HW223412   8.979   8.772   7.436  0.6171  0.5542  2.1372
 7612SOL     OW23413   6.885   6.153   6.708  0.0484 -0.3989  0.1160
 7612SOL    HW123414   6.909   6.080   6.766 -1.0308 -2.3207 -1.6885
 7612SOL    HW223415   6.956   6.156   6.643  0.6114  0.8842  0.7735
 7613SOL     OW23416   2.703   9.049   8.701 -0.6360  0.2227  0.6987
 7613SOL    HW123417   2.612   9.018   8.694 -0.6131  0.3897 -0.7151
 7613SOL    HW223418   2.756   8.969   8.697 -0.7146 -0.1065  3.7154
 7614SOL     OW23419   2.125   5.929   0.796  0.2858 -0.1257 -0.4845
 7614SOL    HW123420   2.154   5.847   0.836  0.1481 -0.3883 -0.9234
 7614SOL    HW223421   2.185   5.943   0.723  2.6814  2.0479  1.6775
 7615SOL     OW23422   2.702   0.097   7.199 -0.5667 -0.5303  0.3813
 7615SOL    HW123423   2.771   0.155   7.231 -0.8397 -0.8655  1.6507
 7615SOL    HW223424   2.745   0.012   7.190 -0.3436 -0.3022 -0.7605
 7616SOL     OW23425   3.647   8.625   1.656  0.1766  0.1584 -0.0252
 7616SOL    HW123426   3.600   8.662   1.582 -0.9716 -1.6184 -0.2510
 7616SOL    HW223427   3.740   8.635   1.633 -0.0644  2.5632 -0.1539
 7617SOL     OW23428   3.511   4.704   0.629  0.2383  0.1667  0.2007
 7617SOL    HW123429   3.553   4.786   0.603  0.1335  0.1316 -0.0916
 7617SOL    HW223430   3.500   4.711   0.724 -0.8743  1.0199  0.0460
 7618SOL     OW23431   8.509   5.108   6.168  0.2924 -0.3512 -0.4153
 7618SOL    HW123432   8.540   5.192   6.199 -1.2311 -0.5505  1.8833
 7618SOL    HW223433   8.414   5.119   6.159 -0.0112 -1.9165  0.4127
 7619SOL     OW23434   4.931   8.940   2.540 -0.9175  0.0435 -0.0956
 7619SOL    HW123435   5.013   8.932   2.588 -1.1968 -1.3305  0.1965
 7619SOL    HW223436   4.956   8.975   2.455 -0.2376  1.1190  0.5303
 7620SOL     OW23437   9.545   2.943   8.559 -0.1161 -0.0649 -0.1996
 7620SOL    HW123438   9.523   3.036   8.554  1.1886  0.1996 -2.0420
 7620SOL    HW223439   9.633   2.941   8.598  0.5789 -0.3611 -1.7113
 7621SOL     OW23440   0.778   3.549   1.728 -0.2611 -0.2896 -0.7046
 7621SOL    HW123441   0.869   3.569   1.705 -0.1501  2.1236  1.4071
 7621SOL    HW223442   0.784   3.484   1.798  0.0892  1.6241  1.1677
 7622SOL     OW23443   7.887   0.089   6.058 -0.1942 -0.4083 -0.3068
 7622SOL    HW123444   7.958   0.042   6.101  0.6400 -0.4877 -1.6894
 7622SOL    HW223445   7.870   0.165   6.114  0.4055 -0.8382  0.4730
 7623SOL     OW23446   2.218   6.380   2.890 -0.0513 -0.6254  0.1339
 7623SOL    HW123447   2.240   6.313   2.954 -0.1821 -1.1804 -0.3960
 7623SOL    HW223448   2.302   6.400   2.847 -0.4404 -2.4269 -1.5842
 7624SOL     OW23449   3.584   7.047   6.757  0.1575  0.0515 -0.6444
 7624SOL    HW123450   3.584   6.951   6.755  0.5126  0.0531 -0.9412
 7624SOL    HW223451   3.646   7.072   6.688  1.9835  0.4483  1.0418
 7625SOL     OW23452   5.845   6.433   0.079 -0.1998 -0.6549  0.2430
 7625SOL    HW123453   5.771   6.491   0.062  1.7501  1.5291 -1.4294
 7625SOL    HW223454   5.922   6.488   0.066  1.8644 -3.8371 -2.8951
 7626SOL     OW23455   8.223   5.022   2.274 -0.2382  0.0925  0.4277
 7626SOL    HW123456   8.153   5.054   2.331 -0.2251  0.8063  0.0615
 7626SOL    HW223457   8.185   4.947   2.229  0.3846 -1.7200  2.7759
 7627SOL     OW23458   1.651   9.143   5.171  0.0810  0.0088  0.4103
 7627SOL    HW123459   1.647   9.238   5.179 -1.5693  0.0806 -0.7524
 7627SOL    HW223460   1.630   9.110   5.258 -2.3845  0.7455  0.1686
 7628SOL     OW23461   5.005   9.267   3.006 -0.1317  0.6383  0.2497
 7628SOL    HW123462   5.008   9.312   2.921 -0.5685 -0.7844 -0.5461
 7628SOL    HW223463   5.057   9.188   2.993 -0.1260  0.4487  1.3466
 7629SOL     OW23464   0.681   0.396   4.938 -0.3256  0.2095  0.2003
 7629SOL    HW123465   0.633   0.318   4.910  0.9903 -0.5556 -0.0218
 7629SOL    HW223466   0.650   0.465   4.880  0.9912 -0.9342 -1.9992
 7630SOL     OW23467   2.360   7.351   5.588  0.5033 -0.1437 -0.4595
 7630SOL    HW123468   2.422   7.288   5.624  1.1999  0.0841 -1.2232
 7630SOL    HW223469   2.300   7.370   5.661  2.0233  0.5220  0.6956
 7631SOL     OW23470   4.159   4.675   2.168  0.6260 -0.8413 -0.3769
 7631SOL    HW123471   4.200   4.754   2.204  0.5611 -0.4773 -1.0839
 7631SOL    HW223472   4.218   4.604   2.193  0.9040 -0.5183 -0.1012
 7632SOL     OW23473   7.426   1.873   1.807 -0.2129  0.0553  0.0781
 7632SOL    HW123474   7.516   1.861   1.778 -0.7247  0.9969 -2.0969
 7632SOL    HW223475   7.383   1.789   1.791  0.6607 -1.0747  3.0175
 7633SOL     OW23476   4.975   8.448   0.345 -0.2487 -0.0140 -0.1052
 7633SOL    HW123477   5.070   8.441   0.342 -0.2375  0.1435 -0.0857
 7633SOL    HW223478   4.950   8.397   0.422 -0.2797 -1.1277 -0.8121
 7634SOL     OW23479   1.681   2.047   2.123  0.1007  0.1386  0.8690
 7634SOL    HW123480   1.677   2.035   2.028  0.7454  0.1342  0.8408
 7634SOL    HW223481   1.773   2.034   2.146  0.0193  0.5141  1.4439
 7635SOL     OW23482   2.104   2.079   2.799 -0.3458  0.4102 -0.1399
 7635SOL    HW123483   2.070   2.142   2.863 -0.1876  0.0752  0.2825
 7635SOL    HW223484   2.195   2.066   2.824 -0.3682  0.0407 -0.2409
 7636SOL     OW23485   3.579   9.024   0.505  0.3172  0.6805  0.0775
 7636SOL    HW123486   3.626   8.983   0.578 -0.6917  0.9144  0.8829
 7636SOL    HW223487   3.503   8.967   0.491  0.2590  0.8957 -0.4925
 7637SOL     OW23488   5.644   6.061   2.311 -0.1025  0.5459 -0.2848
 7637SOL    HW123489   5.558   6.076   2.273  0.2792  3.9842 -0.1322
 7637SOL    HW223490   5.705   6.079   2.239  0.5004  1.0634  0.3317
 7638SOL     OW23491   3.049   5.936   5.269 -0.1797  0.0666  0.1221
 7638SOL    HW123492   3.110   5.912   5.339 -2.6510  0.4310  2.5805
 7638SOL    HW223493   3.088   6.015   5.230  2.0675 -1.0547 -0.1002
 7639SOL     OW23494   0.919   0.601   5.054 -0.3053  0.0357 -0.4554
 7639SOL    HW123495   0.936   0.507   5.064 -1.1232 -0.2110 -1.1261
 7639SOL    HW223496   0.909   0.612   4.959  1.4531  1.1249 -0.5356
 7640SOL     OW23497   8.963   2.700   0.875  0.3170 -0.1419  0.0447
 7640SOL    HW123498   8.899   2.744   0.931  1.3565  1.0306  0.3525
 7640SOL    HW223499   8.914   2.677   0.796 -0.5363  0.5122  0.3690
 7641SOL     OW23500   6.723   7.814   4.448 -0.0452  0.0950  0.1444
 7641SOL    HW123501   6.700   7.722   4.440  0.0032  0.0138  0.8649
 7641SOL    HW223502   6.644   7.856   4.482  0.4943 -0.0076  1.6145
 7642SOL     OW23503   6.422   9.221   5.424  0.2683 -1.1013 -0.3787
 7642SOL    HW123504   6.513   9.233   5.453  0.2834 -2.5989  0.3360
 7642SOL    HW223505   6.430   9.172   5.342  0.1320  0.1180 -1.1307
 7643SOL     OW23506   9.435   5.622   1.260 -0.2408 -0.3821 -0.0871
 7643SOL    HW123507   9.449   5.651   1.351  0.8088 -0.4013 -0.2262
 7643SOL    HW223508   9.402   5.533   1.269 -2.1248  0.3182  0.3105
 7644SOL     OW23509   6.214   3.524   9.810 -0.0112  0.2738 -0.7140
 7644SOL    HW123510   6.200   3.568   9.726  0.3242  2.3138  0.2592
 7644SOL    HW223511   6.129   3.531   9.855  0.2251  0.4764 -0.2995
 7645SOL     OW23512   1.512   7.752   6.247  0.3437 -0.0684 -0.0909
 7645SOL    HW123513   1.575   7.736   6.177  0.8791 -1.2599  0.6362
 7645SOL    HW223514   1.446   7.809   6.207  0.6760 -0.6548 -1.5361
 7646SOL     OW23515   1.904   0.887   0.306  0.0855  0.6940  0.7646
 7646SOL    HW123516   1.944   0.869   0.391 -0.5746  2.1021  1.4120
 7646SOL    HW223517   1.930   0.977   0.286 -1.0046  0.8980  0.1997
 7647SOL     OW23518   4.513   2.476   8.629  0.2441 -0.5334  0.5267
 7647SOL    HW123519   4.584   2.413   8.632  0.6945 -0.1741  4.9733
 7647SOL    HW223520   4.556   2.561   8.635 -0.4713 -0.1638  0.5325
 7648SOL     OW23521   1.478   4.656   9.113  0.4498 -0.1580 -0.6436
 7648SOL    HW123522   1.507   4.579   9.064  0.9054 -0.7535  0.5260
 7648SOL    HW223523   1.511   4.730   9.063  1.7829 -0.7698 -0.7148
 7649SOL     OW23524   3.630   0.278   1.831 -0.2276 -0.2480 -0.1677
 7649SOL    HW123525   3.694   0.309   1.766 -0.8518  0.0775 -0.6449
 7649SOL    HW223526   3.595   0.197   1.793 -0.4297 -0.1771 -0.1365
 7650SOL     OW23527   4.994   0.596   2.524 -0.3871 -0.0612  0.0842
 7650SOL    HW123528   4.993   0.584   2.429 -0.5002  1.0048 -0.0697
 7650SOL    HW223529   4.960   0.685   2.537 -2.5998 -0.9821  1.2711
 7651SOL     OW23530   2.031   8.549   7.286 -0.0384  0.0424 -0.3567
 7651SOL    HW123531   2.001   8.503   7.208 -0.2686 -0.7148  0.1682
 7651SOL    HW223532   2.016   8.642   7.267  0.4931 -0.0798 -1.4527
 7652SOL     OW23533   1.312   2.704   1.075  0.5933 -0.5207  0.6179
 7652SOL    HW123534   1.321   2.792   1.038 -2.8279  0.1273  0.9904
 7652SOL    HW223535   1.397   2.686   1.115  1.7722  2.1272 -0.4501
 7653SOL     OW23536   9.035   7.296   1.366  0.4905 -0.5342  0.2936
 7653SOL    HW123537   9.014   7.307   1.459 -1.2457 -1.6671  0.0881
 7653SOL    HW223538   8.963   7.341   1.321  0.2408 -1.6902 -0.4901
 7654SOL     OW23539   9.495   2.043   2.276 -0.1247  0.6760 -0.2196
 7654SOL    HW123540   9.447   1.997   2.346 -0.3049 -0.5527 -1.1108
 7654SOL    HW223541   9.464   2.133   2.281  2.0648  1.4058  3.2107
 7655SOL     OW23542   0.662   8.204   9.522  0.3059 -0.0851 -0.2461
 7655SOL    HW123543   0.630   8.117   9.545  0.9060 -0.1575  0.3160
 7655SOL    HW223544   0.663   8.252   9.605 -0.1688  0.5165 -0.5736
 7656SOL     OW23545   0.273   7.200   5.045  0.5655  0.1226 -0.0172
 7656SOL    HW123546   0.292   7.189   4.952  0.0041  1.4315 -0.3068
 7656SOL    HW223547   0.198   7.259   5.047  0.3302 -0.2050  1.2621
 7657SOL     OW23548   7.121   1.093   8.885  0.8746 -0.4525 -0.1123
 7657SOL    HW123549   7.039   1.042   8.892  2.3620 -3.1800 -1.0345
 7657SOL    HW223550   7.143   1.091   8.792  1.4235  1.2440 -0.0401
 7658SOL     OW23551   6.471   2.850   6.952 -0.2755  0.4131 -0.4391
 7658SOL    HW123552   6.515   2.793   6.889  0.2835  0.5241 -0.1459
 7658SOL    HW223553   6.407   2.898   6.899 -0.2680  0.0209 -0.8063
 7659SOL     OW23554   7.956   6.343   2.190  0.3999  0.3663  0.5739
 7659SOL    HW123555   7.913   6.319   2.108 -0.1140 -0.9627  1.1963
 7659SOL    HW223556   7.891   6.324   2.257  1.4387 -0.3110  1.4286
 7660SOL     OW23557   6.474   1.333   4.911 -0.1888 -0.2899 -0.1066
 7660SOL    HW123558   6.555   1.335   4.861 -0.0906 -0.3666  0.0506
 7660SOL    HW223559   6.431   1.252   4.884 -0.4262 -0.0279 -0.5257
 7661SOL     OW23560   4.116   1.022   3.622 -0.0242  0.0796  0.4157
 7661SOL    HW123561   4.064   1.015   3.702 -0.6932 -0.6259 -0.0546
 7661SOL    HW223562   4.177   1.093   3.638  1.2122 -1.3173  2.3144
 7662SOL     OW23563   6.714   5.065   8.693 -0.1840 -0.1428  0.3180
 7662SOL    HW123564   6.689   5.078   8.602  0.2254  1.8868  0.4587
 7662SOL    HW223565   6.810   5.066   8.693 -0.1719  1.1134  0.8916
 7663SOL     OW23566   0.735   8.871   9.716 -0.0905  0.1439  0.1571
 7663SOL    HW123567   0.664   8.900   9.658  1.4111 -0.8701 -2.3567
 7663SOL    HW223568   0.808   8.851   9.657  1.7281 -0.5528  2.4726
 7664SOL     OW23569   5.357   1.440   2.060  0.9465 -0.1683 -0.0015
 7664SOL    HW123570   5.279   1.398   2.025 -0.5744 -0.7273  3.6607
 7664SOL    HW223571   5.404   1.370   2.105 -0.0724  1.2473  3.6337
 7665SOL     OW23572   3.628   1.863   2.846 -0.5341  0.1827 -0.1882
 7665SOL    HW123573   3.719   1.870   2.817 -0.3943 -1.9823 -0.4215
 7665SOL    HW223574   3.611   1.947   2.889  1.7859  0.3894  0.4992
 7666SOL     OW23575   3.823   9.753   5.763  0.2086 -0.1286  0.2059
 7666SOL    HW123576   3.889   9.796   5.709 -1.1042  0.7851 -0.7464
 7666SOL    HW223577   3.813   9.810   5.839 -0.3932  0.4458 -0.2877
 7667SOL     OW23578   6.760   5.761   3.602 -0.5035  0.1671  0.2305
 7667SOL    HW123579   6.816   5.732   3.531 -0.3966 -0.6653  0.6427
 7667SOL    HW223580   6.705   5.685   3.622 -1.0227  0.6188  0.5543
 7668SOL     OW23581   2.068   5.204   6.522  0.2747  0.3110 -0.4209
 7668SOL    HW123582   2.114   5.170   6.446 -0.2069 -1.1190 -0.1054
 7668SOL    HW223583   2.117   5.172   6.597  0.5195  1.3787 -0.1087
 7669SOL     OW23584   3.401   0.652   9.420 -0.2690  0.1303 -0.1992
 7669SOL    HW123585   3.426   0.561   9.433 -0.4604 -0.1660 -1.6640
 7669SOL    HW223586   3.453   0.681   9.345 -1.1538  0.8169 -0.5696
 7670SOL     OW23587   8.361   9.511   6.843  0.0134 -0.5951 -0.6251
 7670SOL    HW123588   8.444   9.528   6.798  1.4909 -0.2745  2.0405
 7670SOL    HW223589   8.297   9.566   6.797  1.4820  0.0114 -2.0355
 7671SOL     OW23590   7.266   4.945   7.030  0.6691  0.1436 -0.0266
 7671SOL    HW123591   7.324   4.986   6.967 -1.4535  1.3464 -1.3079
 7671SOL    HW223592   7.256   4.855   6.999 -0.0044  0.6012 -1.1760
 7672SOL     OW23593   0.216   7.662   7.478 -0.6590 -0.0037  0.1372
 7672SOL    HW123594   0.131   7.641   7.517 -0.3890 -0.8208  0.3064
 7672SOL    HW223595   0.280   7.631   7.543 -0.2258 -0.0205 -0.2969
 7673SOL     OW23596   4.209   6.955   6.839  0.0155 -0.0709 -0.0446
 7673SOL    HW123597   4.115   6.943   6.820  0.2236  2.0290 -3.1723
 7673SOL    HW223598   4.222   6.913   6.924 -3.6011 -1.0750  0.1757
 7674SOL     OW23599   5.599   1.874   2.038 -0.0961 -0.0490  0.1441
 7674SOL    HW123600   5.539   1.863   2.112 -0.4478  1.8124  0.1886
 7674SOL    HW223601   5.548   1.919   1.971  1.0515  1.0846 -0.0279
 7675SOL     OW23602   0.264   4.529   1.774  0.0140 -0.4012 -0.5323
 7675SOL    HW123603   0.306   4.602   1.821 -0.7240 -0.9329  1.0388
 7675SOL    HW223604   0.326   4.457   1.782 -0.4785 -0.7402  0.4323
 7676SOL     OW23605   7.857   4.015   0.034 -0.3069  0.1115  0.0738
 7676SOL    HW123606   7.770   4.033   0.001 -0.0880 -0.6272 -0.9568
 7676SOL    HW223607   7.887   4.098   0.071 -1.5704  0.2777  0.7689
 7677SOL     OW23608   6.719   5.926   4.960  0.0984 -0.0086  0.0320
 7677SOL    HW123609   6.700   5.997   4.899 -1.3080 -0.2562  0.1564
 7677SOL    HW223610   6.726   5.969   5.045 -1.5196 -0.0801  0.2290
 7678SOL     OW23611   1.385   1.160   6.549 -0.4930  0.1865  0.7109
 7678SOL    HW123612   1.417   1.109   6.624  2.2226  0.8580  0.1213
 7678SOL    HW223613   1.357   1.094   6.486  1.7389 -0.6318  0.4729
 7679SOL     OW23614   4.807   2.351   0.528 -0.1070 -0.5495  0.1561
 7679SOL    HW123615   4.774   2.418   0.588  0.0098  0.9407 -1.3638
 7679SOL    HW223616   4.895   2.380   0.506 -0.0679 -1.1903 -0.5624
 7680SOL     OW23617   6.763   3.198   5.218  0.1979 -0.6823  0.1366
 7680SOL    HW123618   6.809   3.173   5.138  0.6998  0.4780  0.0453
 7680SOL    HW223619   6.723   3.282   5.198  1.4952  0.3158  1.5254
 7681SOL     OW23620   6.641   1.791   7.166  0.0455  0.0715  0.1984
 7681SOL    HW123621   6.601   1.764   7.083 -0.0972  0.4611  0.1398
 7681SOL    HW223622   6.693   1.868   7.144  1.0828 -0.6020  0.2124
 7682SOL     OW23623   1.408   6.486   0.976 -0.0315 -0.2930  0.7455
 7682SOL    HW123624   1.462   6.533   0.913  0.9148 -2.8316 -0.4705
 7682SOL    HW223625   1.454   6.496   1.059 -1.0269  2.6793  1.0311
 7683SOL     OW23626   2.784   2.214   5.040  0.2299  0.2447  0.3156
 7683SOL    HW123627   2.723   2.147   5.071 -2.0856  1.9975 -0.1168
 7683SOL    HW223628   2.769   2.289   5.099  1.8527  0.8058  0.0649
 7684SOL     OW23629   7.192   0.073   5.547  0.1177  0.5718 -0.2517
 7684SOL    HW123630   7.104   0.059   5.512 -1.0761 -0.5614  2.8354
 7684SOL    HW223631   7.186   0.155   5.597  0.3393 -0.2357  1.1608
 7685SOL     OW23632   2.272   5.030   3.608  0.5218 -0.2375  0.0477
 7685SOL    HW123633   2.272   5.099   3.675  2.5389  1.8801 -1.9514
 7685SOL    HW223634   2.350   4.978   3.626  0.7302 -0.0406 -0.2687
 7686SOL     OW23635   5.707   0.335   5.688 -0.3604 -0.0413  0.8853
 7686SOL    HW123636   5.689   0.403   5.624 -1.1796  1.8625  2.9722
 7686SOL    HW223637   5.681   0.253   5.645  1.2130  0.8125 -1.9208
 7687SOL     OW23638   2.478   4.118   2.013  0.2363 -0.2635 -0.0629
 7687SOL    HW123639   2.543   4.134   1.944 -0.4682 -0.1338 -0.7120
 7687SOL    HW223640   2.457   4.205   2.047 -1.1914 -0.0632 -1.3591
 7688SOL     OW23641   2.086   6.850   6.078 -0.3378 -0.2034  0.4419
 7688SOL    HW123642   2.008   6.905   6.084 -0.3074 -0.1309  0.1619
 7688SOL    HW223643   2.153   6.896   6.129 -0.1099  0.3633 -0.3538
 7689SOL     OW23644   6.969   4.912   4.087  0.5074 -0.4395  0.2578
 7689SOL    HW123645   6.876   4.897   4.102  0.6174 -0.5046  0.9292
 7689SOL    HW223646   6.983   4.890   3.995  0.1345 -1.8618  0.5126
 7690SOL     OW23647   2.364   0.143   3.718  0.0279  0.1293  0.0514
 7690SOL    HW123648   2.404   0.226   3.742  0.0211  0.3342 -0.6144
 7690SOL    HW223649   2.433   0.078   3.729 -0.0306  0.1913  0.7852
 7691SOL     OW23650   9.873   9.645   4.828  0.2685  0.0705  0.1298
 7691SOL    HW123651   9.812   9.689   4.768 -0.0736 -0.6862 -0.0859
 7691SOL    HW223652   9.927   9.716   4.863  0.8756  0.4611 -1.5087
 7692SOL     OW23653   7.375   4.950   5.938 -0.7732 -0.2381 -0.3433
 7692SOL    HW123654   7.390   4.926   6.030  0.7345  1.3881 -0.1024
 7692SOL    HW223655   7.426   4.887   5.888  1.3968  1.0226  0.1647
 7693SOL     OW23656   2.002   9.911   9.170  0.1624  0.7432  0.0362
 7693SOL    HW123657   1.908   9.896   9.183  0.1449 -1.7648 -2.2274
 7693SOL    HW223658   2.009   9.944   9.081  1.5579 -2.0879 -1.0194
 7694SOL     OW23659   5.841   1.794   5.766 -0.5547 -0.4168  0.2660
 7694SOL    HW123660   5.817   1.846   5.690  3.0783 -1.6326 -1.9340
 7694SOL    HW223661   5.803   1.707   5.748 -0.1571 -0.5583  0.1073
 7695SOL     OW23662   7.478   1.185   2.140  0.2999  0.2676  0.3125
 7695SOL    HW123663   7.405   1.137   2.179  1.5386 -0.7530  1.4773
 7695SOL    HW223664   7.439   1.234   2.068 -1.2851 -1.3269  0.0233
 7696SOL     OW23665   5.100   5.886   1.055  0.1205 -0.0286 -0.6055
 7696SOL    HW123666   5.167   5.818   1.054 -0.8533 -1.0148 -0.8128
 7696SOL    HW223667   5.145   5.964   1.089  1.9367 -0.0357 -2.7852
 7697SOL     OW23668   1.736   5.719   2.652 -0.1470  0.4582 -0.5246
 7697SOL    HW123669   1.733   5.745   2.744  1.5989  0.1893 -0.3632
 7697SOL    HW223670   1.827   5.693   2.638 -0.5010  0.0704 -2.2161
 7698SOL     OW23671   4.602   7.709   6.221  0.2410 -0.2436 -0.6236
 7698SOL    HW123672   4.520   7.747   6.191  0.0560 -2.1479 -2.8487
 7698SOL    HW223673   4.670   7.764   6.181 -0.0075 -0.8966 -1.9886
 7699SOL     OW23674   4.543   3.461   5.773 -0.2702  0.4653  0.0543
 7699SOL    HW123675   4.465   3.448   5.826  0.2169 -1.1138  0.4328
 7699SOL    HW223676   4.521   3.426   5.687  0.5699 -1.7258  0.6678
 7700SOL     OW23677   3.643   9.290   0.522 -0.3832  0.4243  0.2239
 7700SOL    HW123678   3.630   9.195   0.526 -2.5994  0.6467 -0.5391
 7700SOL    HW223679   3.711   9.307   0.588  1.7808 -1.9031 -1.1997
 7701SOL     OW23680   5.638   5.761   5.111 -0.1251 -0.4041  0.0327
 7701SOL    HW123681   5.658   5.670   5.090 -0.0619 -0.3410 -0.1868
 7701SOL    HW223682   5.654   5.768   5.205 -0.0065 -0.5883  0.0273
 7702SOL     OW23683   1.757   4.284   1.461 -0.1976 -0.1081 -0.3011
 7702SOL    HW123684   1.829   4.333   1.421 -0.6747  0.3408 -0.6152
 7702SOL    HW223685   1.702   4.257   1.388  0.1524 -1.2852 -0.1530
 7703SOL     OW23686   7.548   3.899   7.578  1.0216  1.0322  0.1804
 7703SOL    HW123687   7.541   3.815   7.625 -0.9998  0.6089 -0.7681
 7703SOL    HW223688   7.622   3.887   7.518  2.4528  0.9232  1.8899
 7704SOL     OW23689   9.559   4.608   3.494  0.3194  0.3143 -0.0969
 7704SOL    HW123690   9.570   4.635   3.585 -0.1494 -0.8112  0.3126
 7704SOL    HW223691   9.647   4.605   3.459  0.6828 -0.9223  0.8380
 7705SOL     OW23692   1.002   8.069   9.193 -0.4014  0.1642  0.9917
 7705SOL    HW123693   0.974   7.982   9.166 -0.5423  0.0772  1.3990
 7705SOL    HW223694   1.097   8.068   9.184 -0.4297  0.0756  0.6922
 7706SOL     OW23695   8.657   2.503   8.490 -0.0298  0.6947 -0.6723
 7706SOL    HW123696   8.672   2.549   8.408  0.1024  1.0245 -0.4660
 7706SOL    HW223697   8.740   2.461   8.511  0.5732  2.2776  0.3205
 7707SOL     OW23698   3.928   7.834   4.139  0.4804 -0.6589 -0.3633
 7707SOL    HW123699   3.997   7.874   4.086  0.2746 -0.5784 -0.5709
 7707SOL    HW223700   3.894   7.907   4.192  0.1994 -0.5875 -0.6413
 7708SOL     OW23701   8.817   3.876   2.280  0.2625  0.0154 -0.6310
 7708SOL    HW123702   8.733   3.920   2.264  0.8239  2.1569  1.7180
 7708SOL    HW223703   8.878   3.922   2.223  0.3301  0.4307 -0.2349
 7709SOL     OW23704   8.110   1.445   4.098  0.2719 -0.0941 -0.5564
 7709SOL    HW123705   8.022   1.427   4.064  0.9207  1.2248 -3.1990
 7709SOL    HW223706   8.131   1.532   4.065  1.3122  1.1622  2.8978
 7710SOL     OW23707   9.668   8.240   8.605 -0.2450  0.0584 -0.2074
 7710SOL    HW123708   9.596   8.199   8.653 -0.9262  0.2844 -1.0287
 7710SOL    HW223709   9.725   8.167   8.581 -0.7643 -0.2537 -0.5031
 7711SOL     OW23710   1.315   6.654   9.741  0.2967  0.4355 -0.4095
 7711SOL    HW123711   1.300   6.583   9.803  0.4058  0.5623 -0.2379
 7711SOL    HW223712   1.343   6.611   9.660 -2.5796  0.0421 -1.2955
 7712SOL     OW23713   3.188   9.778   1.340  0.0256  0.4226  0.4109
 7712SOL    HW123714   3.126   9.850   1.327  0.1149  0.5950  0.9279
 7712SOL    HW223715   3.270   9.810   1.304 -0.3432 -0.0823 -0.9623
 7713SOL     OW23716   8.005   0.457   1.981 -0.6592 -0.2706  0.0563
 7713SOL    HW123717   7.935   0.497   1.930  1.1624  0.2178 -2.2370
 7713SOL    HW223718   8.085   0.474   1.931  0.9924 -1.7363  1.9759
 7714SOL     OW23719   5.706   0.825   1.168 -0.0642  0.0512 -0.3032
 7714SOL    HW123720   5.725   0.887   1.098  2.3110 -0.5261 -0.2318
 7714SOL    HW223721   5.660   0.753   1.124  1.6975 -0.4681 -1.3957
 7715SOL     OW23722   6.854   6.973   0.059  0.2382  0.6710  0.2776
 7715SOL    HW123723   6.940   6.985   0.018  0.1557 -1.5875 -0.6547
 7715SOL    HW223724   6.858   7.028   0.138  2.7997  0.1041  0.6372
 7716SOL     OW23725   3.839   3.373   2.362  0.8799 -0.1001  0.2717
 7716SOL    HW123726   3.841   3.468   2.350 -0.6557  0.0379  0.9116
 7716SOL    HW223727   3.791   3.360   2.443  0.2790 -1.4578 -0.2705
 7717SOL     OW23728   5.982   0.861   5.291 -0.1922  0.3012  0.9156
 7717SOL    HW123729   6.031   0.826   5.217 -1.6211 -2.6066  1.1836
 7717SOL    HW223730   5.897   0.885   5.254 -0.9606 -1.2953  1.5414
 7718SOL     OW23731   2.964   6.339   0.117  0.6540  0.2660  0.4588
 7718SOL    HW123732   2.888   6.390   0.088  1.0532 -0.0451 -1.2745
 7718SOL    HW223733   2.960   6.259   0.065  0.8272 -0.8782  2.1181
 7719SOL     OW23734   1.670   6.175   9.144  0.2983 -0.1106 -0.0476
 7719SOL    HW123735   1.719   6.097   9.171  0.0156  0.1558  1.2871
 7719SOL    HW223736   1.733   6.246   9.151 -0.4216  0.3597  2.4319
 7720SOL     OW23737   3.347   2.005   6.288 -0.1686  0.1735  0.1093
 7720SOL    HW123738   3.260   2.027   6.253  0.2245 -0.2908 -1.2169
 7720SOL    HW223739   3.375   2.085   6.332 -0.6826  0.8085 -0.6841
 7721SOL     OW23740   2.836   8.435   7.985 -0.0677  0.0557  0.0078
 7721SOL    HW123741   2.806   8.525   7.979 -1.0182 -0.1005  1.8047
 7721SOL    HW223742   2.784   8.396   8.055  1.4025 -1.4475  0.3523
 7722SOL     OW23743   5.656   9.099   0.261  0.0569 -0.2019 -0.2095
 7722SOL    HW123744   5.695   9.177   0.300  1.1640 -0.1764 -1.3113
 7722SOL    HW223745   5.581   9.132   0.212  0.5847  0.1994 -0.7629
 7723SOL     OW23746   0.093   3.185   7.742  0.0610  0.1953 -0.0262
 7723SOL    HW123747   0.015   3.218   7.785  0.3797 -0.4255  1.0585
 7723SOL    HW223748   0.084   3.213   7.651 -0.0690  2.5587  0.6504
 7724SOL     OW23749   6.206   0.930   0.356  0.0120 -0.0823 -0.3003
 7724SOL    HW123750   6.251   1.013   0.338 -1.5260  1.1305  1.1470
 7724SOL    HW223751   6.254   0.865   0.304  1.2343  1.7031 -1.5295
 7725SOL     OW23752   0.218   2.124   3.639 -0.1689 -0.6233  0.4076
 7725SOL    HW123753   0.198   2.033   3.618 -0.4361 -0.4272 -0.2218
 7725SOL    HW223754   0.309   2.122   3.668 -0.3428 -1.1691  0.9427
 7726SOL     OW23755   1.131   8.561   1.818 -0.3470  0.4208 -0.7376
 7726SOL    HW123756   1.215   8.598   1.845 -0.2317 -0.8211  0.7203
 7726SOL    HW223757   1.071   8.636   1.819  0.6945  1.3285 -1.8020
 7727SOL     OW23758   1.977   9.037   2.881  0.1291  0.1664  0.7258
 7727SOL    HW123759   1.917   9.065   2.812  0.6749  1.7379  0.8532
 7727SOL    HW223760   1.921   9.013   2.954 -0.4146 -0.4538  0.1127
 7728SOL     OW23761   5.106   5.222   9.449 -0.3842  0.1199  0.1951
 7728SOL    HW123762   5.085   5.214   9.356 -0.0726 -0.4550  0.1673
 7728SOL    HW223763   5.047   5.290   9.482  0.3985  1.2506 -0.6899
 7729SOL     OW23764   9.312   9.434   3.583  0.0914 -0.0999 -0.7338
 7729SOL    HW123765   9.310   9.376   3.507 -0.6389 -0.8870 -0.1455
 7729SOL    HW223766   9.233   9.487   3.575  0.4941  0.4577 -1.0045
 7730SOL     OW23767   6.987   1.637   0.279  0.0597 -0.1802 -0.3812
 7730SOL    HW123768   7.055   1.704   0.280  0.5024 -0.6068 -1.1162
 7730SOL    HW223769   7.032   1.557   0.306 -0.9762  0.2235  3.0691
 7731SOL     OW23770   1.348   5.091   3.354  0.1238 -0.2169  0.5842
 7731SOL    HW123771   1.314   5.055   3.436  0.5974 -1.3124  0.3242
 7731SOL    HW223772   1.395   5.170   3.380  0.8239 -0.8982  1.4687
 7732SOL     OW23773   1.914   2.883   0.138  0.1913  0.3600 -0.1967
 7732SOL    HW123774   1.865   2.964   0.125 -0.0420  0.0175 -1.5769
 7732SOL    HW223775   1.982   2.906   0.202  0.0240  1.6001 -0.4392
 7733SOL     OW23776   0.539   2.368   7.508 -0.3532  0.1954 -0.1455
 7733SOL    HW123777   0.592   2.427   7.454  0.9498  0.6265  1.5096
 7733SOL    HW223778   0.455   2.412   7.518  0.1408  1.1231 -0.0390
 7734SOL     OW23779   7.184   3.042   3.217 -0.2493  0.1394 -0.2595
 7734SOL    HW123780   7.263   2.999   3.251  0.4898  1.8727  0.3563
 7734SOL    HW223781   7.169   3.115   3.277 -0.6474  1.5401 -1.9690
 7735SOL     OW23782   1.800   1.379   8.423  0.0000 -0.1008  0.0596
 7735SOL    HW123783   1.757   1.459   8.452  1.0017  0.6065 -0.3709
 7735SOL    HW223784   1.852   1.352   8.499 -0.0912 -0.1709  0.0972
 7736SOL     OW23785   0.277   4.942   4.442  0.2532 -0.2624  0.2340
 7736SOL    HW123786   0.290   5.000   4.366  1.4428 -0.4481  0.2746
 7736SOL    HW223787   0.213   4.878   4.413 -1.4359  1.3005  0.3245
 7737SOL     OW23788   0.460   8.807   2.695 -0.0760 -0.5398 -0.0609
 7737SOL    HW123789   0.444   8.741   2.763  2.2702 -0.4236  0.6922
 7737SOL    HW223790   0.404   8.781   2.622 -1.8696 -1.2893  1.4889
 7738SOL     OW23791   4.373   0.692   3.010 -0.0179 -0.3520  0.0941
 7738SOL    HW123792   4.407   0.692   3.099  0.8012 -1.6626 -0.1785
 7738SOL    HW223793   4.396   0.605   2.976  0.2876  0.3516 -1.6093
 7739SOL     OW23794   8.987   9.856   7.037  0.7488  0.2537  0.1095
 7739SOL    HW123795   9.073   9.874   7.075  0.4977  2.5666 -0.2965
 7739SOL    HW223796   8.976   9.922   6.969 -2.4091  1.8060  1.9023
 7740SOL     OW23797   3.502   8.272   7.132  0.1813 -0.0082 -0.9035
 7740SOL    HW123798   3.555   8.274   7.212  0.9538 -1.2237 -1.3629
 7740SOL    HW223799   3.563   8.292   7.062 -0.5032  1.1006 -1.2257
 7741SOL     OW23800   1.092   6.133   5.484  0.1221 -0.0031  0.4246
 7741SOL    HW123801   1.036   6.168   5.553  1.2203 -0.7815  1.7706
 7741SOL    HW223802   1.062   6.042   5.474  0.1143  0.0434  0.0358
 7742SOL     OW23803   4.527   0.270   0.889 -0.3826  0.3219  0.6421
 7742SOL    HW123804   4.442   0.283   0.847 -0.5240 -0.5693  0.6314
 7742SOL    HW223805   4.569   0.356   0.885 -1.9596  1.2642  2.1642
 7743SOL     OW23806   8.304   8.317   8.341 -0.2698 -0.1672  0.6529
 7743SOL    HW123807   8.386   8.269   8.350  0.3226  1.0358  2.1976
 7743SOL    HW223808   8.308   8.355   8.254  0.0096 -1.4998  0.0576
 7744SOL     OW23809   6.844   8.922   7.117  0.7449 -0.1598  0.0788
 7744SOL    HW123810   6.791   8.887   7.188 -0.0921 -0.1553 -0.5352
 7744SOL    HW223811   6.867   8.846   7.064  1.3550 -0.1617  0.3334
 7745SOL     OW23812   3.846   5.214   3.738 -0.3028 -0.2388 -0.5249
 7745SOL    HW123813   3.896   5.211   3.819 -1.0057 -2.6811 -0.0937
 7745SOL    HW223814   3.773   5.272   3.757  0.6956  0.9225 -0.1567
 7746SOL     OW23815   2.359   1.213   1.878  0.1104  0.7069 -0.0675
 7746SOL    HW123816   2.421   1.285   1.887 -0.1111  0.8606  0.2661
 7746SOL    HW223817   2.401   1.138   1.921  0.7810  0.3497 -1.3005
 7747SOL     OW23818   5.234   9.175   4.049 -0.2539  0.5929 -0.5385
 7747SOL    HW123819   5.303   9.146   4.108  0.7445  1.0629 -1.4470
 7747SOL    HW223820   5.164   9.204   4.107  0.0757 -0.4028  0.3948
 7748SOL     OW23821   7.942   0.531   8.254 -0.0210 -0.1639 -0.1755
 7748SOL    HW123822   7.867   0.510   8.199  0.8644 -1.8621 -0.8411
 7748SOL    HW223823   7.905   0.576   8.330 -1.5026  0.4468 -1.2201
 7749SOL     OW23824   8.237   1.588   1.611 -0.8798  0.6382 -0.3037
 7749SOL    HW123825   8.230   1.674   1.569  2.4959  1.4767  0.5374
 7749SOL    HW223826   8.152   1.576   1.655 -1.3208  3.7392 -0.0797
 7750SOL     OW23827   1.428   7.134   4.926 -0.7783  0.2253  0.6415
 7750SOL    HW123828   1.363   7.164   4.863 -0.9344 -0.3387  0.5276
 7750SOL    HW223829   1.485   7.076   4.876 -1.9841 -1.7228  1.3879
 7751SOL     OW23830   1.572   2.048   8.346  0.2197 -0.4111 -0.1717
 7751SOL    HW123831   1.600   1.966   8.388 -2.6021 -0.9823  0.8256
 7751SOL    HW223832   1.481   2.032   8.322 -0.4706  2.5113  0.1886
 7752SOL     OW23833   3.206   4.009   4.920 -0.6338  0.4008  0.0397
 7752SOL    HW123834   3.200   4.018   5.015 -1.7189  0.9805 -0.0719
 7752SOL    HW223835   3.297   3.983   4.905  0.1633  2.3093  1.1042
 7753SOL     OW23836   3.463   9.221   8.966 -0.1222  0.1967  0.7922
 7753SOL    HW123837   3.540   9.251   9.015  1.2023  0.0363 -1.1113
 7753SOL    HW223838   3.497   9.155   8.906 -1.5676  0.8271 -0.7802
 7754SOL     OW23839   6.077   7.884   4.563  0.1644  0.5529  0.0074
 7754SOL    HW123840   6.119   7.909   4.644 -0.1423  0.0161  0.3424
 7754SOL    HW223841   6.147   7.881   4.498  0.0951  3.1409 -0.2950
 7755SOL     OW23842   9.225   4.918   4.445 -0.0022 -0.1789 -0.4340
 7755SOL    HW123843   9.140   4.961   4.454 -1.0945 -2.4016  0.7252
 7755SOL    HW223844   9.238   4.874   4.529  0.6663 -2.6177 -1.7205
 7756SOL     OW23845   9.443   7.305   3.084  0.5212  0.4755  0.3432
 7756SOL    HW123846   9.496   7.381   3.106  1.8903 -1.0661  2.8704
 7756SOL    HW223847   9.388   7.290   3.161 -1.5118  0.2440 -1.0475
 7757SOL     OW23848   2.725   2.739   7.346  1.0812 -0.2173 -0.0200
 7757SOL    HW123849   2.761   2.688   7.419  0.3856 -1.0179 -0.2259
 7757SOL    HW223850   2.712   2.675   7.276 -1.0438 -0.0484  0.1513
 7758SOL     OW23851   2.275   5.177   4.999 -0.0549  0.0184 -0.1339
 7758SOL    HW123852   2.359   5.138   4.977 -0.1234 -0.2309  0.0386
 7758SOL    HW223853   2.297   5.265   5.032  0.2917 -0.6215  1.4665
 7759SOL     OW23854   3.098   0.984   6.043 -0.2042  0.1221  0.1853
 7759SOL    HW123855   3.035   1.054   6.031  2.6731  3.2440  1.6050
 7759SOL    HW223856   3.054   0.922   6.101 -3.1034  0.2974 -1.6438
 7760SOL     OW23857   5.614   6.749   5.172  0.0347  0.0023 -0.6154
 7760SOL    HW123858   5.533   6.777   5.214 -0.0881 -1.5895  0.2676
 7760SOL    HW223859   5.675   6.736   5.244  0.7950  0.2537 -1.1990
 7761SOL     OW23860   2.977   9.050   1.816  0.1997  0.0417  0.0097
 7761SOL    HW123861   2.928   9.128   1.841 -1.4022 -0.7446 -0.5245
 7761SOL    HW223862   2.991   9.004   1.899  0.2111  0.3637  0.1899
 7762SOL     OW23863   8.792   0.870   0.509  0.4274  0.1822 -0.7334
 7762SOL    HW123864   8.881   0.883   0.474  0.5817  0.5470 -0.2116
 7762SOL    HW223865   8.793   0.913   0.594  0.0462 -0.6814 -0.2762
 7763SOL     OW23866   8.165   4.606   8.791 -0.2305  0.0148 -0.1916
 7763SOL    HW123867   8.109   4.533   8.765  0.3449 -0.8191  0.8338
 7763SOL    HW223868   8.124   4.641   8.870  0.1305  0.0710 -0.0283
 7764SOL     OW23869   9.757   6.096   9.853  0.1418 -0.0004  0.4755
 7764SOL    HW123870   9.714   6.182   9.859  0.9725  0.4704 -0.1268
 7764SOL    HW223871   9.795   6.082   9.940  0.9792  0.7813  0.2543
 7765SOL     OW23872   6.577   8.631   7.686  0.2596 -0.2661 -0.4730
 7765SOL    HW123873   6.598   8.586   7.604  2.2542 -0.8562  0.2960
 7765SOL    HW223874   6.657   8.679   7.708  0.6343 -1.8936  2.2107
 7766SOL     OW23875   2.293   5.811   1.095 -0.2226  0.0865  0.4340
 7766SOL    HW123876   2.277   5.753   1.021 -0.1488  0.5497  0.0510
 7766SOL    HW223877   2.246   5.770   1.168 -0.0188 -0.5499  0.2192
 7767SOL     OW23878   2.732   3.088   7.941  0.7732  0.2856 -0.4498
 7767SOL    HW123879   2.697   3.087   7.852  0.5099  0.8242 -0.3553
 7767SOL    HW223880   2.656   3.102   7.997  0.8781 -0.4858 -0.1013
 7768SOL     OW23881   2.829   9.467   8.678 -0.1916 -0.2256  0.2915
 7768SOL    HW123882   2.786   9.544   8.642 -2.4440 -1.4429  0.2109
 7768SOL    HW223883   2.784   9.450   8.761  0.9051 -0.9451  0.7742
 7769SOL     OW23884   9.778   5.509   0.797 -0.7017 -0.6819  0.2108
 7769SOL    HW123885   9.849   5.498   0.734 -1.0212 -0.1007 -0.2665
 7769SOL    HW223886   9.817   5.492   0.882  0.0011 -0.3559 -0.0483
 7770SOL     OW23887   7.404   2.921   4.562  0.1828  0.0269 -0.4160
 7770SOL    HW123888   7.441   2.994   4.612  0.3020  0.0801 -0.5817
 7770SOL    HW223889   7.339   2.961   4.505  0.2200 -0.0001 -0.4779
 7771SOL     OW23890   6.826   5.587   3.397 -0.4832  0.0504  0.0710
 7771SOL    HW123891   6.794   5.521   3.335 -2.0028 -0.6141  1.4842
 7771SOL    HW223892   6.841   5.665   3.343 -1.3254 -0.6318 -1.2091
 7772SOL     OW23893   1.236   3.723   9.222 -0.7164 -0.3388  0.1224
 7772SOL    HW123894   1.201   3.725   9.133 -0.1833 -1.2094 -0.1184
 7772SOL    HW223895   1.161   3.742   9.278 -1.3963 -1.2807 -0.4325
 7773SOL     OW23896   6.470   7.652   8.359  0.2027 -0.4950  0.1232
 7773SOL    HW123897   6.499   7.734   8.319  1.3669 -0.9585 -0.0368
 7773SOL    HW223898   6.431   7.677   8.442  1.0683  0.1763  0.3357
 7774SOL     OW23899   5.069   8.699   2.405  0.2024  0.0909  0.5809
 7774SOL    HW123900   5.146   8.643   2.394 -1.1272 -1.6879 -0.1537
 7774SOL    HW223901   5.025   8.697   2.320 -1.0729  0.4263  1.2091
 7775SOL     OW23902   2.895   1.711   7.246 -0.1952  0.3602  0.2309
 7775SOL    HW123903   2.891   1.664   7.329 -0.0080  0.6346  0.3997
 7775SOL    HW223904   2.950   1.788   7.265 -1.1865  1.0926  0.1825
 7776SOL     OW23905   4.435   9.431   2.635  0.2820  0.9886  0.0687
 7776SOL    HW123906   4.497   9.468   2.571  1.6539 -0.6593  0.3434
 7776SOL    HW223907   4.352   9.473   2.616  0.8006  1.0586 -2.3792
 7777SOL     OW23908   7.498   7.752   8.151 -0.1836 -0.2735  0.3581
 7777SOL    HW123909   7.434   7.818   8.178 -0.5316 -1.0013  1.3571
 7777SOL    HW223910   7.460   7.669   8.178  0.7267 -0.8083  0.0445
 7778SOL     OW23911   9.150   4.166   7.360  0.5463 -0.4629  0.8454
 7778SOL    HW123912   9.158   4.141   7.452 -0.2269  0.6734  1.2486
 7778SOL    HW223913   9.061   4.139   7.335  0.3619  0.2093  0.7606
 7779SOL     OW23914   4.806   7.565   4.649  0.1110 -0.1858  0.3982
 7779SOL    HW123915   4.717   7.594   4.670  0.3537 -0.2329  1.5828
 7779SOL    HW223916   4.863   7.627   4.696  0.6869 -0.6859  0.3833
 7780SOL     OW23917   2.246   7.749   2.641 -0.2773 -0.5702 -0.2474
 7780SOL    HW123918   2.247   7.809   2.567 -0.1698 -0.5949 -0.2673
 7780SOL    HW223919   2.275   7.803   2.715  0.5306 -0.7695 -0.4047
 7781SOL     OW23920   4.178   1.240   2.264  0.2126 -0.2964  0.7944
 7781SOL    HW123921   4.088   1.268   2.248  0.0289 -0.2016  1.8669
 7781SOL    HW223922   4.215   1.310   2.318  1.8382  1.0739 -1.8729
 7782SOL     OW23923   9.751   7.518   4.003  0.1568 -0.1667 -0.3173
 7782SOL    HW123924   9.674   7.574   3.997  0.7548  0.8706  1.0537
 7782SOL    HW223925   9.822   7.577   4.031  0.5214 -1.7545  2.5318
 7783SOL     OW23926   2.728   5.447   9.125  0.2050  0.1371 -0.7885
 7783SOL    HW123927   2.730   5.354   9.103 -1.1770 -0.0688 -0.1497
 7783SOL    HW223928   2.704   5.491   9.043  2.0130  0.0806 -1.3944
 7784SOL     OW23929   9.245   1.781   1.921 -0.1783  0.2388  0.2155
 7784SOL    HW123930   9.172   1.795   1.981 -0.5785  1.0079 -0.4123
 7784SOL    HW223931   9.288   1.702   1.952 -0.2983  0.6888  1.5709
 7785SOL     OW23932   4.220   0.831   8.158  0.0845  0.4528 -0.1622
 7785SOL    HW123933   4.283   0.880   8.210 -0.2252  2.4434 -1.5660
 7785SOL    HW223934   4.187   0.764   8.218  4.5736 -1.7788  0.2479
 7786SOL     OW23935   6.436   3.892   9.140  0.5294  0.3478 -0.0029
 7786SOL    HW123936   6.430   3.826   9.071  2.5173  0.5675 -0.4434
 7786SOL    HW223937   6.347   3.926   9.149 -0.1946 -1.2084 -0.9277
 7787SOL     OW23938   5.682   9.903   7.740 -0.4367 -0.2950  0.2737
 7787SOL    HW123939   5.587   9.892   7.739 -0.6198  1.1180  0.5589
 7787SOL    HW223940   5.704   9.911   7.833 -0.3112  1.3700  0.1253
 7788SOL     OW23941   4.571   7.316   6.202  0.1023  0.8143 -0.2747
 7788SOL    HW123942   4.653   7.365   6.189  1.9622 -1.8089  0.6939
 7788SOL    HW223943   4.527   7.363   6.274  1.0960  1.8607 -0.3139
 7789SOL     OW23944   9.120   9.274   7.399 -0.4910 -0.3593 -0.4070
 7789SOL    HW123945   9.157   9.357   7.370  0.2111  0.5583  2.6985
 7789SOL    HW223946   9.178   9.245   7.469 -2.3410 -1.9670  0.5623
 7790SOL     OW23947   7.613   4.303   1.770 -0.1706  0.5559  0.6704
 7790SOL    HW123948   7.550   4.237   1.739 -0.6110  1.5893 -0.7493
 7790SOL    HW223949   7.590   4.317   1.862  0.0260 -1.3423  1.0557
 7791SOL     OW23950   6.602   6.861   2.795 -0.3936 -0.3768 -0.2417
 7791SOL    HW123951   6.548   6.862   2.874  0.7411  1.7485  0.5920
 7791SOL    HW223952   6.539   6.870   2.723 -1.2838  0.5168  0.6121
 7792SOL     OW23953   1.304   2.038   5.007  0.1071  0.5456  0.0652
 7792SOL    HW123954   1.332   2.128   4.990  0.1991  0.7769  1.3789
 7792SOL    HW223955   1.384   1.992   5.031  0.0334  0.1421 -0.4451
 7793SOL     OW23956   0.900   1.066   1.620 -0.1091  0.0208 -0.1244
 7793SOL    HW123957   0.856   1.129   1.677  0.0874  0.4662 -0.4577
 7793SOL    HW223958   0.994   1.084   1.633 -0.0583 -0.0309 -0.4102
 7794SOL     OW23959   3.888   1.087   8.413 -0.0905 -0.0031 -0.3108
 7794SOL    HW123960   3.801   1.123   8.431 -0.2737 -1.1927  1.4772
 7794SOL    HW223961   3.948   1.145   8.461 -0.3663 -1.7858  2.3824
 7795SOL     OW23962   8.739   9.234   7.090  0.0095  0.1458 -0.4771
 7795SOL    HW123963   8.695   9.154   7.117  0.3448 -0.1445 -0.7901
 7795SOL    HW223964   8.763   9.277   7.172  1.5511 -1.0172 -0.2707
 7796SOL     OW23965   8.503   2.373   4.970  0.2184  0.2677 -0.2564
 7796SOL    HW123966   8.417   2.350   5.005 -0.3847  1.3293 -1.0014
 7796SOL    HW223967   8.524   2.302   4.909 -0.1950  0.0757 -0.1792
 7797SOL     OW23968   9.875   2.390   4.365  0.5592  0.0050  0.4319
 7797SOL    HW123969   9.841   2.301   4.365  0.4959  0.0205  1.1768
 7797SOL    HW223970   9.928   2.396   4.444  0.6088  0.6130  0.3600
 7798SOL     OW23971   1.276   9.261   0.951  0.6023  0.3022 -0.4530
 7798SOL    HW123972   1.231   9.342   0.975  1.5098  0.3894  1.0689
 7798SOL    HW223973   1.247   9.197   1.016  1.4662 -0.0562 -0.4084
 7799SOL     OW23974   1.864   4.490   7.301 -0.0918 -0.3363  0.0880
 7799SOL    HW123975   1.920   4.413   7.307 -0.7387 -0.7939  0.3613
 7799SOL    HW223976   1.922   4.559   7.268  0.2310 -1.1993 -1.2176
 7800SOL     OW23977   4.897   4.001   2.970 -0.1647  0.8108 -0.2013
 7800SOL    HW123978   4.971   4.055   2.943  1.2737 -1.0383 -0.1679
 7800SOL    HW223979   4.936   3.917   2.992 -2.0749  0.2979  1.5411
 7801SOL     OW23980   3.909   6.515   2.946  0.3617  0.2184  0.2166
 7801SOL    HW123981   3.907   6.453   3.019  1.4010  0.7298  0.7074
 7801SOL    HW223982   3.963   6.472   2.880 -0.5532 -0.2302 -0.2540
 7802SOL     OW23983   9.892   0.331   7.728 -0.5033  0.0526 -0.0535
 7802SOL    HW123984   9.918   0.400   7.667  0.8981  0.3021  0.7694
 7802SOL    HW223985   9.935   0.355   7.810 -0.0602 -1.7483  0.2786
 7803SOL     OW23986   1.124   4.606   3.267 -0.1682  0.2412 -0.5892
 7803SOL    HW123987   1.067   4.681   3.253  1.2314  1.9559  2.0211
 7803SOL    HW223988   1.211   4.644   3.280  0.5324 -1.7449  1.1665
 7804SOL     OW23989   8.329   5.097   4.797 -0.1386  0.6692 -0.0071
 7804SOL    HW123990   8.276   5.020   4.819 -0.3979  1.1688  1.2348
 7804SOL    HW223991   8.377   5.117   4.878  1.8068  0.3702 -1.0238
 7805SOL     OW23992   2.342   2.491   4.725 -0.0640  0.1474  0.3301
 7805SOL    HW123993   2.433   2.520   4.716 -0.1336 -0.2469 -2.7532
 7805SOL    HW223994   2.329   2.431   4.651 -3.3712  1.7073 -0.5372
 7806SOL     OW23995   0.219   2.455   7.531  0.6277 -0.6835 -0.4524
 7806SOL    HW123996   0.142   2.404   7.508  0.5098 -0.0212 -1.5466
 7806SOL    HW223997   0.213   2.466   7.626 -1.1670  0.2460 -0.6455
 7807SOL     OW23998   9.053   0.225   3.791  0.1333 -0.3505  0.0104
 7807SOL    HW123999   9.053   0.316   3.820  1.0703 -0.4686  0.4004
 7807SOL    HW224000   9.130   0.218   3.734 -0.8959 -0.4707 -1.4092
 7808SOL     OW24001   6.138   0.484   9.165 -0.2943 -0.7638 -0.1952
 7808SOL    HW124002   6.060   0.540   9.161  0.0681 -0.2813 -0.5277
 7808SOL    HW224003   6.192   0.512   9.092  0.4423 -0.7297  0.3549
 7809SOL     OW24004   0.005   7.791   9.739  0.2522  0.6253 -0.0295
 7809SOL    HW124005   0.061   7.804   9.662 -0.4961  0.4570 -0.6200
 7809SOL    HW224006   0.057   7.735   9.797 -0.2594 -1.6582 -1.6648
 7810SOL     OW24007   3.111   2.007   7.169  0.1765 -0.1703  0.2796
 7810SOL    HW124008   3.181   1.948   7.195 -0.0367 -0.1476  0.9298
 7810SOL    HW224009   3.155   2.088   7.145  0.4211 -0.3731  0.0471
 7811SOL     OW24010   0.080   6.032   5.969 -0.9169 -1.0942  0.1325
 7811SOL    HW124011   0.073   6.100   5.902  0.1806  0.1264  1.1912
 7811SOL    HW224012   0.145   5.971   5.934  0.3846  0.0552  0.4527
 7812SOL     OW24013   3.868   4.476   9.574 -0.2665  0.0195 -0.3207
 7812SOL    HW124014   3.794   4.426   9.538 -1.0210 -0.6522  2.0000
 7812SOL    HW224015   3.898   4.424   9.649 -0.9953  2.8943  2.1546
 7813SOL     OW24016   4.344   1.047   3.121  0.3319  0.2071  0.1164
 7813SOL    HW124017   4.276   1.041   3.188 -0.6499  0.6547 -0.8187
 7813SOL    HW224018   4.393   0.965   3.129 -1.4823 -0.9761 -0.4185
 7814SOL     OW24019   2.047   1.159   2.404  0.4063  0.0843  0.6407
 7814SOL    HW124020   2.064   1.068   2.427 -1.4065 -0.8507 -1.3397
 7814SOL    HW224021   1.951   1.165   2.400  0.5086  1.4754 -1.3349
 7815SOL     OW24022   3.849   5.735   8.973  0.5442  0.0142  0.3497
 7815SOL    HW124023   3.919   5.765   9.031 -0.8074 -1.5770  3.0041
 7815SOL    HW224024   3.892   5.721   8.889  2.7448  1.8994  1.0677
 7816SOL     OW24025   5.467   8.058   8.442 -0.5153  0.4129  0.5564
 7816SOL    HW124026   5.458   7.963   8.431  1.3210  0.2623  0.0080
 7816SOL    HW224027   5.446   8.093   8.355 -0.5569  0.4517  0.5829
 7817SOL     OW24028   4.376   7.919   0.686 -0.3676  0.1028 -0.1622
 7817SOL    HW124029   4.416   7.925   0.599 -1.1619 -0.4619 -0.5804
 7817SOL    HW224030   4.360   7.826   0.698 -1.1206  0.2742  0.1919
 7818SOL     OW24031   2.587   9.880   1.571 -0.1801 -0.2272 -0.4449
 7818SOL    HW124032   2.558   9.845   1.655 -1.0087 -2.9571 -1.7751
 7818SOL    HW224033   2.676   9.847   1.560 -0.2226 -0.2187 -0.8246
 7819SOL     OW24034   0.912   9.858   0.423 -0.1075  0.1928 -0.0459
 7819SOL    HW124035   0.934   9.813   0.342 -0.6093 -1.3259  0.6280
 7819SOL    HW224036   0.827   9.900   0.405 -0.2182 -0.1412 -0.3053
 7820SOL     OW24037   7.121   9.959   9.134  0.4372 -0.0692 -0.0940
 7820SOL    HW124038   7.152   9.886   9.186  0.4365 -1.2701 -1.6918
 7820SOL    HW224039   7.026   9.957   9.143  0.3918 -0.6798 -0.6163
 7821SOL     OW24040   7.983   1.328   4.345 -0.4964  0.2862 -0.2257
 7821SOL    HW124041   8.047   1.366   4.285  1.7972  0.1688  1.9820
 7821SOL    HW224042   7.906   1.384   4.335  0.8446  2.1006 -1.0930
 7822SOL     OW24043   6.195   3.034   3.915 -0.6519 -0.2025 -0.2803
 7822SOL    HW124044   6.104   3.008   3.897 -0.6620  0.0462 -0.5821
 7822SOL    HW224045   6.189   3.127   3.937 -0.2445  0.3059 -2.1503
 7823SOL     OW24046   4.025   9.947   7.870 -0.3009 -0.1365  0.2538
 7823SOL    HW124047   3.991   9.861   7.893 -1.7614  0.7796  1.8080
 7823SOL    HW224048   3.975  10.008   7.925  0.6767  1.7068 -0.7846
 7824SOL     OW24049   3.458   1.068   0.372  0.0449  0.2490 -0.5979
 7824SOL    HW124050   3.430   1.015   0.447  2.2796  1.3003  1.0976
 7824SOL    HW224051   3.391   1.136   0.364  0.5842  1.1370  1.6134
 7825SOL     OW24052   0.246   3.823   6.862 -0.6411 -0.1397 -0.1946
 7825SOL    HW124053   0.167   3.852   6.909 -1.1838 -0.7892 -0.6858
 7825SOL    HW224054   0.244   3.873   6.780 -2.2600 -2.3235 -1.6221
 7826SOL     OW24055   8.222   8.269   2.794  0.5032 -0.0558  0.4002
 7826SOL    HW124056   8.204   8.212   2.869 -0.6103 -1.1493 -0.6570
 7826SOL    HW224057   8.167   8.346   2.809  1.9249  0.7679  1.7742
 7827SOL     OW24058   6.134   4.801   4.056 -0.2738  0.2468 -0.1242
 7827SOL    HW124059   6.166   4.789   4.145  0.1653  0.6163 -0.2258
 7827SOL    HW224060   6.180   4.879   4.024 -0.4991  0.1773 -0.6386
 7828SOL     OW24061   9.168   5.387   4.544 -0.5202 -0.0311 -0.5225
 7828SOL    HW124062   9.217   5.362   4.622 -0.5590  0.8523 -0.2033
 7828SOL    HW224063   9.229   5.441   4.494 -0.9405  0.5332 -0.4359
 7829SOL     OW24064   4.114   5.618   6.480 -0.1882 -0.0778 -0.4315
 7829SOL    HW124065   4.163   5.694   6.448  0.0765  0.3661  0.9636
 7829SOL    HW224066   4.176   5.573   6.537 -1.1940  0.1500  0.8808
 7830SOL     OW24067   1.665   0.705   6.236  0.2218  0.2451 -0.4132
 7830SOL    HW124068   1.666   0.616   6.203  1.4067  0.0607  0.0580
 7830SOL    HW224069   1.733   0.750   6.186 -0.1631  0.8086 -0.4412
 7831SOL     OW24070   5.635   6.089   1.044 -0.4827 -0.1054  0.4869
 7831SOL    HW124071   5.634   6.091   1.140  0.3753  0.9164  0.4968
 7831SOL    HW224072   5.638   6.181   1.019 -1.0314 -0.3594 -0.5397
 7832SOL     OW24073   4.378   0.219   7.001 -0.1173 -0.4343  0.1924
 7832SOL    HW124074   4.405   0.272   7.076 -1.0262 -1.1457  1.0403
 7832SOL    HW224075   4.353   0.283   6.934  3.2932  0.2990 -0.5701
 7833SOL     OW24076   2.822   0.584   9.006 -0.0294 -0.3814  0.2554
 7833SOL    HW124077   2.764   0.652   8.970  1.0609  0.9937  0.9688
 7833SOL    HW224078   2.878   0.559   8.932 -1.8059 -2.1220 -0.5905
 7834SOL     OW24079   1.449   2.823   9.571 -0.4048 -0.5375 -0.0294
 7834SOL    HW124080   1.508   2.863   9.636 -1.1928 -0.0529  0.4126
 7834SOL    HW224081   1.452   2.883   9.496 -0.5770 -0.3316  0.1236
 7835SOL     OW24082   8.906   4.567   0.425  0.6874 -0.1219 -0.1269
 7835SOL    HW124083   8.976   4.508   0.396 -0.4462 -0.1164 -3.2216
 7835SOL    HW224084   8.938   4.655   0.403  0.2937  0.0005 -0.2107
 7836SOL     OW24085   5.475   1.388   8.021 -0.5853 -0.2794 -0.0896
 7836SOL    HW124086   5.415   1.448   8.066 -0.4125 -1.2525  1.5280
 7836SOL    HW224087   5.455   1.302   8.058  0.5574 -0.8979 -0.8611
 7837SOL     OW24088   2.327   0.219   6.175  0.1254  0.3883  0.3463
 7837SOL    HW124089   2.408   0.187   6.215 -0.6311 -1.3340  0.5523
 7837SOL    HW224090   2.349   0.228   6.082  0.4919 -0.2992  0.3565
 7838SOL     OW24091   8.077   4.422   1.551 -0.1259  0.7695  0.1445
 7838SOL    HW124092   8.089   4.383   1.464  1.0538  0.7737  0.2941
 7838SOL    HW224093   8.002   4.376   1.587 -0.5701  0.6881 -0.8322
 7839SOL     OW24094   3.727   4.601   5.874  0.6237 -0.1677 -0.3707
 7839SOL    HW124095   3.721   4.601   5.778 -0.6868 -0.8849 -0.3187
 7839SOL    HW224096   3.668   4.671   5.901  0.3725 -0.4893 -0.0776
 7840SOL     OW24097   9.689   6.601   2.804 -0.3707  0.0581  0.0693
 7840SOL    HW124098   9.689   6.626   2.896  0.2508 -0.9290  0.3516
 7840SOL    HW224099   9.680   6.684   2.757  2.6722  1.0350  0.9435
 7841SOL     OW24100   3.406   5.251   3.808  0.1549  0.4769  0.1353
 7841SOL    HW124101   3.337   5.316   3.809 -0.2172  0.0951  0.8705
 7841SOL    HW224102   3.363   5.170   3.837  0.4590 -0.2582 -1.3743
 7842SOL     OW24103   5.429   9.628   7.708  0.4164  0.0030  0.4429
 7842SOL    HW124104   5.438   9.581   7.791 -1.1336  1.7277  1.6540
 7842SOL    HW224105   5.360   9.582   7.662 -1.2357  1.0895  1.7085
 7843SOL     OW24106   2.914   2.584   2.898  0.4907 -0.4690 -0.4316
 7843SOL    HW124107   2.874   2.536   2.970 -2.1698 -0.8426 -2.0159
 7843SOL    HW224108   3.005   2.556   2.898  0.5645 -0.5932  2.5923
 7844SOL     OW24109   4.376   6.765   5.107 -0.2781 -0.2761 -0.3511
 7844SOL    HW124110   4.432   6.837   5.079 -0.2045 -1.1194 -2.6120
 7844SOL    HW224111   4.297   6.807   5.140 -0.4899  0.8775 -2.1843
 7845SOL     OW24112   6.309   0.627   3.909 -0.3786 -0.0815 -0.5183
 7845SOL    HW124113   6.291   0.626   4.003  0.9629 -1.4337 -0.2344
 7845SOL    HW224114   6.312   0.720   3.886 -2.4701  0.2631  0.3879
 7846SOL     OW24115   9.068   1.104   3.404  0.3686  0.2863  0.6050
 7846SOL    HW124116   9.141   1.117   3.344  0.4660  0.7284  0.8155
 7846SOL    HW224117   8.997   1.072   3.349  0.5740  0.3217  0.3195
 7847SOL     OW24118   6.885   8.098   5.183 -0.1225  0.2312 -0.1953
 7847SOL    HW124119   6.943   8.144   5.122 -0.4951  0.1959 -0.5823
 7847SOL    HW224120   6.881   8.008   5.149  1.0025 -0.2346  0.8378
 7848SOL     OW24121   4.177   6.469   4.279 -0.2467 -0.2403  0.4300
 7848SOL    HW124122   4.217   6.554   4.263 -0.9263  0.0423  0.2006
 7848SOL    HW224123   4.245   6.418   4.323 -0.3013  0.8835  1.8885
 7849SOL     OW24124   7.322   3.727   6.194 -0.0872  0.1558  0.5080
 7849SOL    HW124125   7.298   3.784   6.266 -1.6455  0.5335 -0.2644
 7849SOL    HW224126   7.266   3.650   6.205  2.3633 -1.5730  1.8572
 7850SOL     OW24127   9.847   7.725   9.500 -0.4472  0.8795  0.0095
 7850SOL    HW124128   9.871   7.715   9.592 -0.2897 -0.5381 -0.1683
 7850SOL    HW224129   9.924   7.764   9.459  0.4582 -0.7984  0.0247
 7851SOL     OW24130   7.356   8.262   5.610 -0.2365 -0.4184  0.0464
 7851SOL    HW124131   7.267   8.246   5.640 -0.3492 -0.4766 -0.3098
 7851SOL    HW224132   7.388   8.333   5.665 -1.2831  1.1552 -1.2858
 7852SOL     OW24133   8.236   3.578   1.007  0.8262 -0.1458 -0.6836
 7852SOL    HW124134   8.267   3.602   0.920 -1.1708 -1.8501 -1.9715
 7852SOL    HW224135   8.147   3.613   1.011  0.6771 -0.6052  0.4257
 7853SOL     OW24136   9.110   7.687   6.347 -0.3081 -0.1834  0.2370
 7853SOL    HW124137   9.115   7.705   6.254 -0.5057  2.3108  0.6507
 7853SOL    HW224138   9.108   7.591   6.353  0.5336 -0.4194 -2.2394
 7854SOL     OW24139   7.609   7.786   5.795  0.0914  0.5196 -0.2366
 7854SOL    HW124140   7.644   7.743   5.873 -1.2745 -0.2685 -0.0047
 7854SOL    HW224141   7.656   7.869   5.788  0.9215  0.1514  0.8553
 7855SOL     OW24142   0.612   9.724   2.898 -0.5611 -0.3242 -0.2546
 7855SOL    HW124143   0.524   9.760   2.903 -0.5161 -0.1545 -0.5958
 7855SOL    HW224144   0.617   9.687   2.810 -0.1046  0.1766 -0.4460
 7856SOL     OW24145   8.104   2.355   7.983 -0.2308 -0.4457  0.1943
 7856SOL    HW124146   8.063   2.270   7.994  0.7376 -1.1970 -1.6193
 7856SOL    HW224147   8.192   2.344   8.019 -0.3145  0.0093  0.5556
 7857SOL     OW24148   9.748   7.404   7.354 -0.2084 -0.3521 -0.0227
 7857SOL    HW124149   9.657   7.380   7.338  0.0484 -1.0907 -0.4457
 7857SOL    HW224150   9.791   7.321   7.373  0.2623  0.0629  0.7595
 7858SOL     OW24151   9.241   8.226   8.905 -0.1620  0.3694 -0.0432
 7858SOL    HW124152   9.276   8.196   8.989  0.3061 -3.9047 -1.5096
 7858SOL    HW224153   9.146   8.230   8.919 -0.1242 -0.7207  0.6091
 7859SOL     OW24154   4.408   1.820   4.086 -0.3799 -0.3903 -0.3328
 7859SOL    HW124155   4.456   1.737   4.095 -1.3094 -0.8579  0.4528
 7859SOL    HW224156   4.317   1.794   4.077 -0.6929  0.5554  0.0147
 7860SOL     OW24157   6.800   4.271   5.589  0.0989 -0.2143 -0.3698
 7860SOL    HW124158   6.821   4.192   5.539  1.0990 -0.7524  0.8458
 7860SOL    HW224159   6.758   4.329   5.525  0.3991 -1.2631 -1.5690
 7861SOL     OW24160   7.749   2.981   9.237  0.2436 -0.4065  0.3471
 7861SOL    HW124161   7.758   3.055   9.297  2.7433 -0.1500 -0.2302
 7861SOL    HW224162   7.741   2.904   9.293  1.2976 -0.0499  1.0087
 7862SOL     OW24163   7.421   1.804   7.389 -0.0246  0.3411 -0.1877
 7862SOL    HW124164   7.346   1.780   7.443  0.5663  0.0356  0.5095
 7862SOL    HW224165   7.474   1.860   7.446  0.2143  0.6656 -0.7231
 7863SOL     OW24166   9.105   4.850   5.194  0.7363  0.2591 -0.1245
 7863SOL    HW124167   9.168   4.918   5.217  1.7325 -0.0853 -1.7005
 7863SOL    HW224168   9.069   4.877   5.110 -2.0053  0.9437  1.1489
 7864SOL     OW24169   4.981   7.653   7.423  0.3637 -0.7299 -0.0678
 7864SOL    HW124170   5.074   7.638   7.404  0.5976  0.1962  0.2609
 7864SOL    HW224171   4.959   7.585   7.487  1.0326 -0.5097  0.4222
 7865SOL     OW24172   6.062   8.164   7.633  0.1331 -0.1919 -0.6274
 7865SOL    HW124173   5.998   8.124   7.575  1.1350 -1.3637 -0.9577
 7865SOL    HW224174   6.104   8.091   7.678 -1.8172  0.6818  3.0311
 7866SOL     OW24175   0.583   4.910   8.939  0.3724  0.1902 -0.8833
 7866SOL    HW124176   0.588   4.821   8.972 -1.9809 -0.1695 -1.2665
 7866SOL    HW224177   0.577   4.964   9.018  0.5244 -0.1210 -0.6560
 7867SOL     OW24178   6.037   3.197   4.183 -0.9826 -0.6908 -0.4527
 7867SOL    HW124179   6.045   3.102   4.183 -0.9984 -0.7481  2.0813
 7867SOL    HW224180   6.123   3.229   4.211 -1.2488 -0.0090 -0.3828
 7868SOL     OW24181   5.280   7.700   9.215  0.1809 -0.0817  0.1785
 7868SOL    HW124182   5.334   7.748   9.153  1.3831 -0.4775  0.8968
 7868SOL    HW224183   5.242   7.629   9.164  2.5971 -1.5013  0.2407
 7869SOL     OW24184   5.446   8.087   3.321 -0.0908  0.3996  0.0092
 7869SOL    HW124185   5.497   8.039   3.387  0.1879  2.0782  1.0738
 7869SOL    HW224186   5.360   8.100   3.362 -0.2028  0.6989 -0.3150
 7870SOL     OW24187   6.686   3.160   3.614 -0.0403 -0.2279 -0.1370
 7870SOL    HW124188   6.689   3.235   3.672  0.0302 -1.9242  2.2072
 7870SOL    HW224189   6.596   3.127   3.621 -0.2047 -0.1472 -1.4874
 7871SOL     OW24190   4.047   5.318   8.332  0.1648 -0.4277 -0.2289
 7871SOL    HW124191   4.040   5.265   8.411  1.7557 -1.6028 -0.8043
 7871SOL    HW224192   4.137   5.352   8.334 -0.6493  1.9350 -0.1297
 7872SOL     OW24193   2.200   1.149   2.696 -0.0322 -0.1632  0.1795
 7872SOL    HW124194   2.154   1.176   2.616  1.0439  0.2331 -0.3336
 7872SOL    HW224195   2.132   1.148   2.764 -0.6524  1.2051 -0.3745
 7873SOL     OW24196   5.258   2.332   8.852 -0.5532 -0.3505 -0.4411
 7873SOL    HW124197   5.304   2.304   8.772 -0.6989  0.8979 -0.9862
 7873SOL    HW224198   5.320   2.315   8.923  0.3216  0.2586 -1.0386
 7874SOL     OW24199   5.955   0.908   0.154  0.2256  0.2646  0.3393
 7874SOL    HW124200   6.038   0.955   0.150 -0.3043  1.2013 -1.4775
 7874SOL    HW224201   5.907   0.949   0.226  1.3251 -0.3214  1.4299
 7875SOL     OW24202   3.755   3.500   5.518  1.0884 -0.1700  0.9176
 7875SOL    HW124203   3.840   3.470   5.485  1.4372  1.6641  0.0673
 7875SOL    HW224204   3.765   3.594   5.528 -0.9707  0.1391  0.4756
 7876SOL     OW24205   6.616   0.567   5.967  0.4202  0.0364 -0.0559
 7876SOL    HW124206   6.544   0.587   6.026  0.7109 -1.8027  0.9778
 7876SOL    HW224207   6.575   0.566   5.880 -0.6568 -0.3118  0.4363
 7877SOL     OW24208   8.506   6.399   2.608  0.7656  0.5209 -0.6357
 7877SOL    HW124209   8.438   6.458   2.639  1.1962  0.1347  1.1378
 7877SOL    HW224210   8.458   6.327   2.567  0.1337  0.6748 -0.1826
 7878SOL     OW24211   7.927   2.933   5.162 -0.0858  0.0437 -0.0553
 7878SOL    HW124212   7.885   3.010   5.124  0.8074  0.3061 -0.5583
 7878SOL    HW224213   7.978   2.969   5.235  0.2246 -0.0834 -0.2081
 7879SOL     OW24214   8.323   0.350   3.511  0.4974  0.6078 -0.3536
 7879SOL    HW124215   8.292   0.359   3.421  1.7293 -3.3557 -1.4009
 7879SOL    HW224216   8.417   0.370   3.507  1.2031 -2.3078 -0.7442
 7880SOL     OW24217   4.969   8.469   1.555  0.3646 -0.3403 -0.5708
 7880SOL    HW124218   4.899   8.456   1.491  0.0860 -0.7983 -0.1790
 7880SOL    HW224219   4.958   8.560   1.584  0.9951  0.1364 -1.7552
 7881SOL     OW24220   0.450   7.917   8.390  0.2429  0.0839  0.1797
 7881SOL    HW124221   0.470   7.823   8.383  1.1877  0.3646 -1.3429
 7881SOL    HW224222   0.464   7.951   8.302  2.8603  2.2213  1.2585
 7882SOL     OW24223   8.804   4.770   4.880 -1.1134  0.5056 -0.2575
 7882SOL    HW124224   8.879   4.712   4.873 -2.1086 -0.7393 -0.8957
 7882SOL    HW224225   8.838   4.856   4.852  0.4808  0.3840  1.1414
 7883SOL     OW24226   9.403   3.327   1.057  0.1022  0.2286 -0.0389
 7883SOL    HW124227   9.470   3.379   1.101  0.1602  0.1835 -0.0749
 7883SOL    HW224228   9.450   3.253   1.020 -0.0575 -0.1513  0.4954
 7884SOL     OW24229   4.360   5.169   2.494  0.5893  0.5319 -0.2091
 7884SOL    HW124230   4.408   5.120   2.561 -0.0520 -1.1538 -0.9162
 7884SOL    HW224231   4.289   5.211   2.543  0.1480 -0.6428  0.2175
 7885SOL     OW24232   5.151   0.367   2.763  0.1775  0.3439  0.0589
 7885SOL    HW124233   5.216   0.432   2.734  0.1695  0.0348 -0.6868
 7885SOL    HW224234   5.173   0.350   2.854  1.1732  0.2364 -0.1822
 7886SOL     OW24235   3.139   7.159   5.317  0.1941  0.2797 -0.2464
 7886SOL    HW124236   3.166   7.241   5.358  2.6393  0.5417 -2.1602
 7886SOL    HW224237   3.046   7.171   5.299 -0.5060  0.9601  3.0899
 7887SOL     OW24238   0.510   0.528   3.963 -0.6304 -0.1789 -0.0322
 7887SOL    HW124239   0.466   0.466   3.904 -2.4592  1.0777 -0.0809
 7887SOL    HW224240   0.438   0.576   4.004  0.6926  0.6101  1.4391
 7888SOL     OW24241   3.220   0.709   0.740  0.2655 -0.1080  0.1071
 7888SOL    HW124242   3.255   0.780   0.795 -0.3823 -0.5543  1.1346
 7888SOL    HW224243   3.128   0.731   0.729  0.1125 -0.6709  0.2458
 7889SOL     OW24244   0.509   5.396   3.868  0.3742  0.5087 -0.1439
 7889SOL    HW124245   0.469   5.334   3.928 -2.9845  2.8208  0.2962
 7889SOL    HW224246   0.603   5.375   3.870 -0.1828 -2.4645  2.2431
 7890SOL     OW24247   1.762   8.701   7.472  0.3246  0.2533 -0.8212
 7890SOL    HW124248   1.816   8.779   7.484 -0.8946  1.0438 -0.2674
 7890SOL    HW224249   1.700   8.725   7.403 -1.6054  0.7001  0.9451
 7891SOL     OW24250   0.076   4.813   6.929 -0.0581 -0.0685  0.0457
 7891SOL    HW124251   0.139   4.824   7.000  1.0999 -0.0981 -0.9480
 7891SOL    HW224252   0.000   4.866   6.955  0.6140  0.4608  0.9758
 7892SOL     OW24253   8.317   8.243   4.154 -0.3804  0.4360  0.1401
 7892SOL    HW124254   8.269   8.185   4.095 -0.1048  0.2692  0.0743
 7892SOL    HW224255   8.289   8.217   4.242 -1.4247  1.2458  0.0662
 7893SOL     OW24256   7.049   6.734   6.270  0.5217 -0.7217  0.6155
 7893SOL    HW124257   7.034   6.695   6.357  0.8814  1.5687  1.7757
 7893SOL    HW224258   6.970   6.786   6.254  1.4088  0.6617  0.6189
 7894SOL     OW24259   6.047   2.917   5.531 -0.6716 -0.6496  0.4632
 7894SOL    HW124260   6.062   2.904   5.625 -0.2733 -0.9934  0.3556
 7894SOL    HW224261   5.984   2.848   5.507 -1.2211 -0.2021  0.5897
 7895SOL     OW24262   5.088   9.275   3.725  0.0736 -0.0872 -0.0297
 7895SOL    HW124263   5.002   9.235   3.714 -0.3552  0.6541  0.5032
 7895SOL    HW224264   5.076   9.366   3.700  1.2976 -0.4758 -2.2998
 7896SOL     OW24265   4.506   7.116   8.618 -0.0547 -0.2210 -0.2309
 7896SOL    HW124266   4.506   7.025   8.646  2.1509  0.9477  4.4624
 7896SOL    HW224267   4.592   7.130   8.580 -0.4020 -0.0389 -0.9785
 7897SOL     OW24268   0.306   0.320   9.236 -0.0723  0.2320 -0.2332
 7897SOL    HW124269   0.264   0.236   9.254 -0.4061  0.2476 -0.8977
 7897SOL    HW224270   0.238   0.372   9.193  0.7444  0.0646 -1.8306
 7898SOL     OW24271   6.895   8.421   4.908 -0.1696  0.0478  0.4436
 7898SOL    HW124272   6.943   8.345   4.942  0.9752 -0.1088 -1.4047
 7898SOL    HW224273   6.963   8.481   4.878 -1.0973  0.5490 -0.7521
 7899SOL     OW24274   6.726   2.281   9.571  0.4222 -0.0667 -0.0080
 7899SOL    HW124275   6.708   2.257   9.479  0.3906 -1.5138  0.3481
 7899SOL    HW224276   6.820   2.299   9.573  0.4474 -0.1523 -0.3019
 7900SOL     OW24277   6.549   8.578   5.467 -0.5317  0.3183 -0.0180
 7900SOL    HW124278   6.539   8.630   5.387 -0.5986 -1.3975 -1.1740
 7900SOL    HW224279   6.641   8.591   5.493 -0.6206  1.2142 -0.1143
 7901SOL     OW24280   6.896   8.527   8.744 -0.6941 -0.1658 -0.6848
 7901SOL    HW124281   6.917   8.606   8.794  1.0908 -1.6156  1.0322
 7901SOL    HW224282   6.824   8.486   8.793 -0.2699 -0.5853 -0.4002
 7902SOL     OW24283   0.212   1.244   9.896  0.0780  0.1570  0.6003
 7902SOL    HW124284   0.286   1.265   9.838  0.1680 -0.6844  0.3889
 7902SOL    HW224285   0.153   1.193   9.842 -1.0177  1.3983  0.5707
 7903SOL     OW24286   6.895   4.915   4.709 -0.6227  0.2123  0.6100
 7903SOL    HW124287   6.929   4.846   4.652  1.4078 -0.1155  2.0774
 7903SOL    HW224288   6.808   4.934   4.675 -0.6760 -2.0522 -0.7424
 7904SOL     OW24289   8.931   4.794   7.884  0.4467  0.2567 -0.0014
 7904SOL    HW124290   8.950   4.740   7.808 -0.1427 -0.0123  0.0327
 7904SOL    HW224291   8.912   4.881   7.848 -0.1485  0.0530 -0.1982
 7905SOL     OW24292   5.617   3.530   7.900  0.4787 -0.2259  0.1704
 7905SOL    HW124293   5.687   3.507   7.839  0.4634 -0.5662  0.2808
 7905SOL    HW224294   5.661   3.535   7.985  0.1148 -1.8942  0.4887
 7906SOL     OW24295   5.682   4.385   4.091 -0.0151  0.3050  0.5185
 7906SOL    HW124296   5.722   4.393   4.178 -0.4276  1.1024  0.6432
 7906SOL    HW224297   5.675   4.475   4.059 -3.6595  0.4973  1.4053
 7907SOL     OW24298   9.900   8.130   9.250 -0.3809 -0.6648  0.6948
 7907SOL    HW124299   9.823   8.096   9.205 -0.7660  1.5561 -0.4805
 7907SOL    HW224300   9.870   8.210   9.294  0.8143 -0.8280  1.8768
 7908SOL     OW24301   2.719   7.728   3.975  0.6746  0.0202 -0.3443
 7908SOL    HW124302   2.797   7.718   3.920 -0.2419  0.1992 -1.7266
 7908SOL    HW224303   2.656   7.775   3.920 -0.5695 -0.5136  0.5601
 7909SOL     OW24304   5.263   4.856   8.400  0.9699  0.1879  0.1656
 7909SOL    HW124305   5.196   4.810   8.349  0.6780  1.5711 -0.7618
 7909SOL    HW224306   5.231   4.946   8.406  3.1951  1.1681 -1.2312
 7910SOL     OW24307   4.675   8.167   0.293  0.7694 -0.2937  0.2620
 7910SOL    HW124308   4.766   8.152   0.265  0.8092 -1.2662  0.8789
 7910SOL    HW224309   4.673   8.260   0.316  2.1407 -0.6379  2.0286
 7911SOL     OW24310   3.438   3.602   0.728 -0.0913  0.6111 -0.5575
 7911SOL    HW124311   3.490   3.522   0.721  0.8055  1.1961 -0.7965
 7911SOL    HW224312   3.367   3.591   0.664 -0.5149 -0.3771  0.0763
 7912SOL     OW24313   5.185   5.552   9.366 -0.0675  0.0203  0.2567
 7912SOL    HW124314   5.218   5.586   9.283 -0.5810  0.9033  0.4032
 7912SOL    HW224315   5.261   5.555   9.424  0.0367  0.3919  0.1068
 7913SOL     OW24316   7.686   0.682   0.791 -0.2971  0.2774 -0.8001
 7913SOL    HW124317   7.681   0.588   0.778  2.1398 -0.1278  0.4940
 7913SOL    HW224318   7.632   0.699   0.869 -0.1656 -0.1768 -0.6097
 7914SOL     OW24319   5.058   4.182   4.427  0.0770  0.1973  0.3013
 7914SOL    HW124320   5.007   4.102   4.410  0.7585 -0.6608  2.0679
 7914SOL    HW224321   4.994   4.253   4.418 -1.0487 -0.7223  0.7804
 7915SOL     OW24322   9.748   6.127   7.672  0.2170  0.4842 -0.1501
 7915SOL    HW124323   9.733   6.103   7.763  1.6586  0.3416  0.0749
 7915SOL    HW224324   9.745   6.044   7.624 -0.4181  0.5455 -0.2265
 7916SOL     OW24325   4.350   6.194   0.075 -0.1106 -0.0589  0.2091
 7916SOL    HW124326   4.270   6.223   0.120  0.8752  0.4980  1.6903
 7916SOL    HW224327   4.318   6.152  -0.005 -1.9186 -0.2878  0.9792
 7917SOL     OW24328   5.392   7.672   2.124  0.0075 -0.3101  0.2639
 7917SOL    HW124329   5.369   7.584   2.153 -0.6540 -0.9822 -2.0548
 7917SOL    HW224330   5.488   7.676   2.131 -0.1262 -0.3198  2.6109
 7918SOL     OW24331   1.880   4.567   8.262 -0.3578  0.6040  0.0706
 7918SOL    HW124332   1.809   4.502   8.266  0.3851 -0.3253 -0.9713
 7918SOL    HW224333   1.840   4.649   8.291 -1.4006 -0.2591  1.1694
 7919SOL     OW24334   9.123   3.872   7.449  0.2724  0.3671  0.8223
 7919SOL    HW124335   9.131   3.878   7.353  0.3835 -0.1381  0.7974
 7919SOL    HW224336   9.213   3.859   7.479  0.0716 -1.1261  0.8629
 7920SOL     OW24337   7.206   5.850   4.601 -0.1155  0.2224  0.2544
 7920SOL    HW124338   7.223   5.808   4.685  0.3344  0.3607  0.2332
 7920SOL    HW224339   7.111   5.863   4.600 -0.7962 -3.5833 -1.0232
 7921SOL     OW24340   0.115   6.049   1.206  0.1239 -0.8722 -0.1787
 7921SOL    HW124341   0.056   6.023   1.277  0.6510 -1.2760  0.1234
 7921SOL    HW224342   0.160   5.968   1.182  2.0578 -0.2192  1.0047
 7922SOL     OW24343   1.382   2.127   0.511 -0.8288 -0.2973  0.3561
 7922SOL    HW124344   1.330   2.158   0.585  1.1698 -0.8422  2.0875
 7922SOL    HW224345   1.444   2.198   0.495 -1.4973 -0.0138 -1.1114
 7923SOL     OW24346   8.887   5.236   8.925  0.2368 -0.4474  0.2236
 7923SOL    HW124347   8.814   5.174   8.927 -0.5342  0.4511  0.8785
 7923SOL    HW224348   8.865   5.297   8.854  0.2127 -0.0257  0.5859
 7924SOL     OW24349   8.064   2.246   8.803  0.5644 -0.1081  0.4489
 7924SOL    HW124350   8.097   2.331   8.774 -1.2944  0.6999  0.5890
 7924SOL    HW224351   8.081   2.244   8.897  2.7256 -0.9311  0.1031
 7925SOL     OW24352   0.277   9.288   7.220  0.2797  0.6297  0.4193
 7925SOL    HW124353   0.210   9.310   7.155  0.4640 -1.3106 -0.4852
 7925SOL    HW224354   0.360   9.314   7.179  0.5864 -2.2928 -1.0373
 7926SOL     OW24355   0.506   3.804   8.297 -0.4573 -0.5081 -0.3359
 7926SOL    HW124356   0.520   3.862   8.223 -0.4600  0.0680  0.1047
 7926SOL    HW224357   0.422   3.832   8.333 -0.1200 -0.2986  0.3096
 7927SOL     OW24358   1.435   7.947   3.544 -0.5213 -0.0189 -0.1723
 7927SOL    HW124359   1.369   8.000   3.500 -0.1723  0.3905 -0.2123
 7927SOL    HW224360   1.425   7.968   3.637  0.6128  1.2898 -0.3161
 7928SOL     OW24361   6.739   8.677   5.741  0.2474 -0.3377 -0.0902
 7928SOL    HW124362   6.731   8.597   5.689 -1.4746 -0.5806  0.4949
 7928SOL    HW224363   6.811   8.659   5.802 -0.5052 -1.6952  0.4328
 7929SOL     OW24364   0.495   2.084   4.230 -0.1495  0.0788 -0.0928
 7929SOL    HW124365   0.540   2.037   4.160  0.4888 -0.3705  0.6090
 7929SOL    HW224366   0.405   2.095   4.198 -0.3215 -1.6132 -0.2709
 7930SOL     OW24367   5.129   9.466   5.175 -0.1957 -0.3197  0.2009
 7930SOL    HW124368   5.176   9.547   5.152 -1.2213  0.2529  0.0700
 7930SOL    HW224369   5.094   9.434   5.092  2.1185 -2.1990 -0.1549
 7931SOL     OW24370   9.324   4.201   9.189  0.7405  0.0655  0.0663
 7931SOL    HW124371   9.338   4.262   9.117 -0.2500 -0.6432 -0.7517
 7931SOL    HW224372   9.412   4.180   9.220  1.1115  2.9046  1.2685
 7932SOL     OW24373   4.971   7.153   2.495 -0.5596 -0.2378  0.2650
 7932SOL    HW124374   4.963   7.107   2.578 -0.6918  0.2638  0.5329
 7932SOL    HW224375   5.029   7.097   2.443  0.6374  0.1089  1.1747
 7933SOL     OW24376   1.415   1.369   7.529 -0.5596 -0.3484  0.3512
 7933SOL    HW124377   1.463   1.312   7.589 -2.7920 -0.8004  1.8066
 7933SOL    HW224378   1.466   1.366   7.448  2.4267  0.0605  2.0545
 7934SOL     OW24379   6.099   6.168   4.948 -0.3510  0.1469  0.0542
 7934SOL    HW124380   6.103   6.127   5.034  0.7076  1.6479  0.7583
 7934SOL    HW224381   6.016   6.215   4.947  0.2679  1.2829  0.8230
 7935SOL     OW24382   2.652   0.758   8.871 -0.5118 -0.8460 -0.1380
 7935SOL    HW124383   2.682   0.840   8.911 -0.0159 -1.2107  0.2386
 7935SOL    HW224384   2.562   0.776   8.845  0.5010  0.8982 -2.9197
 7936SOL     OW24385   9.609   2.051   8.091 -0.1182  0.4228 -0.5268
 7936SOL    HW124386   9.703   2.070   8.095  0.1745 -0.6909 -1.3670
 7936SOL    HW224387   9.588   2.054   7.997 -0.5596 -0.8817 -0.4955
 7937SOL     OW24388   6.524   6.281   3.550  0.2689  0.2076 -0.0732
 7937SOL    HW124389   6.528   6.186   3.539 -4.2964 -0.3535  1.1782
 7937SOL    HW224390   6.536   6.295   3.644 -0.7037  0.6490 -0.0037
 7938SOL     OW24391   7.362   4.019   9.514 -0.2686 -0.3862  0.4257
 7938SOL    HW124392   7.340   4.104   9.551 -1.3591 -1.1568  1.6602
 7938SOL    HW224393   7.322   3.956   9.574  0.8471 -1.7833 -0.2375
 7939SOL     OW24394   5.249   1.737   1.076  0.0278  0.0380 -0.0284
 7939SOL    HW124395   5.156   1.740   1.055 -0.0178  1.1410  0.3077
 7939SOL    HW224396   5.278   1.651   1.043 -1.0230 -0.1754 -0.4309
 7940SOL     OW24397   1.190   4.381   3.151 -0.7607  0.0299 -0.5459
 7940SOL    HW124398   1.159   4.442   3.218 -1.9132  0.5223 -1.4828
 7940SOL    HW224399   1.204   4.436   3.074  0.8461 -0.4784 -0.6399
 7941SOL     OW24400   2.079   4.062   0.902 -0.3051 -0.9416  0.1052
 7941SOL    HW124401   2.079   4.019   0.988  0.6452 -0.7934  0.1937
 7941SOL    HW224402   1.988   4.087   0.888 -0.7180 -2.1731  0.4550
 7942SOL     OW24403   4.274   9.270   4.548  0.1132  0.4706 -0.2088
 7942SOL    HW124404   4.281   9.182   4.509 -1.6763  0.1380  0.1425
 7942SOL    HW224405   4.184   9.297   4.530  0.0647  1.4421  1.3565
 7943SOL     OW24406   5.752   5.581   3.694 -0.2008  0.4652  0.4589
 7943SOL    HW124407   5.675   5.597   3.748  1.1105  1.2782  2.1796
 7943SOL    HW224408   5.810   5.655   3.712  1.1107 -0.2699 -0.5611
 7944SOL     OW24409   2.722   1.413   6.525 -0.2375  0.4807  0.1880
 7944SOL    HW124410   2.742   1.340   6.467 -0.4768 -0.4737  1.2518
 7944SOL    HW224411   2.799   1.470   6.521  0.3403 -0.3025  0.0248
 7945SOL     OW24412   4.634   8.024   8.987  0.8980  0.3659 -0.0013
 7945SOL    HW124413   4.578   8.102   8.995  0.2578 -0.0944  0.1149
 7945SOL    HW224414   4.617   7.974   9.067 -0.2989 -0.9059 -0.9784
 7946SOL     OW24415   5.487   5.656   6.694  0.3228 -0.6217 -0.0616
 7946SOL    HW124416   5.512   5.638   6.603  0.4924 -3.1371  0.4167
 7946SOL    HW224417   5.565   5.634   6.745 -0.0686 -0.0944  0.7945
 7947SOL     OW24418   5.629   7.108   6.073 -0.3763  0.2990 -0.1543
 7947SOL    HW124419   5.563   7.169   6.040 -1.2147 -0.2782  0.4239
 7947SOL    HW224420   5.579   7.036   6.109  0.5443  0.2999  1.2006
 7948SOL     OW24421   7.658   7.976   3.061  0.4255  0.4987 -0.4156
 7948SOL    HW124422   7.702   7.997   2.979  0.7564  0.5855 -0.2163
 7948SOL    HW224423   7.725   7.933   3.114 -0.1148 -0.6982 -0.6520
 7949SOL     OW24424   8.800   9.004   4.198  0.2028  0.8728  0.2175
 7949SOL    HW124425   8.820   9.096   4.181  0.2887  1.4433  2.9619
 7949SOL    HW224426   8.774   9.002   4.290  0.5403 -1.9206  0.3220
 7950SOL     OW24427   1.106   5.321   4.215 -0.3817 -0.1569  0.0300
 7950SOL    HW124428   1.145   5.241   4.178 -0.5428  0.7626 -2.2963
 7950SOL    HW224429   1.166   5.391   4.189 -0.4866  0.5646  1.6347
 7951SOL     OW24430   6.027   5.491   1.237  0.3497  0.3868 -0.3756
 7951SOL    HW124431   6.022   5.578   1.278  0.2884  0.2092 -0.0058
 7951SOL    HW224432   6.064   5.435   1.305  0.0439  0.0472 -0.4877
 7952SOL     OW24433   2.429   5.560   5.629  0.3657 -0.5002 -0.6853
 7952SOL    HW124434   2.419   5.608   5.547 -0.4902 -1.2434 -1.0340
 7952SOL    HW224435   2.460   5.473   5.602  1.7548 -0.2230 -0.0801
 7953SOL     OW24436   5.997   7.781   7.494  0.5764  0.1712  0.0326
 7953SOL    HW124437   5.936   7.717   7.457  0.8684 -0.0164 -0.1246
 7953SOL    HW224438   6.041   7.733   7.564  0.2394  0.4347  0.4373
 7954SOL     OW24439   2.836   3.601   6.096 -0.1915 -0.0901  0.3013
 7954SOL    HW124440   2.887   3.621   6.174 -0.5893 -0.6419  0.7115
 7954SOL    HW224441   2.753   3.647   6.110  0.3252  1.1675 -0.5616
 7955SOL     OW24442   2.829   7.936   4.126  0.5151  0.6692 -0.2790
 7955SOL    HW124443   2.907   7.880   4.128  0.9560  1.2413 -1.0876
 7955SOL    HW224444   2.758   7.878   4.099  0.7520  0.2623 -0.0380
 7956SOL     OW24445   1.433   4.122   5.513  0.6871 -0.0634  0.2787
 7956SOL    HW124446   1.344   4.097   5.487  0.9886  1.4773 -2.7084
 7956SOL    HW224447   1.440   4.215   5.491  2.6461  0.2019  1.7236
 7957SOL     OW24448   6.491   9.512   5.664  0.6379  1.0904  0.1595
 7957SOL    HW124449   6.413   9.457   5.654 -0.8792  2.8522  1.5607
 7957SOL    HW224450   6.553   9.457   5.711  0.2997 -0.3607 -1.0019
 7958SOL     OW24451   6.158   0.013   6.078 -0.1122 -0.1226  0.1408
 7958SOL    HW124452   6.226   0.059   6.028  0.3869 -1.7838 -0.7711
 7958SOL    HW224453   6.076   0.054   6.051  0.0531 -1.4897 -2.7681
 7959SOL     OW24454   6.009   5.317   1.805 -0.6096 -0.1783 -0.5378
 7959SOL    HW124455   5.927   5.295   1.849 -0.3914 -2.0378 -0.9994
 7959SOL    HW224456   6.077   5.283   1.863 -0.2613 -0.8069 -1.2978
 7960SOL     OW24457   0.395   9.127   3.322  0.5312  0.3820 -0.3794
 7960SOL    HW124458   0.421   9.219   3.326 -0.4834  0.7970 -2.1904
 7960SOL    HW224459   0.312   9.127   3.274 -0.0027 -1.3908  0.4635
 7961SOL     OW24460   1.346   0.113   3.111  0.4336  0.1010 -0.1399
 7961SOL    HW124461   1.401   0.174   3.062 -1.3593  3.4027  1.6231
 7961SOL    HW224462   1.272   0.166   3.141 -2.6467 -3.5359 -0.5000
 7962SOL     OW24463   2.592   6.853   0.395 -0.4414 -0.3995 -0.5347
 7962SOL    HW124464   2.561   6.938   0.426  3.6847  0.5608  1.7241
 7962SOL    HW224465   2.642   6.873   0.316 -2.3814 -1.4018 -2.1229
 7963SOL     OW24466   5.940   4.033   3.058 -0.6246 -0.0893 -0.1771
 7963SOL    HW124467   5.863   3.991   3.097 -1.6497 -0.4535 -2.4348
 7963SOL    HW224468   5.966   3.975   2.987  0.5783  0.9854 -0.6555
 7964SOL     OW24469   8.307   0.767   9.078 -0.5962  0.1905 -0.1036
 7964SOL    HW124470   8.309   0.863   9.084 -1.3392  0.3332 -1.5978
 7964SOL    HW224471   8.215   0.746   9.064 -0.5895 -0.8474  1.2749
 7965SOL     OW24472   6.636   0.880   7.324  0.3811 -0.1103  0.3852
 7965SOL    HW124473   6.663   0.869   7.232 -1.2868  0.3297 -0.1912
 7965SOL    HW224474   6.640   0.791   7.360 -0.7388 -0.6224 -0.6659
 7966SOL     OW24475   7.931   9.352   9.388  0.2618 -0.3405 -0.3045
 7966SOL    HW124476   7.915   9.387   9.476  0.3654  0.7644 -0.7107
 7966SOL    HW224477   7.849   9.368   9.341 -0.1304 -1.7630 -0.1764
 7967SOL     OW24478   3.512   0.538   8.970 -0.5266 -0.6689 -0.5092
 7967SOL    HW124479   3.545   0.489   9.046  0.2741 -1.2533 -1.2178
 7967SOL    HW224480   3.450   0.601   9.008  1.4806  0.5694  0.9119
 7968SOL     OW24481   4.205   6.519   6.930 -0.1009 -0.3396 -0.0457
 7968SOL    HW124482   4.171   6.440   6.888 -1.9109  0.5136 -0.2827
 7968SOL    HW224483   4.198   6.502   7.024 -0.6473 -0.4214 -0.0957
 7969SOL     OW24484   6.564   8.038   6.605  0.5556 -0.6493  0.2320
 7969SOL    HW124485   6.530   7.994   6.528  0.3421  0.4112 -0.2953
 7969SOL    HW224486   6.649   7.997   6.621  0.3792 -1.2184 -0.2665
 7970SOL     OW24487   0.192   7.441   7.995 -0.4633 -0.0532 -0.5233
 7970SOL    HW124488   0.242   7.421   7.916 -0.2278 -1.5789 -0.0179
 7970SOL    HW224489   0.217   7.373   8.057 -2.3505 -0.2232  0.1100
 7971SOL     OW24490   0.967   4.499   7.804  0.1253  0.2443 -0.3900
 7971SOL    HW124491   0.987   4.453   7.886 -1.2786 -0.0548 -0.2056
 7971SOL    HW224492   1.029   4.463   7.741 -1.2845 -2.3717 -0.4052
 7972SOL     OW24493   8.097   8.402   1.704 -0.1947  1.1398 -0.1678
 7972SOL    HW124494   8.134   8.316   1.724  0.1698  1.1690 -0.6819
 7972SOL    HW224495   8.005   8.385   1.683 -0.2005  0.9170  0.0409
 7973SOL     OW24496   5.980   6.621   8.008 -0.3963 -1.0444 -0.1455
 7973SOL    HW124497   6.050   6.583   7.955  0.4909  0.8370 -0.4248
 7973SOL    HW224498   6.008   6.607   8.099  1.8454  2.0385 -0.2128
 7974SOL     OW24499   1.359   3.611   8.097  0.0179 -0.0605 -0.2730
 7974SOL    HW124500   1.320   3.609   8.009  1.3049  0.1863 -0.8658
 7974SOL    HW224501   1.435   3.554   8.091  1.1677  1.3676  0.1507
 7975SOL     OW24502   6.511   5.329   8.147  0.1134 -0.4327  0.0825
 7975SOL    HW124503   6.519   5.386   8.071  1.6475 -0.5598  0.1299
 7975SOL    HW224504   6.430   5.358   8.190  0.5398  1.3032 -0.2228
 7976SOL     OW24505   9.117   5.215   9.094  0.0796 -0.4728 -0.3037
 7976SOL    HW124506   9.033   5.214   9.049  0.0235  0.9919 -0.2804
 7976SOL    HW224507   9.174   5.159   9.040 -0.6182 -0.6221 -0.8979
 7977SOL     OW24508   4.740   2.426   1.354 -0.1050  0.2018 -0.0581
 7977SOL    HW124509   4.802   2.407   1.425  1.3187  0.7863 -1.0884
 7977SOL    HW224510   4.747   2.350   1.296 -1.5115 -0.4264  0.5597
 7978SOL     OW24511   2.702   9.866   3.069  0.2880  0.1447  0.0344
 7978SOL    HW124512   2.757   9.839   2.996  0.3400  0.0519  0.1077
 7978SOL    HW224513   2.754   9.848   3.147  0.3737  0.5698  0.0805
 7979SOL     OW24514   3.355   1.376   5.337  0.1176 -0.2339 -0.4110
 7979SOL    HW124515   3.436   1.325   5.342 -0.2381 -0.8433 -0.7424
 7979SOL    HW224516   3.300   1.328   5.275  0.3855  1.4048 -2.0429
 7980SOL     OW24517   5.300   0.037   6.386 -0.0846  0.1887  0.6166
 7980SOL    HW124518   5.358   0.081   6.449 -1.1467  2.6647 -0.0064
 7980SOL    HW224519   5.355   0.022   6.309  0.4275 -0.0035  1.0134
 7981SOL     OW24520   0.135   0.509   6.744  0.5335 -0.0434  0.3313
 7981SOL    HW124521   0.047   0.538   6.768  1.2352  0.0890  2.9746
 7981SOL    HW224522   0.142   0.420   6.778  1.2143 -0.3253 -0.4968
 7982SOL     OW24523   9.562   9.713   1.145 -0.1198  0.0183 -0.5008
 7982SOL    HW124524   9.518   9.798   1.135 -0.3117 -0.1661 -1.2735
 7982SOL    HW224525   9.514   9.654   1.086  0.3510 -0.4953 -0.3754
 7983SOL     OW24526   9.156   5.582   2.311 -0.2858 -0.4910 -0.0534
 7983SOL    HW124527   9.207   5.507   2.341 -0.2440 -0.0197  1.1529
 7983SOL    HW224528   9.123   5.557   2.225 -0.1702 -1.8325  0.2727
 7984SOL     OW24529   8.516   3.127   2.153 -0.0886  0.4226 -0.4293
 7984SOL    HW124530   8.590   3.155   2.098  0.8991  0.4323  0.8573
 7984SOL    HW224531   8.498   3.203   2.209  0.5601 -0.4038  0.9454
 7985SOL     OW24532   3.228   8.399   0.534 -0.1551 -0.5198  0.0991
 7985SOL    HW124533   3.251   8.491   0.522  0.9653 -0.5684  1.6280
 7985SOL    HW224534   3.155   8.384   0.474 -1.4443  1.7894  0.9782
 7986SOL     OW24535   0.717   3.720   3.845 -0.3634 -0.2581  0.1519
 7986SOL    HW124536   0.769   3.649   3.805 -0.6419 -1.0451  1.1295
 7986SOL    HW224537   0.637   3.724   3.793  0.0285 -0.0624 -0.4452
 7987SOL     OW24538   0.537   8.955   0.909 -0.4274 -0.0329  0.4439
 7987SOL    HW124539   0.620   8.958   0.862 -0.5947  1.1237  0.1819
 7987SOL    HW224540   0.540   8.873   0.958  1.0144  0.1552  0.7233
 7988SOL     OW24541   3.135   5.657   7.282 -0.3170  0.7542 -0.3161
 7988SOL    HW124542   3.161   5.699   7.200 -1.4992  2.0914 -0.0416
 7988SOL    HW224543   3.202   5.681   7.345  0.6895 -0.4173 -0.8958
 7989SOL     OW24544   6.644   5.224   7.789  0.0796  0.0377 -0.6707
 7989SOL    HW124545   6.686   5.148   7.750 -2.5943 -1.3448 -1.1117
 7989SOL    HW224546   6.617   5.195   7.876 -1.6455  0.1732 -1.1270
 7990SOL     OW24547   2.012   1.193   5.146  0.1246 -0.3504  0.2647
 7990SOL    HW124548   2.036   1.133   5.076  0.4160 -0.3354  0.3504
 7990SOL    HW224549   2.020   1.280   5.107 -1.5917 -0.3939 -0.2649
 7991SOL     OW24550   7.043   1.802   3.966 -0.2949 -0.0231 -0.0531
 7991SOL    HW124551   7.074   1.888   3.991 -0.1176 -0.1554  0.1879
 7991SOL    HW224552   7.117   1.760   3.922 -0.1958 -0.2561  0.3258
 7992SOL     OW24553   0.863   6.984   6.456  0.4128 -0.2606  0.1889
 7992SOL    HW124554   0.930   7.007   6.521  1.3829  1.4389 -1.3035
 7992SOL    HW224555   0.901   6.909   6.409  0.3969 -0.5195  0.5826
 7993SOL     OW24556   0.575   3.488   5.926  0.6197  0.2136 -0.0953
 7993SOL    HW124557   0.628   3.410   5.909 -0.1052 -0.0693 -1.1478
 7993SOL    HW224558   0.494   3.454   5.963 -0.1414  0.3483 -1.5651
 7994SOL     OW24559   3.207   2.614   4.908  0.4532  0.6982 -0.0637
 7994SOL    HW124560   3.126   2.584   4.951  0.6084  0.5075  0.0989
 7994SOL    HW224561   3.187   2.702   4.878  0.1175  0.5754 -0.2023
 7995SOL     OW24562   0.430   1.105   8.122 -0.2138  0.0969  0.2680
 7995SOL    HW124563   0.433   1.179   8.182 -0.0191 -0.4196  0.8964
 7995SOL    HW224564   0.472   1.033   8.169  0.4492 -0.1649 -0.6886
 7996SOL     OW24565   3.532   9.103   9.291  0.0207  0.2864 -0.0302
 7996SOL    HW124566   3.498   9.044   9.223  1.2096  1.3049 -1.5840
 7996SOL    HW224567   3.585   9.046   9.347 -0.3602 -0.4452 -0.3835
 7997SOL     OW24568   5.281   8.981   1.406 -0.3642  0.1421  0.2285
 7997SOL    HW124569   5.239   9.029   1.335 -1.4158  0.4191  1.0188
 7997SOL    HW224570   5.374   8.984   1.386 -0.6304  0.3915 -1.0260
 7998SOL     OW24571   8.812   2.012   8.980  0.3192 -0.1781 -0.5267
 7998SOL    HW124572   8.753   2.080   8.947  0.1313 -0.4856 -0.8191
 7998SOL    HW224573   8.794   1.936   8.926 -0.0724 -0.7288  0.3610
 7999SOL     OW24574   3.913   8.813   5.252  0.0651  0.0147 -0.2360
 7999SOL    HW124575   3.984   8.874   5.271  1.5177 -1.8958  0.8544
 7999SOL    HW224576   3.953   8.749   5.192 -1.4140  0.1153 -1.3711
 8000SOL     OW24577   3.803   9.020   9.097  0.2419 -0.2517  0.4626
 8000SOL    HW124578   3.755   9.101   9.081  3.8708  1.8180 -1.1052
 8000SOL    HW224579   3.771   8.959   9.031  1.1278  1.7321 -1.9267
 8001SOL     OW24580   2.771   7.280   9.756 -0.3221 -0.1471  0.3639
 8001SOL    HW124581   2.754   7.359   9.704  2.3515  0.5907  0.4621
 8001SOL    HW224582   2.847   7.302   9.809  0.2587 -2.6795  0.7038
 8002SOL     OW24583   1.892   2.375   2.300 -0.1728 -0.9344  0.3877
 8002SOL    HW124584   1.862   2.376   2.391  0.2352 -0.1354  0.5282
 8002SOL    HW224585   1.812   2.373   2.248 -0.4323 -0.5281  0.7614
 8003SOL     OW24586   1.196   4.357   2.561  0.2868  0.1297  0.0543
 8003SOL    HW124587   1.267   4.353   2.626  1.5633  0.9689 -1.2223
 8003SOL    HW224588   1.219   4.289   2.497 -0.6923 -0.3620  0.2084
 8004SOL     OW24589   9.681   3.083   1.555 -0.3912 -0.2429  0.1178
 8004SOL    HW124590   9.622   3.014   1.584 -1.8207  0.6856 -0.5008
 8004SOL    HW224591   9.635   3.127   1.484  0.4369  1.4076  0.5475
 8005SOL     OW24592   6.845   2.347   7.771  0.7427  0.2043 -0.2194
 8005SOL    HW124593   6.868   2.284   7.839 -0.3087  0.2919  0.2345
 8005SOL    HW224594   6.789   2.411   7.814  1.1358  1.0164 -0.8634
 8006SOL     OW24595   8.668   4.931   9.293 -0.0208 -0.2317  0.3595
 8006SOL    HW124596   8.674   4.850   9.344  0.7950 -0.3141  0.1509
 8006SOL    HW224597   8.716   4.912   9.212 -1.5600 -0.1995 -0.5862
 8007SOL     OW24598   4.419   6.570   8.021 -0.5989 -0.2871  0.1070
 8007SOL    HW124599   4.381   6.632   7.959 -0.7738  0.9100  1.3498
 8007SOL    HW224600   4.345   6.518   8.050 -0.4760 -1.0141 -0.8385
 8008SOL     OW24601   2.017   3.744   9.450 -0.1539 -0.5740 -0.0569
 8008SOL    HW124602   2.105   3.781   9.460 -0.7259  0.4689  1.5130
 8008SOL    HW224603   2.024   3.656   9.485  0.0479 -0.1524  0.9878
 8009SOL     OW24604   6.239   0.615   2.984  0.6225 -0.0367 -0.2763
 8009SOL    HW124605   6.273   0.622   3.073  1.3103  3.2448 -0.6620
 8009SOL    HW224606   6.280   0.536   2.949  0.6463 -1.1843  2.1552
 8010SOL     OW24607   4.382   4.221   1.952 -0.0787  0.2409  0.0178
 8010SOL    HW124608   4.287   4.226   1.965  0.2404  2.1275  2.3689
 8010SOL    HW224609   4.404   4.130   1.972 -1.2345  0.0890  0.7136
 8011SOL     OW24610   2.525   1.567   8.759 -0.1765 -0.3838 -0.4895
 8011SOL    HW124611   2.480   1.489   8.727  0.7510 -0.0347 -2.8608
 8011SOL    HW224612   2.497   1.637   8.699  1.3893  0.4100 -0.3411
 8012SOL     OW24613   7.760   4.517   6.826  0.0019  0.3406  0.0476
 8012SOL    HW124614   7.692   4.451   6.839  0.6334 -0.0484  1.5234
 8012SOL    HW224615   7.738   4.557   6.741 -1.1233 -0.8726 -0.2703
 8013SOL     OW24616   9.015   4.830   8.124 -0.6371 -0.0035 -0.0226
 8013SOL    HW124617   8.972   4.809   8.041  0.6947 -0.1794 -0.7006
 8013SOL    HW224618   9.067   4.752   8.143 -1.1990 -0.0986  1.1701
 8014SOL     OW24619   9.281   2.363   8.681  0.4618  0.3484 -0.3571
 8014SOL    HW124620   9.225   2.438   8.661  0.0086  0.7189  1.9581
 8014SOL    HW224621   9.221   2.298   8.719  1.1294 -0.4792 -0.6855
 8015SOL     OW24622   5.633   1.734   2.978  0.2978 -0.1924 -0.5272
 8015SOL    HW124623   5.628   1.819   2.933  2.2462  0.2484 -0.0000
 8015SOL    HW224624   5.717   1.736   3.023 -1.2558 -0.8712  2.6550
 8016SOL     OW24625   4.197   5.558   4.739  1.0778 -0.1646  0.1402
 8016SOL    HW124626   4.151   5.625   4.689  1.9973 -0.0933 -0.6364
 8016SOL    HW224627   4.286   5.557   4.703  1.1836 -1.5649  0.3658
 8017SOL     OW24628   3.287   4.979   4.710 -0.1050 -0.4517  0.1520
 8017SOL    HW124629   3.337   4.946   4.635  0.3670 -0.2974  0.3982
 8017SOL    HW224630   3.302   5.074   4.708 -1.9575 -0.1222 -0.9373
 8018SOL     OW24631   0.404   0.168   3.825 -0.0185  0.6081 -0.0884
 8018SOL    HW124632   0.373   0.258   3.825  1.4673  1.1677  1.0308
 8018SOL    HW224633   0.326   0.115   3.838 -0.5683  1.9529  3.0056
 8019SOL     OW24634   9.638   5.986   3.402 -0.1069 -0.1783 -0.0275
 8019SOL    HW124635   9.627   5.981   3.307  0.2867 -1.0907 -0.0309
 8019SOL    HW224636   9.691   5.910   3.424  0.2437  0.3165  0.8661
 8020SOL     OW24637   7.393   4.369   6.990 -0.3340 -0.1495 -0.0386
 8020SOL    HW124638   7.456   4.313   6.945  1.2087  1.1559  0.4242
 8020SOL    HW224639   7.319   4.375   6.929  0.4407 -0.8343 -1.0875
 8021SOL     OW24640   1.777   9.334   4.596  0.1152  0.0290 -0.0848
 8021SOL    HW124641   1.826   9.369   4.522 -0.9375  2.5375  0.3315
 8021SOL    HW224642   1.771   9.406   4.658 -2.2603 -0.8394  0.8178
 8022SOL     OW24643   6.854   4.474   9.689  0.2439  0.1160 -0.6091
 8022SOL    HW124644   6.887   4.420   9.617  1.5467  1.4693 -1.0597
 8022SOL    HW224645   6.924   4.537   9.707 -0.5390  0.5829  1.0487
 8023SOL     OW24646   9.570   0.708   2.154 -0.6862 -0.4636  0.4826
 8023SOL    HW124647   9.485   0.693   2.112 -0.5027 -1.3501  0.4088
 8023SOL    HW224648   9.552   0.695   2.247 -0.7778  0.0728  0.5477
 8024SOL     OW24649   4.007   2.290   7.111  0.7592 -0.0605  0.2751
 8024SOL    HW124650   4.059   2.360   7.071  0.1738  1.3700  1.8954
 8024SOL    HW224651   3.916   2.315   7.093  0.5502 -0.7126  0.3924
 8025SOL     OW24652   0.682   6.732   3.103 -0.1821 -0.5301  0.1182
 8025SOL    HW124653   0.631   6.671   3.156  0.5846 -1.2746  0.0274
 8025SOL    HW224654   0.751   6.678   3.064  0.1092  0.2690 -0.5139
 8026SOL     OW24655   0.456   0.177   2.275  0.2553  0.9955  0.0284
 8026SOL    HW124656   0.539   0.200   2.318  0.6788  2.5503 -1.5322
 8026SOL    HW224657   0.453   0.232   2.197 -1.6063 -0.0525 -0.6974
 8027SOL     OW24658   7.060   9.923   0.263  0.3721  0.6508  0.0862
 8027SOL    HW124659   7.072  10.018   0.274 -1.3583  1.0375 -0.9042
 8027SOL    HW224660   6.994   9.916   0.194  1.4287 -1.3276 -0.7778
 8028SOL     OW24661   4.073   8.775   5.684  0.0750 -0.4897  0.1761
 8028SOL    HW124662   4.098   8.863   5.654  0.9646 -0.1194  1.9215
 8028SOL    HW224663   4.055   8.727   5.603 -1.4633  1.5664 -0.7996
 8029SOL     OW24664   7.402   3.565   9.788 -0.1596  0.2204 -0.0590
 8029SOL    HW124665   7.450   3.646   9.805  0.1812 -0.4232  2.6473
 8029SOL    HW224666   7.323   3.573   9.841  0.7747 -1.9055  1.8207
 8030SOL     OW24667   7.733   1.765   8.152 -0.3534  0.1086 -0.5175
 8030SOL    HW124668   7.649   1.762   8.107 -1.1416 -1.2610  0.9560
 8030SOL    HW224669   7.786   1.699   8.107 -1.2741 -1.5539  0.7319
 8031SOL     OW24670   2.755   7.167   5.801 -0.3040 -0.1481  0.1992
 8031SOL    HW124671   2.794   7.114   5.731  0.5654 -0.0848  0.6187
 8031SOL    HW224672   2.786   7.126   5.882 -1.5612 -0.4145  0.5634
 8032SOL     OW24673   9.472   0.856   6.292 -0.3518  0.0317  0.0450
 8032SOL    HW124674   9.433   0.815   6.370 -1.0621  0.8191  0.1144
 8032SOL    HW224675   9.536   0.792   6.261 -1.1921 -0.9802  0.3475
 8033SOL     OW24676   9.103   3.827   1.217  0.3536 -0.2239 -0.2071
 8033SOL    HW124677   9.153   3.793   1.142  0.9486 -0.3875  0.2582
 8033SOL    HW224678   9.146   3.789   1.294 -1.5059 -1.7573  0.1597
 8034SOL     OW24679   2.883   6.641   9.239  0.3304 -0.1471  0.9196
 8034SOL    HW124680   2.954   6.613   9.298 -0.0542  0.6163  1.7557
 8034SOL    HW224681   2.906   6.730   9.215 -0.0346 -0.1152  0.6894
 8035SOL     OW24682   8.474   6.495   6.656 -0.1178  0.0492 -0.3236
 8035SOL    HW124683   8.476   6.589   6.674  0.0785  0.1645 -0.9450
 8035SOL    HW224684   8.565   6.468   6.658  0.1247  0.4126 -2.8847
 8036SOL     OW24685   8.191   9.231   0.152  0.2753  0.3594 -0.0759
 8036SOL    HW124686   8.252   9.186   0.210 -0.6958  0.9218  1.4536
 8036SOL    HW224687   8.212   9.324   0.163 -1.6209  0.6713  1.4976
 8037SOL     OW24688   7.495   0.892   4.109  0.0039  0.2035 -0.7000
 8037SOL    HW124689   7.450   0.812   4.083 -0.1355 -0.3753  1.1348
 8037SOL    HW224690   7.424   0.956   4.121 -0.3721 -0.5185  1.5222
 8038SOL     OW24691   7.779   4.232   1.251 -0.0628  0.5035  0.1658
 8038SOL    HW124692   7.744   4.319   1.235  2.2286  1.3785 -0.4276
 8038SOL    HW224693   7.784   4.225   1.346  0.1875  1.2158  0.2092
 8039SOL     OW24694   6.099   0.124   3.689 -0.5072  0.4674  0.3151
 8039SOL    HW124695   6.129   0.125   3.780 -0.0454  0.3584  0.1643
 8039SOL    HW224696   6.042   0.048   3.683  1.0009 -0.6669  0.0195
 8040SOL     OW24697   2.716   1.290   4.083  0.1868 -0.2822  0.8233
 8040SOL    HW124698   2.730   1.324   3.995  0.5857 -4.3952 -0.9343
 8040SOL    HW224699   2.627   1.316   4.106 -0.8201 -1.0467 -1.8579
 8041SOL     OW24700   2.936   3.516   5.546  0.2460  0.4828 -0.2203
 8041SOL    HW124701   2.964   3.605   5.568  0.9822  0.2990 -0.3620
 8041SOL    HW224702   2.845   3.512   5.573  0.6107  0.8195  1.1462
 8042SOL     OW24703   5.364   0.875   7.248 -0.1481 -0.6315  0.5070
 8042SOL    HW124704   5.423   0.886   7.323  1.1309  0.6124 -0.6327
 8042SOL    HW224705   5.298   0.943   7.260  0.1144 -0.3646  0.4795
 8043SOL     OW24706   1.693   8.312   7.611 -0.1764 -0.0070  0.2977
 8043SOL    HW124707   1.652   8.234   7.573 -0.3197  0.3624 -0.3242
 8043SOL    HW224708   1.722   8.363   7.536 -0.1435  0.5735  0.6963
 8044SOL     OW24709   1.644   0.086   1.978  0.6076  0.1199 -0.5592
 8044SOL    HW124710   1.693   0.012   2.015  1.0217  0.8085  0.3075
 8044SOL    HW224711   1.706   0.128   1.919  0.9860  0.8137  0.3088
 8045SOL     OW24712   3.189   5.531   6.720  0.1748 -0.0351 -0.2025
 8045SOL    HW124713   3.165   5.599   6.658 -1.4175  1.0929  1.5260
 8045SOL    HW224714   3.161   5.450   6.679 -0.1110  0.5895 -1.2782
 8046SOL     OW24715   1.925   9.799   0.478 -0.3257 -0.4784 -0.5651
 8046SOL    HW124716   2.012   9.839   0.476 -0.9489  0.9496 -0.2730
 8046SOL    HW224717   1.883   9.829   0.398 -1.6098  1.3977  0.7407
 8047SOL     OW24718   4.422   1.641   8.617 -0.0385  0.4521 -0.6872
 8047SOL    HW124719   4.329   1.658   8.630  0.2447  1.0528  0.7707
 8047SOL    HW224720   4.438   1.559   8.665  0.0569  0.0021 -1.4832
 8048SOL     OW24721   6.005   6.893   5.479 -0.2380 -0.2158  0.0276
 8048SOL    HW124722   6.036   6.968   5.429 -1.3667  1.2720  1.4633
 8048SOL    HW224723   5.951   6.843   5.418  2.1048 -1.0467 -1.5358
 8049SOL     OW24724   6.599   7.571   7.166  0.0708 -0.2268 -0.0183
 8049SOL    HW124725   6.588   7.666   7.167  0.2832 -0.1790  1.9676
 8049SOL    HW224726   6.692   7.558   7.148  0.0483 -0.0643 -0.2640
 8050SOL     OW24727   1.819   7.643   9.033  0.2329 -0.1436 -0.4478
 8050SOL    HW124728   1.778   7.695   8.963 -3.2305 -0.7202  0.9232
 8050SOL    HW224729   1.747   7.626   9.094  2.6884 -1.1781  2.3733
 8051SOL     OW24730   1.566   5.126   4.087  0.2924  0.3221  0.3795
 8051SOL    HW124731   1.638   5.173   4.046  0.4319  1.4320  1.8068
 8051SOL    HW224732   1.600   5.101   4.173 -0.3912 -0.8554  0.3324
 8052SOL     OW24733   9.253   0.532   0.580 -0.2041  0.6540 -0.8809
 8052SOL    HW124734   9.192   0.561   0.513 -0.3702  0.1465 -0.9537
 8052SOL    HW224735   9.198   0.506   0.653 -0.0040  1.7880 -0.2953
 8053SOL     OW24736   6.939   1.061   8.420  0.2977 -0.5360 -0.4045
 8053SOL    HW124737   6.883   0.988   8.394  0.0757  0.3795 -2.7411
 8053SOL    HW224738   6.884   1.139   8.407  0.1512  0.0959  3.0733
 8054SOL     OW24739   7.919   4.005   4.115 -0.2394 -0.1834  0.9591
 8054SOL    HW124740   7.903   3.911   4.115  0.8854 -0.4040  0.1263
 8054SOL    HW224741   7.891   4.034   4.028  1.9711 -0.2929  0.1170
 8055SOL     OW24742   0.453   5.746   5.426 -0.2791  0.0679  0.2703
 8055SOL    HW124743   0.418   5.666   5.387  1.6710 -0.9223  0.4248
 8055SOL    HW224744   0.492   5.794   5.353 -0.2279  0.2254  0.4001
 8056SOL     OW24745   9.794   2.103   9.740 -0.0790 -0.5931  0.3196
 8056SOL    HW124746   9.805   2.022   9.791  0.4344 -1.4776 -1.1267
 8056SOL    HW224747   9.778   2.171   9.806 -0.6374 -1.8840  1.5700
 8057SOL     OW24748   0.862   8.719   1.337  0.0734 -0.2745 -0.7236
 8057SOL    HW124749   0.843   8.645   1.395 -0.9992  0.8112  0.3578
 8057SOL    HW224750   0.842   8.797   1.389  0.5715  0.7797 -2.0443
 8058SOL     OW24751   9.275   4.071   6.225 -0.0116 -0.3123 -0.2161
 8058SOL    HW124752   9.366   4.095   6.208 -0.1538  0.1934 -0.2838
 8058SOL    HW224753   9.224   4.144   6.190 -0.3605  0.2705  1.3815
 8059SOL     OW24754   1.637   6.192   3.983  0.8128  0.0720 -0.2947
 8059SOL    HW124755   1.685   6.196   4.065 -1.6254 -0.5991  1.2648
 8059SOL    HW224756   1.643   6.100   3.956  1.1218  0.1709 -0.5709
 8060SOL     OW24757   8.106   1.545   8.600 -0.3389 -0.3968  0.0649
 8060SOL    HW124758   8.100   1.558   8.695 -1.2067 -0.4526  0.0238
 8060SOL    HW224759   8.133   1.630   8.566  0.6533 -0.5520  0.4113
 8061SOL     OW24760   2.254   1.972   0.958 -0.0099 -0.1569  0.0895
 8061SOL    HW124761   2.252   1.965   1.054  0.2722  0.9212  0.1931
 8061SOL    HW224762   2.266   2.066   0.942 -4.2887  0.4250 -1.0370
 8062SOL     OW24763   0.250   9.325   6.780 -0.4174 -0.0022 -0.5391
 8062SOL    HW124764   0.170   9.336   6.729 -1.6536 -1.6873  0.9169
 8062SOL    HW224765   0.220   9.298   6.867  1.7205 -0.6185  0.0764
 8063SOL     OW24766   2.307   5.376   5.337  0.1933  0.4171  0.2245
 8063SOL    HW124767   2.351   5.343   5.416 -0.1607  0.7458  0.5651
 8063SOL    HW224768   2.297   5.469   5.353 -1.5374  0.1959  0.6099
 8064SOL     OW24769   8.499   0.707   1.346  0.2512  0.5828  0.2035
 8064SOL    HW124770   8.431   0.657   1.392 -0.1503  1.8429  1.0162
 8064SOL    HW224771   8.576   0.651   1.348 -0.3063 -0.1809  0.7121
 8065SOL     OW24772   8.230   7.172   7.827 -0.1650 -0.7843 -0.0032
 8065SOL    HW124773   8.298   7.121   7.870 -0.5602 -0.7108  0.7378
 8065SOL    HW224774   8.277   7.245   7.787  0.1645 -0.5227  0.8231
 8066SOL     OW24775   9.609   2.286   0.979 -0.0128 -0.0642 -0.3205
 8066SOL    HW124776   9.603   2.351   0.909 -1.2432  0.9989  0.7191
 8066SOL    HW224777   9.684   2.314   1.031  0.3376 -0.3241 -0.6784
 8067SOL     OW24778   1.232   1.540   3.827 -0.6131  0.3627 -0.3472
 8067SOL    HW124779   1.270   1.588   3.901 -0.8460 -0.0156  0.0236
 8067SOL    HW224780   1.291   1.558   3.754 -1.4474  2.3461 -0.5793
 8068SOL     OW24781   9.705   0.332   4.538 -0.7431 -0.3309  0.2548
 8068SOL    HW124782   9.651   0.351   4.614  0.7613  1.4540  0.9525
 8068SOL    HW224783   9.728   0.239   4.547 -2.0581 -0.6022  0.9692
 8069SOL     OW24784   7.976   1.525   1.670 -0.0917  0.0666  0.1933
 8069SOL    HW124785   7.982   1.472   1.590  1.1559  2.2249 -1.2383
 8069SOL    HW224786   7.933   1.468   1.733 -0.0987 -2.1296 -1.6701
 8070SOL     OW24787   3.591   4.999   8.864  0.0994  0.6519  0.2871
 8070SOL    HW124788   3.572   4.945   8.787  1.1844 -0.1844  0.5790
 8070SOL    HW224789   3.508   5.006   8.910 -0.2321 -0.0968 -0.1864
 8071SOL     OW24790   7.276   8.446   4.307  0.6178 -0.2376  0.2104
 8071SOL    HW124791   7.258   8.529   4.263  0.5986  1.3326  2.9605
 8071SOL    HW224792   7.191   8.413   4.332  0.7023 -0.3972  0.2862
 8072SOL     OW24793   8.829   8.760   9.858  0.1168 -0.2339  0.5503
 8072SOL    HW124794   8.765   8.695   9.829  1.5489 -1.2760 -0.4200
 8072SOL    HW224795   8.914   8.719   9.841  1.0759  0.5788  2.9350
 8073SOL     OW24796   8.625   5.850   0.531  0.2527  0.2168  0.5357
 8073SOL    HW124797   8.716   5.839   0.556  1.3575  1.8127 -2.3095
 8073SOL    HW224798   8.587   5.763   0.539  2.5828 -0.9438 -0.1572
 8074SOL     OW24799   5.275   0.467   5.391 -0.4385 -0.4048 -0.5744
 8074SOL    HW124800   5.254   0.408   5.318  0.2745 -1.1022 -0.2422
 8074SOL    HW224801   5.315   0.543   5.349  0.4586 -1.0325 -0.8961
 8075SOL     OW24802   0.937   1.626   3.378 -0.4999 -0.4310  0.1080
 8075SOL    HW124803   0.937   1.554   3.315 -0.6022  0.3480 -0.8043
 8075SOL    HW224804   0.881   1.596   3.449 -0.2336 -1.4008 -0.0754
 8076SOL     OW24805   0.080   8.773   5.271 -0.2921 -0.5675  0.1679
 8076SOL    HW124806   0.005   8.785   5.212 -0.9080  1.2925  1.2727
 8076SOL    HW224807   0.156   8.798   5.218 -0.8800  1.5011  0.2401
 8077SOL     OW24808   4.081   6.167   9.525  0.3852  0.4555  0.2769
 8077SOL    HW124809   3.993   6.154   9.489  0.2233  0.4766  0.6634
 8077SOL    HW224810   4.106   6.256   9.498  1.0848 -0.2155 -1.5114
 8078SOL     OW24811   0.880   5.932   5.507  0.1566  0.2401  0.1778
 8078SOL    HW124812   0.821   5.860   5.486  0.2902  0.1610  0.0703
 8078SOL    HW224813   0.966   5.892   5.512  0.4482  0.6053 -1.2613
 8079SOL     OW24814   0.483   2.937   3.745  0.1386 -0.5733 -0.3037
 8079SOL    HW124815   0.541   2.861   3.756  0.2861 -0.3058  0.8602
 8079SOL    HW224816   0.527   2.991   3.680  1.5561 -0.0676  1.0075
 8080SOL     OW24817   6.300   6.144   1.383  0.5370 -0.3721 -0.1166
 8080SOL    HW124818   6.306   6.218   1.323  1.6512 -0.8697 -0.6437
 8080SOL    HW224819   6.264   6.072   1.331  1.0028 -0.6576 -0.0484
 8081SOL     OW24820   8.879   4.053   5.197  0.0264  0.3801  0.5776
 8081SOL    HW124821   8.806   4.052   5.136  0.7866 -0.2482 -0.3513
 8081SOL    HW224822   8.953   4.088   5.147  0.7454 -0.4447  1.0189
 8082SOL     OW24823   0.233   7.893   4.458 -0.6784  0.3511 -0.8063
 8082SOL    HW124824   0.157   7.876   4.403 -2.8251  1.3400  1.6145
 8082SOL    HW224825   0.200   7.951   4.527  1.5745 -1.2669  1.8822
 8083SOL     OW24826   9.515   4.526   2.056 -0.5016  0.1998  0.2958
 8083SOL    HW124827   9.532   4.588   2.127 -0.3407  1.5024 -0.8305
 8083SOL    HW224828   9.551   4.569   1.978 -1.1597 -0.9431 -0.6705
 8084SOL     OW24829   5.708   6.959   8.072  0.5288  0.4349 -0.6531
 8084SOL    HW124830   5.677   6.875   8.037  1.0577 -0.3138  0.6248
 8084SOL    HW224831   5.708   6.947   8.167  0.4281  1.9606 -0.4351
 8085SOL     OW24832   2.575   7.450   0.880 -0.5139  0.1517  0.9627
 8085SOL    HW124833   2.604   7.540   0.875 -1.0792  0.3098  0.3430
 8085SOL    HW224834   2.588   7.415   0.792 -0.4901 -0.3118  1.1443
 8086SOL     OW24835   9.217   9.180   5.141  0.2884 -1.1258  0.5204
 8086SOL    HW124836   9.168   9.252   5.100  3.0622  0.3521 -0.4711
 8086SOL    HW224837   9.181   9.173   5.229 -1.4829  0.0345 -0.0556
 8087SOL     OW24838   3.070   6.243   3.086  0.3134 -0.3537  0.6417
 8087SOL    HW124839   3.074   6.157   3.128  0.9245 -1.0182 -0.7433
 8087SOL    HW224840   3.144   6.291   3.125  0.7233 -0.8733  0.5199
 8088SOL     OW24841   9.762   5.144   9.665  0.3030  0.0907 -0.4578
 8088SOL    HW124842   9.788   5.235   9.655  1.5262  0.0615  1.8147
 8088SOL    HW224843   9.675   5.140   9.626  1.3902  1.4986 -3.2731
 8089SOL     OW24844   7.935   7.872   0.390 -0.1550  0.0173  0.5883
 8089SOL    HW124845   7.920   7.782   0.420  0.5796 -0.6749 -0.9945
 8089SOL    HW224846   7.967   7.918   0.467 -2.5917 -0.4805  2.0000
 8090SOL     OW24847   1.519   8.126   7.518 -0.2372 -0.0436  0.2348
 8090SOL    HW124848   1.456   8.184   7.476  0.0953  0.7610  0.8238
 8090SOL    HW224849   1.475   8.096   7.598  0.6618  1.7724  1.4796
 8091SOL     OW24850   7.525   6.125   0.885 -0.1379 -0.2067 -0.3293
 8091SOL    HW124851   7.494   6.208   0.922  0.1647  0.2121 -0.9865
 8091SOL    HW224852   7.474   6.115   0.804 -0.7421 -1.0736  0.1402
 8092SOL     OW24853   4.366   0.680   8.602  0.6250  0.2378  0.1836
 8092SOL    HW124854   4.333   0.765   8.576 -0.3116  0.4298  1.8279
 8092SOL    HW224855   4.428   0.655   8.533  1.0275  2.3005 -0.2544
 8093SOL     OW24856   9.350   4.282   1.907 -0.0502  0.5646 -0.3266
 8093SOL    HW124857   9.394   4.307   1.989  1.8303  1.6377 -1.5860
 8093SOL    HW224858   9.352   4.362   1.854  1.2583 -0.7784 -2.4454
 8094SOL     OW24859   5.894   9.608   3.207 -0.6008  0.2797  0.1431
 8094SOL    HW124860   5.844   9.598   3.289 -0.6049  1.8888  0.3651
 8094SOL    HW224861   5.875   9.697   3.178  2.0599  0.9305  0.1809
 8095SOL     OW24862   6.177   3.714   5.712  0.0599  0.5470  0.0126
 8095SOL    HW124863   6.111   3.783   5.713  0.3109  0.7812  1.3549
 8095SOL    HW224864   6.127   3.633   5.705 -0.5008  0.6233  2.4887
 8096SOL     OW24865   0.666   1.607   7.802  0.3073  0.7676  0.0971
 8096SOL    HW124866   0.696   1.680   7.856  2.7511  0.2614 -0.4582
 8096SOL    HW224867   0.743   1.583   7.750 -0.5988 -1.8128 -0.1763
 8097SOL     OW24868   5.873   1.387   0.777 -0.3057  0.3840  0.5856
 8097SOL    HW124869   5.878   1.384   0.872  0.9311 -0.6289  0.5179
 8097SOL    HW224870   5.893   1.478   0.755 -1.6191  0.8754  1.3111
 8098SOL     OW24871   5.487   7.783   9.012 -0.3048 -0.2685  0.8877
 8098SOL    HW124872   5.562   7.776   9.070 -1.1251  0.3518  2.0730
 8098SOL    HW224873   5.491   7.704   8.958  2.7297  1.0524 -1.0615
 8099SOL     OW24874   0.624   7.257   0.072 -0.5140 -0.4456  0.3665
 8099SOL    HW124875   0.571   7.218   0.142 -0.5782 -0.2370  0.4332
 8099SOL    HW224876   0.695   7.302   0.118 -0.8045  0.0683  0.3173
 8100SOL     OW24877   1.167   7.149   6.958 -0.1101  0.3650  0.7003
 8100SOL    HW124878   1.122   7.134   7.041 -1.9339 -1.2597 -0.4920
 8100SOL    HW224879   1.127   7.228   6.922 -1.9593 -0.9094 -0.2163
 8101SOL     OW24880   9.617   3.598   6.789  0.4071  0.3308 -0.2409
 8101SOL    HW124881   9.711   3.602   6.775  0.5440  0.0830  0.5718
 8101SOL    HW224882   9.607   3.570   6.879 -0.4580 -0.6070 -0.6080
 8102SOL     OW24883   4.787   9.794   0.606 -0.7392  0.1835 -0.6529
 8102SOL    HW124884   4.731   9.716   0.607 -1.1684  0.4933 -0.0397
 8102SOL    HW224885   4.732   9.864   0.642 -0.0062  0.5222 -0.1664
 8103SOL     OW24886   2.562   5.376   6.508 -0.0509  0.4524  0.0103
 8103SOL    HW124887   2.468   5.373   6.494  0.0955  0.2966 -1.0452
 8103SOL    HW224888   2.578   5.461   6.549 -0.9315 -0.5831  2.6662
 8104SOL     OW24889   1.910   0.535   2.743 -0.3455 -0.2418 -0.2338
 8104SOL    HW124890   1.912   0.451   2.789  1.6333  0.5037  1.2036
 8104SOL    HW224891   1.817   0.555   2.734 -0.9495 -0.5645  3.4408
 8105SOL     OW24892   2.778   0.590   8.425  0.1793  0.6869  0.3661
 8105SOL    HW124893   2.859   0.639   8.445  1.2202 -1.1017  0.7231
 8105SOL    HW224894   2.714   0.623   8.487  1.0241  1.1698  0.9993
 8106SOL     OW24895   1.932   9.358   4.332 -0.7829  0.2076  0.4689
 8106SOL    HW124896   1.953   9.421   4.264  0.4280  1.0852  1.6132
 8106SOL    HW224897   1.852   9.315   4.302 -0.7647  1.2005 -1.0539
 8107SOL     OW24898   5.004   7.904   6.870 -0.0541  0.3404  0.3042
 8107SOL    HW124899   5.057   7.971   6.826  0.2657 -1.3208 -2.0292
 8107SOL    HW224900   4.918   7.910   6.829 -0.3195  0.0224  0.8112
 8108SOL     OW24901   8.607   7.742   1.263 -0.6781  0.1501  0.1846
 8108SOL    HW124902   8.591   7.835   1.283  1.5246  1.1695 -2.1510
 8108SOL    HW224903   8.646   7.744   1.175  3.3019 -2.6034  1.6455
 8109SOL     OW24904   2.737   5.528   8.063 -0.1320  0.6412 -0.0176
 8109SOL    HW124905   2.671   5.517   8.132 -1.0756  1.2718 -0.7882
 8109SOL    HW224906   2.749   5.440   8.028 -0.8234  0.5728 -0.0957
 8110SOL     OW24907   4.244   1.502   2.391  0.2142 -0.2043  0.4014
 8110SOL    HW124908   4.169   1.550   2.356 -1.0145 -1.3374  1.3893
 8110SOL    HW224909   4.304   1.570   2.423 -0.2960  0.7146 -0.5393
 8111SOL     OW24910   6.618   0.033   7.007  0.7917 -0.8073  0.2111
 8111SOL    HW124911   6.662   0.116   7.024  0.4492 -0.7372  0.7778
 8111SOL    HW224912   6.684  -0.020   6.962  0.5410  0.2904 -1.5497
 8112SOL     OW24913   8.651   7.451   4.563 -0.4979  0.1562  0.0121
 8112SOL    HW124914   8.629   7.362   4.537 -2.4265  0.1349  1.4961
 8112SOL    HW224915   8.582   7.476   4.624 -0.3511  2.8950 -0.8094
 8113SOL     OW24916   8.272   4.801   2.921  0.3033  0.0198 -0.0302
 8113SOL    HW124917   8.189   4.811   2.873  1.7017  2.2518 -2.1661
 8113SOL    HW224918   8.261   4.856   2.999 -0.0548  0.6339 -0.5092
 8114SOL     OW24919   2.721   9.851   4.910  0.2058 -0.5405  0.2976
 8114SOL    HW124920   2.725   9.756   4.922 -0.8775 -0.6451 -0.0605
 8114SOL    HW224921   2.680   9.863   4.824  0.8522  0.2541  0.0847
 8115SOL     OW24922   7.401   3.190   4.316 -0.0786 -0.0369 -0.0091
 8115SOL    HW124923   7.336   3.158   4.378 -0.7255  1.0325 -0.1163
 8115SOL    HW224924   7.390   3.134   4.239  0.8831 -1.5237  0.8781
 8116SOL     OW24925   4.844   1.539   2.867 -0.5060  0.3557 -0.0950
 8116SOL    HW124926   4.927   1.574   2.900 -0.4524 -1.4320  1.8496
 8116SOL    HW224927   4.800   1.615   2.829  2.1293  1.2984 -1.5428
 8117SOL     OW24928   0.247   6.805   0.158 -0.0055 -0.0708 -0.3030
 8117SOL    HW124929   0.235   6.826   0.250  0.9857 -0.4191 -0.0853
 8117SOL    HW224930   0.326   6.853   0.133  0.3844 -0.8792 -0.6644
 8118SOL     OW24931   4.736   1.801   4.365  0.2225 -0.6899 -0.4382
 8118SOL    HW124932   4.767   1.767   4.448 -0.4791  1.8097  0.9573
 8118SOL    HW224933   4.796   1.764   4.300  2.6051 -0.4888  1.4920
 8119SOL     OW24934   4.882   1.539   9.030 -0.0013  0.0158  0.4282
 8119SOL    HW124935   4.940   1.472   8.993 -0.2970  0.8303 -1.6358
 8119SOL    HW224936   4.794   1.513   9.003 -0.3155  0.3028  1.1361
 8120SOL     OW24937   1.760   6.040   0.266 -0.0020  0.5970 -0.4887
 8120SOL    HW124938   1.722   6.089   0.193  0.1587 -0.9690 -1.6923
 8120SOL    HW224939   1.817   5.975   0.224  0.8414  0.2553  1.0896
 8121SOL     OW24940   6.237   0.037   3.454  0.2560 -0.1097 -0.3708
 8121SOL    HW124941   6.325   0.028   3.490  0.3228 -2.9528 -1.0749
 8121SOL    HW224942   6.181   0.047   3.531  1.0370  0.3845  0.1513
 8122SOL     OW24943   9.051   6.458   9.929  0.3699  0.2502 -0.0169
 8122SOL    HW124944   9.001   6.434  10.007 -0.0960  1.6301  0.1360
 8122SOL    HW224945   9.074   6.374   9.889 -0.0301 -0.4668  1.1865
 8123SOL     OW24946   1.401   6.843   5.983 -0.0153 -0.5155 -0.1801
 8123SOL    HW124947   1.441   6.768   5.939 -1.6272 -0.4876 -1.7866
 8123SOL    HW224948   1.308   6.822   5.987 -0.5896  1.5894 -1.1547
 8124SOL     OW24949   0.819   4.053   8.681  0.5587 -0.3556 -0.4401
 8124SOL    HW124950   0.755   4.020   8.618 -0.1804  0.7305 -0.2867
 8124SOL    HW224951   0.850   4.135   8.643 -1.0086  1.1063  1.2401
 8125SOL     OW24952   9.503   7.393   8.768 -0.8833 -0.3403  0.5539
 8125SOL    HW124953   9.586   7.437   8.750  0.0811 -2.1717  0.2976
 8125SOL    HW224954   9.458   7.451   8.829  0.9143  0.3476  1.2933
 8126SOL     OW24955   6.358   9.704   1.498  0.3530  0.1104 -0.1767
 8126SOL    HW124956   6.274   9.745   1.517  1.0376  0.7188  1.8121
 8126SOL    HW224957   6.370   9.640   1.569  2.2341  1.1505  0.5216
 8127SOL     OW24958   8.557   2.885   5.139 -0.1461  0.1985  0.2524
 8127SOL    HW124959   8.645   2.919   5.152  0.3550  0.1383 -2.4582
 8127SOL    HW224960   8.570   2.798   5.101 -1.3873 -0.2291  0.7557
 8128SOL     OW24961   8.966   9.521   8.797  0.6229  0.1225  0.5624
 8128SOL    HW124962   8.964   9.430   8.768 -0.1969 -0.5013  2.4652
 8128SOL    HW224963   8.907   9.566   8.737 -0.1543 -0.9058  0.5294
 8129SOL     OW24964   2.640   4.532   5.535 -0.0344  0.3526  0.3731
 8129SOL    HW124965   2.678   4.506   5.451  0.5684 -1.0471  1.0414
 8129SOL    HW224966   2.685   4.477   5.600 -2.1108 -0.2665  1.3757
 8130SOL     OW24967   2.706   3.020   3.794 -0.3490  0.3698 -0.4639
 8130SOL    HW124968   2.663   2.936   3.780  1.7037 -0.9722  0.8518
 8130SOL    HW224969   2.636   3.077   3.828 -1.8010 -0.7162 -1.4822
 8131SOL     OW24970   3.441   5.859   2.437 -0.2805  0.2385  0.7187
 8131SOL    HW124971   3.425   5.765   2.439 -0.4742  0.2451 -0.1204
 8131SOL    HW224972   3.396   5.893   2.514 -2.2448 -0.0613 -0.2325
 8132SOL     OW24973   9.928   1.043   9.562  0.3551 -0.1317  0.0452
 8132SOL    HW124974   9.871   1.074   9.633 -0.7836 -1.0526 -0.4265
 8132SOL    HW224975   9.928   0.948   9.572  0.7684 -0.2195 -0.7543
 8133SOL     OW24976   1.860   0.943   1.038  0.2317  0.3581 -0.4757
 8133SOL    HW124977   1.770   0.975   1.036 -0.6116 -1.7871 -2.7016
 8133SOL    HW224978   1.882   0.937   1.131 -2.8756 -1.3829  0.2875
 8134SOL     OW24979   2.993   0.141   0.146  0.1902  0.1712  0.2564
 8134SOL    HW124980   2.964   0.065   0.095 -0.8530  0.4510  0.4170
 8134SOL    HW224981   2.913   0.189   0.166  0.9055  1.8400 -0.6537
 8135SOL     OW24982   6.749   0.622   6.667  0.0195 -0.3262  0.3761
 8135SOL    HW124983   6.765   0.528   6.671  1.4462 -0.0898  0.9414
 8135SOL    HW224984   6.665   0.634   6.711 -0.4658 -1.3817 -0.2121
 8136SOL     OW24985   6.270   6.033   1.712  0.4756 -0.2685  0.6338
 8136SOL    HW124986   6.180   6.000   1.699  0.3855  0.1858  0.0609
 8136SOL    HW224987   6.291   6.077   1.630  0.6008  1.0971  1.3703
 8137SOL     OW24988   5.177   5.667   9.720  0.0460 -0.3438  0.1953
 8137SOL    HW124989   5.225   5.591   9.689 -0.3997 -0.0628 -1.2698
 8137SOL    HW224990   5.085   5.648   9.699 -0.1965  0.1452  0.7766
 8138SOL     OW24991   0.820   9.883   4.063  0.2494 -0.0144 -0.1262
 8138SOL    HW124992   0.864   9.799   4.081  1.2500  0.4102 -0.5412
 8138SOL    HW224993   0.866   9.946   4.118  0.3901  0.5005 -0.8284
 8139SOL     OW24994   2.511   3.732   3.140 -0.0943  0.0795 -0.1799
 8139SOL    HW124995   2.474   3.647   3.163 -0.8189  0.7776  1.3561
 8139SOL    HW224996   2.434   3.789   3.128  0.3757  0.4971 -1.3437
 8140SOL     OW24997   9.981   9.355   2.204  0.0597  0.0585  0.2303
 8140SOL    HW124998  10.024   9.376   2.121 -2.3838  0.3111 -1.0786
 8140SOL    HW224999   9.918   9.426   2.217 -2.8809 -2.2521 -0.2009
 8141SOL     OW25000   1.649   2.967   6.244  0.8049  0.6406  0.2276
 8141SOL    HW125001   1.648   3.060   6.270  0.0788  0.7382 -0.1252
 8141SOL    HW225002   1.557   2.940   6.249  1.1349 -0.3725  1.3826
 8142SOL     OW25003   2.504   6.526   6.973 -0.2388 -0.0237 -0.1606
 8142SOL    HW125004   2.548   6.452   7.015  0.9823 -0.2559 -1.7786
 8142SOL    HW225005   2.421   6.490   6.942 -0.6274 -0.1416  0.9700
 8143SOL     OW25006   3.307   9.584   9.750 -0.0656  0.8898  0.6363
 8143SOL    HW125007   3.359   9.599   9.829  0.1370  1.5872  0.3799
 8143SOL    HW225008   3.364   9.611   9.678 -0.6198  1.2323  0.3181
 8144SOL     OW25009   9.310   3.609   0.439  0.2650 -0.6069  0.4075
 8144SOL    HW125010   9.361   3.678   0.483 -0.7572 -0.1234  0.8620
 8144SOL    HW225011   9.363   3.586   0.363  0.6115  0.7095  0.2207
 8145SOL     OW25012   0.995   3.589   6.188  0.2752  0.1592 -0.6005
 8145SOL    HW125013   1.008   3.641   6.268  0.5183  0.1189 -0.6122
 8145SOL    HW225014   1.038   3.639   6.119  0.4191 -0.0058 -0.6312
 8146SOL     OW25015   0.355   9.469   0.989 -0.2080  0.1316  0.1342
 8146SOL    HW125016   0.328   9.525   1.061  1.6952  0.7227  0.4466
 8146SOL    HW225017   0.424   9.414   1.025 -0.3375 -0.7043 -0.8247
 8147SOL     OW25018   9.283   6.987   1.352  0.4729 -0.4227  0.1820
 8147SOL    HW125019   9.302   7.072   1.312  2.1350 -0.6422  0.4470
 8147SOL    HW225020   9.240   7.010   1.435 -2.5015  0.0362 -1.3302
 8148SOL     OW25021   4.832   6.849   9.146  0.6801 -0.0503  0.1367
 8148SOL    HW125022   4.916   6.887   9.119 -0.7537  1.7431 -2.1909
 8148SOL    HW225023   4.807   6.897   9.225  1.3172  0.1453  0.2231
 8149SOL     OW25024   2.341   2.468   6.780 -0.4152  0.4960  0.6531
 8149SOL    HW125025   2.282   2.488   6.707  0.4629  0.3641 -0.1118
 8149SOL    HW225026   2.391   2.392   6.750  0.8554  1.2178  0.8719
 8150SOL     OW25027   8.462   3.499   5.491  0.1384 -0.5989  0.8112
 8150SOL    HW125028   8.388   3.559   5.497  0.5437 -0.1686  1.6404
 8150SOL    HW225029   8.467   3.458   5.578  1.4311  0.0677  1.0791
 8151SOL     OW25030   9.734   3.997   6.563  0.1715 -0.0973  0.2680
 8151SOL    HW125031   9.815   3.982   6.612 -0.2659 -0.1257  1.0026
 8151SOL    HW225032   9.670   3.939   6.603 -0.8488  1.6918  1.3669
 8152SOL     OW25033   9.266   3.107   5.294 -0.1554 -0.5780  0.0227
 8152SOL    HW125034   9.269   3.029   5.238 -2.9831 -0.5211 -0.3413
 8152SOL    HW225035   9.317   3.173   5.246 -1.7532 -0.8047 -2.1149
 8153SOL     OW25036   9.377   8.761   2.676  0.7238  0.3287  0.0690
 8153SOL    HW125037   9.333   8.846   2.678  2.5642  1.3350  2.2888
 8153SOL    HW225038   9.461   8.779   2.633  0.7619 -0.5708 -0.2476
 8154SOL     OW25039   9.254   9.456   9.058  0.3234  0.1349  0.0678
 8154SOL    HW125040   9.252   9.390   9.128  1.0174  0.6361  0.5795
 8154SOL    HW225041   9.162   9.475   9.040  0.0851  1.4992  2.3124
 8155SOL     OW25042   2.791   0.947   2.847  0.1885 -0.1621  0.2178
 8155SOL    HW125043   2.866   1.003   2.829 -1.7585  2.5226 -0.2598
 8155SOL    HW225044   2.797   0.877   2.782  1.3329  1.0099 -1.0122
 8156SOL     OW25045   1.751   2.409   3.092 -0.2446 -0.2460 -0.3674
 8156SOL    HW125046   1.703   2.361   3.025 -1.4756  0.9707 -0.3927
 8156SOL    HW225047   1.726   2.367   3.174 -0.3603 -0.4205 -0.4911
 8157SOL     OW25048   5.799   4.561   7.490  0.0987  0.6037  0.5501
 8157SOL    HW125049   5.882   4.548   7.445  0.2651  0.1450  0.9759
 8157SOL    HW225050   5.736   4.510   7.439  0.0941  0.8911  0.2702
 8158SOL     OW25051   8.667   4.382   5.908  0.4579  0.2077 -0.1814
 8158SOL    HW125052   8.639   4.473   5.923  1.0658  0.6549 -1.6004
 8158SOL    HW225053   8.725   4.387   5.832  0.7150 -1.3449 -0.1157
 8159SOL     OW25054   7.983   4.611   7.433  0.3112 -1.1619  0.0493
 8159SOL    HW125055   8.052   4.675   7.420  1.1022 -2.2065 -1.2591
 8159SOL    HW225056   7.958   4.584   7.344 -1.2320 -1.3815  0.5129
 8160SOL     OW25057   3.981   4.411   8.519 -0.8601 -0.5116  0.4172
 8160SOL    HW125058   3.918   4.462   8.469 -0.3140  1.5711  1.6961
 8160SOL    HW225059   3.940   4.326   8.531 -2.8613  0.3656  0.1349
 8161SOL     OW25060   7.565   9.095   7.050  0.4872 -0.5732 -0.0310
 8161SOL    HW125061   7.524   9.075   6.966 -0.4502  2.1943 -0.3040
 8161SOL    HW225062   7.635   9.156   7.029 -0.3492  0.8963  1.2561
 8162SOL     OW25063   3.551   8.901   6.998  0.3392  0.2230  0.1164
 8162SOL    HW125064   3.559   8.931   6.908  0.0948  1.9065  0.6304
 8162SOL    HW225065   3.570   8.807   6.993 -1.5024 -0.1279 -1.9522
 8163SOL     OW25066   6.719   5.556   6.527 -0.4098  0.0127 -0.1766
 8163SOL    HW125067   6.624   5.562   6.526 -0.6824 -2.9459 -0.1152
 8163SOL    HW225068   6.743   5.533   6.437  0.4224  1.9644 -0.5019
 8164SOL     OW25069   4.726   4.177   1.347 -0.1695 -0.1910  0.1287
 8164SOL    HW125070   4.746   4.268   1.323 -0.4898  0.1602  1.1502
 8164SOL    HW225071   4.736   4.175   1.442 -2.2786 -0.6803  0.3926
 8165SOL     OW25072   7.464   4.020   1.343  0.1232 -0.4605 -0.2967
 8165SOL    HW125073   7.544   4.004   1.393 -1.1903 -1.4044  1.6099
 8165SOL    HW225074   7.464   3.951   1.277  0.0433 -1.5630  0.8184
 8166SOL     OW25075   3.781   9.800   1.182  0.5712  0.1148  0.1771
 8166SOL    HW125076   3.818   9.731   1.237 -1.2388 -0.3731  0.8476
 8166SOL    HW225077   3.696   9.766   1.155  0.1970  1.5521 -0.5623
 8167SOL     OW25078   5.883   4.685   7.752 -0.1990 -0.2012  0.3626
 8167SOL    HW125079   5.969   4.710   7.787 -0.3266  0.9251 -0.0840
 8167SOL    HW225080   5.900   4.665   7.660 -0.8102  2.7641 -0.5018
 8168SOL     OW25081   3.195   0.680   4.654  0.4453 -0.0081  0.2885
 8168SOL    HW125082   3.131   0.609   4.661 -1.0385  1.3319  1.1386
 8168SOL    HW225083   3.270   0.651   4.705 -0.7657 -0.3457  1.9708
 8169SOL     OW25084   9.347   1.041   8.866 -0.1868  0.0852 -0.2171
 8169SOL    HW125085   9.372   1.038   8.958  1.5884  0.8697 -0.6330
 8169SOL    HW225086   9.363   1.132   8.840  3.2361 -0.8998 -2.2352
 8170SOL     OW25087   6.159   8.411   4.476 -0.2943 -0.0205  0.0362
 8170SOL    HW125088   6.225   8.464   4.430 -0.2294 -0.0453  0.1006
 8170SOL    HW225089   6.109   8.475   4.527 -1.1381  0.1722 -0.9873
 8171SOL     OW25090   4.922   1.145   9.092  0.1012 -0.4914  0.1876
 8171SOL    HW125091   4.985   1.201   9.047  0.2684 -0.6893  0.1722
 8171SOL    HW225092   4.952   1.056   9.073 -1.5523 -0.6811 -1.8124
 8172SOL     OW25093   7.292   4.800   1.299 -0.1239  0.0544  0.0644
 8172SOL    HW125094   7.379   4.761   1.304 -0.0744  0.1569  0.0022
 8172SOL    HW225095   7.263   4.804   1.390 -0.7155 -1.4303 -0.0309
 8173SOL     OW25096   3.680   7.659   5.563 -0.1780  0.7236  0.0584
 8173SOL    HW125097   3.724   7.578   5.537  1.6247  1.1341  1.5649
 8173SOL    HW225098   3.603   7.631   5.612  0.4274 -0.0799  0.5589
 8174SOL     OW25099   8.135   6.538   5.369 -0.2137  0.0310  0.1841
 8174SOL    HW125100   8.223   6.508   5.349 -0.1386  0.0554  0.4676
 8174SOL    HW225101   8.147   6.610   5.431 -0.4664 -0.6357  1.0322
 8175SOL     OW25102   1.063   0.323   6.983 -0.3828 -0.5060  0.1371
 8175SOL    HW125103   1.124   0.317   6.909  0.8800  2.5385  0.7787
 8175SOL    HW225104   1.094   0.257   7.045  0.4727 -0.9738 -0.7519
 8176SOL     OW25105   4.102   6.038   4.312 -0.1284  0.3032 -0.4433
 8176SOL    HW125106   4.129   6.041   4.220  1.8121 -0.3224  0.0347
 8176SOL    HW225107   4.155   5.967   4.349  0.1199  1.4182  1.4444
 8177SOL     OW25108   4.853   0.703   5.825 -0.5049  0.1901 -0.5265
 8177SOL    HW125109   4.927   0.695   5.886  0.4030  2.3254 -1.2524
 8177SOL    HW225110   4.795   0.631   5.849  0.8919 -0.4133  1.3463
 8178SOL     OW25111   9.299   1.245   3.294 -0.2590 -0.4754  0.1331
 8178SOL    HW125112   9.335   1.299   3.223  0.2671 -1.7189 -0.5800
 8178SOL    HW225113   9.329   1.288   3.374  0.8104 -0.1429 -0.4221
 8179SOL     OW25114   7.805   8.321   8.244  0.2336 -0.7943 -0.0855
 8179SOL    HW125115   7.853   8.334   8.326  3.5026  4.8241 -2.3292
 8179SOL    HW225116   7.856   8.256   8.196 -0.5334 -2.5666  1.3904
 8180SOL     OW25117   4.274   3.438   5.139 -0.4430  0.0383 -0.1602
 8180SOL    HW125118   4.271   3.526   5.178  2.0789 -0.0353  0.3807
 8180SOL    HW225119   4.232   3.381   5.203 -0.7274  0.6251  0.1827
 8181SOL     OW25120   0.614   2.884   8.136  0.5541 -0.4160 -0.3621
 8181SOL    HW125121   0.681   2.943   8.100 -0.1933 -0.0656 -1.2283
 8181SOL    HW225122   0.640   2.797   8.107  1.4622 -0.4892  0.6070
 8182SOL     OW25123   8.550   0.584   0.049 -0.3199  0.2862 -0.2237
 8182SOL    HW125124   8.545   0.566   0.143 -3.7347  1.0823 -0.1018
 8182SOL    HW225125   8.514   0.505   0.008  1.0704 -0.0200 -0.9143
 8183SOL     OW25126   1.024   7.348   6.819 -0.4148  0.1416  0.0363
 8183SOL    HW125127   1.055   7.396   6.742 -0.5302  0.5446  0.2415
 8183SOL    HW225128   0.957   7.289   6.785 -0.9897  0.8396 -0.0631
 8184SOL     OW25129   1.277   9.503   7.781  0.4783 -0.2351 -0.8464
 8184SOL    HW125130   1.349   9.555   7.817  0.2268  0.1349 -0.8661
 8184SOL    HW225131   1.261   9.435   7.848  0.0310  0.4345 -0.2571
 8185SOL     OW25132   1.033   4.763   0.299  0.0944  0.3268 -0.1836
 8185SOL    HW125133   0.959   4.712   0.330 -0.0061 -0.6640 -1.9204
 8185SOL    HW225134   1.037   4.839   0.358 -2.3004  0.4200 -0.0609
 8186SOL     OW25135   3.444   4.243   6.771  0.4483  0.0838 -0.0553
 8186SOL    HW125136   3.429   4.252   6.865  0.0949 -0.1852 -0.0852
 8186SOL    HW225137   3.463   4.332   6.741  0.9923  0.1078  0.3418
 8187SOL     OW25138   8.435   6.021   5.063 -0.8565  0.3286 -0.0509
 8187SOL    HW125139   8.429   5.981   4.976 -0.6310 -0.3388  0.2343
 8187SOL    HW225140   8.529   6.038   5.074 -0.7459 -0.5475  0.4746
 8188SOL     OW25141   3.440   3.954   3.885 -0.5839  0.1316  0.9008
 8188SOL    HW125142   3.503   3.984   3.950  1.6481  0.6502 -1.3851
 8188SOL    HW225143   3.458   3.860   3.875  0.1581  0.3744 -0.0897
 8189SOL     OW25144   8.815   0.704   6.896 -0.0522 -0.3018  0.8596
 8189SOL    HW125145   8.768   0.701   6.812  0.5778  0.9811  0.4363
 8189SOL    HW225146   8.907   0.714   6.871  0.1180  0.3077  1.7097
 8190SOL     OW25147   4.810   6.041   8.652 -0.1491  0.2429  0.3622
 8190SOL    HW125148   4.764   6.038   8.735  0.0579  1.0937  0.5109
 8190SOL    HW225149   4.783   6.124   8.612  0.1417  0.0762 -0.1949
 8191SOL     OW25150   3.050   8.241   2.682  0.0712  0.2267  0.5098
 8191SOL    HW125151   3.091   8.158   2.708  0.6712  0.6045  0.8022
 8191SOL    HW225152   3.057   8.297   2.759  1.7453  1.3182 -0.3603
 8192SOL     OW25153   6.984   9.748   1.476 -0.0866 -0.1746  0.0548
 8192SOL    HW125154   7.061   9.703   1.440  0.6197  0.2689  0.9798
 8192SOL    HW225155   6.999   9.841   1.456 -0.1210 -0.0277  0.6935
 8193SOL     OW25156   0.719   2.425   0.099 -0.0204  0.2224  0.4034
 8193SOL    HW125157   0.668   2.497   0.062  1.6604  0.3242 -1.9291
 8193SOL    HW225158   0.719   2.357   0.031  2.3065 -0.0393  0.5685
 8194SOL     OW25159   8.704   3.719   1.844  0.1071 -0.0040 -1.3281
 8194SOL    HW125160   8.795   3.748   1.843  0.7391 -1.7311  0.0341
 8194SOL    HW225161   8.675   3.725   1.753  0.5603  3.4624 -1.3455
 8195SOL     OW25162   5.940   8.839   5.231  0.0285  0.1789  0.3819
 8195SOL    HW125163   5.977   8.842   5.142 -0.7237 -1.2885 -0.0211
 8195SOL    HW225164   5.867   8.901   5.228  1.0079  1.3882  0.5064
 8196SOL     OW25165   9.661   9.019   0.362 -0.1529 -0.5306 -0.3865
 8196SOL    HW125166   9.708   9.102   0.356  0.6849 -0.8460  1.3212
 8196SOL    HW225167   9.573   9.043   0.390 -1.5735  0.1746 -4.6605
 8197SOL     OW25168   3.260   7.526   8.057 -0.1519 -0.3110  0.4355
 8197SOL    HW125169   3.265   7.444   8.007  2.9541 -1.4810  2.3781
 8197SOL    HW225170   3.322   7.584   8.013 -0.6968  0.2395  0.3837
 8198SOL     OW25171   6.879   2.824   8.812  0.0959  0.4048  0.0516
 8198SOL    HW125172   6.902   2.760   8.879  0.6588  0.8518  0.2867
 8198SOL    HW225173   6.919   2.790   8.732 -1.8339 -0.9311 -0.4264
 8199SOL     OW25174   8.071   4.850   0.999  0.3906  0.3614 -0.3765
 8199SOL    HW125175   8.097   4.872   0.910  0.1050  2.0992 -0.0772
 8199SOL    HW225176   8.080   4.933   1.048 -2.0131  0.1679  0.5799
 8200SOL     OW25177   7.090   5.423   4.152 -0.1831  0.3344  0.3691
 8200SOL    HW125178   7.104   5.330   4.137 -0.9070  0.1989  0.4898
 8200SOL    HW225179   7.031   5.450   4.082 -0.6388  0.5146  0.8133
 8201SOL     OW25180   7.475   3.648   6.971 -0.1344  0.1956 -0.2948
 8201SOL    HW125181   7.466   3.565   7.019 -1.2656  0.6963  0.4060
 8201SOL    HW225182   7.564   3.646   6.937  0.8282 -0.1100  2.0180
 8202SOL     OW25183   4.790   1.481   3.582 -0.0511  0.5614  0.9383
 8202SOL    HW125184   4.716   1.535   3.555 -1.1126 -0.9175  0.6953
 8202SOL    HW225185   4.751   1.417   3.643  1.0942 -0.0544  1.0500
 8203SOL     OW25186   1.666   6.345   0.396  0.4714  0.0294  0.5297
 8203SOL    HW125187   1.640   6.314   0.309  2.1670  1.5205 -0.5834
 8203SOL    HW225188   1.593   6.402   0.423  0.5501  0.6978 -0.5816
 8204SOL     OW25189   2.590   4.400   9.057  0.3625 -0.2079  0.1790
 8204SOL    HW125190   2.598   4.456   9.135 -1.4495 -0.4568  0.5884
 8204SOL    HW225191   2.545   4.455   8.993 -1.5313 -1.1500  0.6199
 8205SOL     OW25192   6.782   4.074   6.506 -0.3903  0.1166 -0.4446
 8205SOL    HW125193   6.837   4.009   6.462 -0.5779 -0.0069 -0.4999
 8205SOL    HW225194   6.728   4.022   6.566 -0.7311  0.1932 -0.6829
 8206SOL     OW25195   3.238   9.134   3.029  0.8543 -0.1797  0.6568
 8206SOL    HW125196   3.234   9.179   2.944 -0.5881  0.1755  0.8936
 8206SOL    HW225197   3.330   9.140   3.055  1.7923 -2.0181 -1.7884
 8207SOL     OW25198   1.269   4.337   3.836 -0.3636  0.5930 -0.6534
 8207SOL    HW125199   1.196   4.393   3.808 -0.8816  0.2999  0.0545
 8207SOL    HW225200   1.226   4.259   3.870  0.3448 -0.1341 -1.3997
 8208SOL     OW25201   5.873   0.621   0.612 -0.0541  0.8234  0.0406
 8208SOL    HW125202   5.791   0.660   0.580 -0.3152  0.1795 -0.0876
 8208SOL    HW225203   5.940   0.685   0.588 -0.3660  0.8088 -0.9448
 8209SOL     OW25204   3.430   8.630   4.155 -0.0329  0.6463  0.3128
 8209SOL    HW125205   3.469   8.574   4.088 -0.3995 -0.0290  0.6622
 8209SOL    HW225206   3.443   8.583   4.237 -0.0099  1.2479  0.6618
 8210SOL     OW25207   8.723   8.748   4.079 -0.0156  0.0933  0.0777
 8210SOL    HW125208   8.790   8.697   4.034 -0.6654  0.1756 -1.0237
 8210SOL    HW225209   8.770   8.825   4.112  0.4236  0.2129 -0.7947
 8211SOL     OW25210   8.425   1.034   9.401  0.1728 -0.1254  0.3368
 8211SOL    HW125211   8.429   0.966   9.468  0.1476 -1.1795 -0.6982
 8211SOL    HW225212   8.508   1.027   9.355  0.4196  0.9619  0.5850
 8212SOL     OW25213   1.034   9.635   4.746  0.1165  0.2971  0.0865
 8212SOL    HW125214   1.019   9.661   4.837  0.1178  2.2568 -0.4297
 8212SOL    HW225215   1.109   9.687   4.718  0.2334 -0.4236 -0.9992
 8213SOL     OW25216   0.170   4.250   0.351  0.0437 -0.0494 -0.1323
 8213SOL    HW125217   0.192   4.303   0.274 -0.9830 -0.7098 -0.9188
 8213SOL    HW225218   0.249   4.199   0.368  0.9507  1.5302  0.4836
 8214SOL     OW25219   6.599   5.073   1.743 -0.3507  0.1774  0.2036
 8214SOL    HW125220   6.589   4.986   1.782  1.0863 -1.5257 -2.8675
 8214SOL    HW225221   6.512   5.094   1.708 -0.3763 -0.6826 -0.2661
 8215SOL     OW25222   2.360   6.518   7.841  0.5199  0.0440 -0.5626
 8215SOL    HW125223   2.299   6.474   7.900 -0.1274 -0.5093 -1.6283
 8215SOL    HW225224   2.367   6.460   7.766  1.1252  0.8766 -1.1674
 8216SOL     OW25225   7.905   0.856   0.167 -0.1314 -0.5627 -0.2363
 8216SOL    HW125226   7.923   0.900   0.250  2.8123 -1.5878 -0.1963
 8216SOL    HW225227   7.860   0.776   0.193  0.4679 -0.7169  0.3859
 8217SOL     OW25228   8.545   2.041   0.030 -0.4282  0.8237  0.0770
 8217SOL    HW125229   8.506   1.954   0.020  0.6686  0.2232  0.8111
 8217SOL    HW225230   8.501   2.079   0.106  0.0353  0.3596  0.5843
 8218SOL     OW25231   7.998   9.249   6.736  0.5759 -0.3503  0.4315
 8218SOL    HW125232   8.088   9.228   6.760  1.0978  0.2183 -0.9436
 8218SOL    HW225233   7.984   9.337   6.771  1.6021  0.8096 -1.8061
 8219SOL     OW25234   8.372   3.421   6.806  0.0309 -0.5867  0.1074
 8219SOL    HW125235   8.348   3.328   6.806 -1.1794 -0.2867 -0.1985
 8219SOL    HW225236   8.300   3.464   6.853 -0.3129  0.4133 -1.2860
 8220SOL     OW25237   8.129   1.267   6.969 -0.1273 -0.2715  0.5958
 8220SOL    HW125238   8.122   1.308   7.055 -0.0657  2.6215 -0.6644
 8220SOL    HW225239   8.042   1.231   6.952  0.1277 -1.8173  2.2164
 8221SOL     OW25240   9.467   9.978   8.033 -0.3802 -0.3342  0.1752
 8221SOL    HW125241   9.448   9.892   8.071 -1.4686  0.0685  0.6060
 8221SOL    HW225242   9.439  10.040   8.100 -1.1114  0.3791 -0.7522
 8222SOL     OW25243   6.567   8.741   2.921 -0.6784  0.3922  0.1115
 8222SOL    HW125244   6.541   8.692   2.999  0.0713 -0.6984 -0.3033
 8222SOL    HW225245   6.491   8.737   2.864 -1.1669  1.0411  0.6924
 8223SOL     OW25246   1.417   0.530   7.146 -0.0597 -0.0682  0.2298
 8223SOL    HW125247   1.334   0.549   7.190  0.7639  1.7849  1.0791
 8223SOL    HW225248   1.455   0.458   7.198 -1.7800 -2.0767 -1.1183
 8224SOL     OW25249   6.849   9.753   4.166  0.0866  0.5151  0.2369
 8224SOL    HW125250   6.865   9.688   4.234 -0.5453 -1.3411 -1.3059
 8224SOL    HW225251   6.755   9.748   4.149  0.4510 -0.1762 -1.8015
 8225SOL     OW25252   1.465   3.558   6.262 -0.4684  0.2285  0.1973
 8225SOL    HW125253   1.382   3.523   6.295 -0.6483  0.0225 -0.4608
 8225SOL    HW225254   1.452   3.564   6.167  0.9360 -1.6220 -0.1630
 8226SOL     OW25255   3.965   5.994   3.813 -0.2080  0.6359 -0.4132
 8226SOL    HW125256   3.919   6.075   3.789 -1.3976  0.1485  0.1685
 8226SOL    HW225257   3.901   5.925   3.799 -0.3050  0.1056  2.1533
 8227SOL     OW25258   6.752   5.421   0.547  0.2953  0.0517 -0.0892
 8227SOL    HW125259   6.795   5.355   0.492 -0.7179 -0.7116  0.0042
 8227SOL    HW225260   6.816   5.491   0.555  1.2420 -0.7366 -0.5501
 8228SOL     OW25261   6.760   9.828   9.774 -0.0105  0.3439  0.1993
 8228SOL    HW125262   6.727   9.846   9.686  0.3072 -0.7365 -0.1554
 8228SOL    HW225263   6.709   9.753   9.804  0.0165  0.5808  0.8686
 8229SOL     OW25264   3.198   5.668   1.710 -0.1855 -0.2766 -1.0326
 8229SOL    HW125265   3.180   5.761   1.697 -0.5803  0.0307  1.2880
 8229SOL    HW225266   3.112   5.629   1.726 -0.0058 -1.0323 -1.8436
 8230SOL     OW25267   3.540   7.418   7.330  0.0838  0.2673  0.6087
 8230SOL    HW125268   3.569   7.440   7.419 -0.2366 -0.3757  0.8750
 8230SOL    HW225269   3.620   7.387   7.287  0.5380  1.8419  0.2397
 8231SOL     OW25270   8.508   8.555   0.107  0.2397 -0.4830 -0.3323
 8231SOL    HW125271   8.545   8.503   0.036  0.5687 -0.7032  0.0004
 8231SOL    HW225272   8.583   8.595   0.150 -0.0018  0.1907 -0.5213
 8232SOL     OW25273   8.819   7.478   1.045  0.4580  0.8763 -0.5939
 8232SOL    HW125274   8.778   7.560   1.018  0.7462  0.7304 -1.5204
 8232SOL    HW225275   8.765   7.410   1.005  0.5607  0.6258 -0.3122
 8233SOL     OW25276   5.789   0.467   9.062  0.7007 -0.0890  0.3705
 8233SOL    HW125277   5.784   0.563   9.058  1.0601 -0.0950 -0.3322
 8233SOL    HW225278   5.757   0.445   9.150  0.3002  0.6526  0.4169
 8234SOL     OW25279   0.220   6.231   3.690  0.8576 -0.0085  0.3041
 8234SOL    HW125280   0.184   6.160   3.635 -0.2631  1.3211 -0.7487
 8234SOL    HW225281   0.304   6.252   3.648  1.6709 -1.3231  1.1945
 8235SOL     OW25282   7.070   8.178   2.815 -0.0881  0.9777  0.4035
 8235SOL    HW125283   7.083   8.095   2.860 -0.5595 -0.0469 -1.2596
 8235SOL    HW225284   6.977   8.197   2.827 -0.0717  1.0443  0.4232
 8236SOL     OW25285   9.668   2.686   3.983 -0.2588 -0.5361  0.1502
 8236SOL    HW125286   9.652   2.615   3.921  0.1499 -0.1448 -0.4219
 8236SOL    HW225287   9.612   2.757   3.953 -0.4764 -0.5312  0.5682
 8237SOL     OW25288   8.429   4.429   8.231  0.0889 -0.3271  0.0781
 8237SOL    HW125289   8.524   4.427   8.247  0.2798  1.7367 -0.4269
 8237SOL    HW225290   8.396   4.492   8.295 -1.2941 -2.3705  1.5094
 8238SOL     OW25291   4.651   0.433   2.311  0.3060 -0.7787  0.2210
 8238SOL    HW125292   4.709   0.401   2.379 -1.1246  0.1491  1.9853
 8238SOL    HW225293   4.689   0.517   2.284  0.9791 -1.2391 -0.2860
 8239SOL     OW25294   9.733   9.745   2.647  0.3138 -0.0371 -0.0162
 8239SOL    HW125295   9.816   9.702   2.667  1.1711  2.2345  1.7274
 8239SOL    HW225296   9.752   9.800   2.571  0.6904  1.1162  0.8851
 8240SOL     OW25297   2.631   8.629   6.229  0.2718  0.0464 -0.1780
 8240SOL    HW125298   2.590   8.715   6.220 -0.7209 -0.3328  0.4774
 8240SOL    HW225299   2.573   8.570   6.180  1.0209 -0.2326 -0.7410
 8241SOL     OW25300   6.957   1.909   3.657  0.8043 -0.2132  0.3886
 8241SOL    HW125301   6.863   1.899   3.676  0.5861 -0.9058 -0.9343
 8241SOL    HW225302   6.997   1.831   3.696  0.9590  0.4698  1.6390
 8242SOL     OW25303   0.219   7.276   4.532  0.0201 -0.6608  0.2920
 8242SOL    HW125304   0.156   7.222   4.483 -0.7255 -0.3215  0.8520
 8242SOL    HW225305   0.236   7.351   4.475 -0.3336 -0.5954  0.2686
 8243SOL     OW25306   8.040   4.897   7.099  0.9481 -0.1478 -0.1138
 8243SOL    HW125307   7.978   4.854   7.158  1.0154  0.7769  0.6568
 8243SOL    HW225308   8.077   4.825   7.047  0.0567 -0.8436  0.1846
 8244SOL     OW25309   4.797   4.256   2.105 -0.2852  0.2941  0.0867
 8244SOL    HW125310   4.825   4.180   2.156 -0.0721  1.0347  1.1139
 8244SOL    HW225311   4.789   4.326   2.170 -1.5832  0.8707 -0.6641
 8245SOL     OW25312   2.809   3.296   0.278 -0.1419 -0.1519 -0.3044
 8245SOL    HW125313   2.851   3.305   0.192  0.2418 -0.8238 -0.2010
 8245SOL    HW225314   2.716   3.286   0.258  0.1108 -2.0270 -0.7913
 8246SOL     OW25315   8.480   6.893   8.264 -0.6304  0.3370 -0.4131
 8246SOL    HW125316   8.549   6.843   8.220 -0.9877  0.5663 -1.2559
 8246SOL    HW225317   8.406   6.832   8.268 -0.3867  0.0958  0.4761
 8247SOL     OW25318   5.101   1.981   8.627  0.2983  0.2734 -0.2922
 8247SOL    HW125319   5.080   2.028   8.707  0.8578 -0.8711  0.5709
 8247SOL    HW225320   5.115   2.049   8.561  3.4270  1.5265  1.4506
 8248SOL     OW25321   0.026   8.345   7.967  0.2017  0.7283  0.6557
 8248SOL    HW125322   0.068   8.406   8.028  1.0683 -0.0716  0.8856
 8248SOL    HW225323  -0.009   8.401   7.898  0.2837  1.5475  1.2541
 8249SOL     OW25324   9.885   2.021   6.664 -0.2044 -0.3914  0.1724
 8249SOL    HW125325   9.924   2.109   6.663 -0.9972 -0.0294 -0.8505
 8249SOL    HW225326   9.856   2.009   6.754 -0.3212  0.5017  0.2645
 8250SOL     OW25327   1.595   3.865   7.475 -0.3795  0.0523  0.1158
 8250SOL    HW125328   1.615   3.909   7.393  1.5355 -0.2906  0.3553
 8250SOL    HW225329   1.629   3.924   7.543  1.0034 -1.1254  0.4933
 8251SOL     OW25330   1.879   6.724   5.138 -0.3538 -0.0836 -0.0328
 8251SOL    HW125331   1.836   6.702   5.220 -0.3063 -0.7537 -0.1840
 8251SOL    HW225332   1.973   6.719   5.159 -0.2974  1.7700  0.4065
 8252SOL     OW25333   4.206   6.749   6.541  0.5316  0.4189 -0.5682
 8252SOL    HW125334   4.233   6.840   6.546 -0.3252  0.6415  0.3065
 8252SOL    HW225335   4.173   6.728   6.629 -2.2065  0.2226 -1.5307
 8253SOL     OW25336   6.436   9.725   7.591 -0.5985 -0.1455 -0.3912
 8253SOL    HW125337   6.443   9.820   7.597 -0.0228 -0.2703  3.4420
 8253SOL    HW225338   6.503   9.700   7.527 -0.7230  1.9639 -1.4290
 8254SOL     OW25339   6.458   5.788   2.302  0.5881 -0.0541  0.5279
 8254SOL    HW125340   6.472   5.863   2.359  0.2205  0.9451 -0.6731
 8254SOL    HW225341   6.466   5.712   2.361  1.4174  0.8788  1.6636
 8255SOL     OW25342   9.273   0.027   3.025  0.2989 -0.0945  0.1004
 8255SOL    HW125343   9.225   0.108   3.008 -0.9159 -1.0514 -1.2854
 8255SOL    HW225344   9.303   0.036   3.116 -0.1935  1.6906  0.1322
 8256SOL     OW25345   1.588   8.451   1.926  0.3919 -0.2268 -0.8538
 8256SOL    HW125346   1.619   8.381   1.983 -1.3825 -1.2846 -1.1123
 8256SOL    HW225347   1.500   8.423   1.900  0.5434  0.9726 -2.8463
 8257SOL     OW25348   2.043   1.545   4.334  0.8284 -0.1192 -0.1486
 8257SOL    HW125349   1.977   1.608   4.305  0.9756 -1.1763 -3.1365
 8257SOL    HW225350   1.995   1.463   4.343  0.9277  0.0251  2.2398
 8258SOL     OW25351   1.085   3.050   2.068 -0.3347  0.1090  0.2097
 8258SOL    HW125352   1.136   2.986   2.118  1.9693  1.8740  0.2890
 8258SOL    HW225353   1.056   3.002   1.990  1.5642 -1.0229  0.1295
 8259SOL     OW25354   0.905   9.438   4.647  0.3096 -0.2055 -0.6080
 8259SOL    HW125355   0.981   9.380   4.647  0.5954  0.0227  2.2461
 8259SOL    HW225356   0.937   9.519   4.688 -1.4288 -0.1043  0.6586
 8260SOL     OW25357   8.394   5.010   8.842 -0.2277 -0.3170 -0.1265
 8260SOL    HW125358   8.353   4.986   8.924 -0.5471 -0.0873 -0.2175
 8260SOL    HW225359   8.390   4.931   8.788 -0.1742 -0.4148  0.0147
 8261SOL     OW25360   3.544   8.370   4.566  0.1628 -0.3476 -0.1036
 8261SOL    HW125361   3.486   8.445   4.573  0.0526 -0.4791  0.4145
 8261SOL    HW225362   3.493   8.296   4.600  0.8577 -0.3402  1.0111
 8262SOL     OW25363   5.361   9.393   7.050 -0.1091  0.1399 -0.0485
 8262SOL    HW125364   5.416   9.449   7.104  1.2251  0.0050 -1.1996
 8262SOL    HW225365   5.308   9.454   6.999  0.5648  0.3440 -0.5186
 8263SOL     OW25366   5.527   7.819   5.262  0.2145  0.5693 -0.3971
 8263SOL    HW125367   5.450   7.811   5.320  0.8249 -0.0846  0.3470
 8263SOL    HW225368   5.513   7.752   5.195 -0.7108  1.6194 -1.2838
 8264SOL     OW25369   2.113   5.681   9.371  0.5091  0.3435 -0.4563
 8264SOL    HW125370   2.119   5.659   9.464 -0.0704 -0.8815 -0.6983
 8264SOL    HW225371   2.201   5.664   9.337  0.0106 -2.1076 -0.7127
 8265SOL     OW25372   2.404   8.916   3.744  0.0128  0.2399  0.1461
 8265SOL    HW125373   2.390   8.950   3.655  0.0527  0.0561  0.0679
 8265SOL    HW225374   2.492   8.878   3.741 -1.4326 -3.5358 -0.9884
 8266SOL     OW25375   8.837   5.302   6.650  0.1649 -0.7513 -0.0118
 8266SOL    HW125376   8.768   5.323   6.587  0.1578  0.5008  0.3957
 8266SOL    HW225377   8.799   5.319   6.735  0.5190 -1.4394  0.2940
 8267SOL     OW25378   7.230   9.877   8.634  0.1107 -0.5547  0.8451
 8267SOL    HW125379   7.251   9.793   8.675  0.2116  0.2044  2.4172
 8267SOL    HW225380   7.236   9.940   8.706  0.3617  0.8474 -0.3797
 8268SOL     OW25381   9.809   2.975   1.342  0.0847 -0.4711  0.2357
 8268SOL    HW125382   9.871   2.910   1.376 -0.0401 -0.7367 -0.0376
 8268SOL    HW225383   9.750   2.991   1.415 -0.0847 -0.9183  0.2022
 8269SOL     OW25384   5.288   9.521   9.174  0.6051  0.6221  0.3306
 8269SOL    HW125385   5.324   9.499   9.260 -0.2539 -2.5778  0.0265
 8269SOL    HW225386   5.356   9.496   9.112 -1.0071 -3.5472 -0.1277
 8270SOL     OW25387   0.409   3.342   2.830 -0.1909  0.6116 -0.4194
 8270SOL    HW125388   0.392   3.388   2.747  1.6516  1.7178 -0.2326
 8270SOL    HW225389   0.331   3.359   2.883 -0.5762  1.5007 -1.2298
 8271SOL     OW25390   2.873   2.806   0.372 -0.0555 -0.2200  0.8298
 8271SOL    HW125391   2.883   2.900   0.357  0.3044 -0.0171  2.2396
 8271SOL    HW225392   2.959   2.778   0.404 -0.6361 -0.6873  2.0490
 8272SOL     OW25393   3.547   1.305   2.701  0.4352  0.5892  0.4838
 8272SOL    HW125394   3.594   1.230   2.735  0.4533  0.6063  0.4966
 8272SOL    HW225395   3.464   1.305   2.749  0.2112  0.2631  0.0975
 8273SOL     OW25396   2.421   3.566   4.033 -0.2038 -0.5446 -0.4402
 8273SOL    HW125397   2.422   3.660   4.015 -0.7385 -0.8539 -2.2546
 8273SOL    HW225398   2.514   3.543   4.045 -0.1426  0.3744  1.2199
 8274SOL     OW25399   1.033   5.237   0.007  0.4494 -0.0809 -0.1401
 8274SOL    HW125400   0.943   5.268  -0.003 -0.2004 -1.7475  0.1450
 8274SOL    HW225401   1.083   5.315   0.031 -0.7472  1.0449 -1.1507
 8275SOL     OW25402   5.658   7.255   1.344 -0.4320  0.1019  0.6926
 8275SOL    HW125403   5.640   7.193   1.274  0.8869 -0.4112  0.7824
 8275SOL    HW225404   5.575   7.262   1.392 -1.8391  1.6137 -1.7564
 8276SOL     OW25405   1.873   5.960   9.926  0.2980  0.2633  0.2119
 8276SOL    HW125406   1.838   6.047   9.905  0.7244  0.5217  0.5538
 8276SOL    HW225407   1.890   5.920   9.841  0.0768  0.5049  0.0510
 8277SOL     OW25408   8.850   7.294   9.429  0.1186  0.5915  0.3315
 8277SOL    HW125409   8.877   7.213   9.472 -1.9888  0.2517  1.1368
 8277SOL    HW225410   8.825   7.352   9.501 -0.0878  1.3108 -0.3086
 8278SOL     OW25411   0.042   8.295   1.303 -0.1329 -0.5288  0.4465
 8278SOL    HW125412  -0.028   8.232   1.288  0.0199 -0.1792 -2.2239
 8278SOL    HW225413  -0.003   8.379   1.314 -0.2029 -0.3927 -0.7252
 8279SOL     OW25414   5.275   3.343   6.230 -0.2473  0.5612  0.2336
 8279SOL    HW125415   5.298   3.273   6.169 -0.3660  0.6392  0.0985
 8279SOL    HW225416   5.295   3.307   6.316  0.9448  0.8345  0.0874
 8280SOL     OW25417   9.260   4.607   5.089 -0.2182  0.0952  0.3069
 8280SOL    HW125418   9.265   4.701   5.105 -1.3395  0.1829  0.2457
 8280SOL    HW225419   9.204   4.599   5.011  1.8551 -0.5214 -1.2132
 8281SOL     OW25420   2.316   0.909   8.001 -0.3359  0.0239  0.4303
 8281SOL    HW125421   2.281   0.863   8.078 -0.7527  0.2608  0.3849
 8281SOL    HW225422   2.342   0.995   8.035  1.2707 -0.5352  0.7032
 8282SOL     OW25423   0.889   1.044   5.000  0.6038 -0.8888  0.9206
 8282SOL    HW125424   0.945   0.970   5.022 -1.6150 -2.1893  2.5650
 8282SOL    HW225425   0.823   1.007   4.941  0.4532  0.2108  0.3729
 8283SOL     OW25426   1.673   1.756   1.213 -0.7497  0.0193 -0.5841
 8283SOL    HW125427   1.675   1.799   1.298  0.4497 -0.9144 -0.1029
 8283SOL    HW225428   1.608   1.805   1.162 -0.9441  1.0510  0.6141
 8284SOL     OW25429   5.302   4.389   9.845 -0.4234  0.0671  0.5743
 8284SOL    HW125430   5.218   4.363   9.807  0.3206  0.0101 -1.1208
 8284SOL    HW225431   5.364   4.385   9.772  1.2345 -0.6698  1.9456
 8285SOL     OW25432   8.462   4.367   3.520 -0.4340 -1.1123 -0.8018
 8285SOL    HW125433   8.406   4.309   3.469 -1.2604 -0.0766 -1.1014
 8285SOL    HW225434   8.464   4.449   3.470 -1.8592  0.1885  1.1190
 8286SOL     OW25435   0.894   4.477   1.362  0.0728 -0.4156 -0.6751
 8286SOL    HW125436   0.895   4.465   1.267  1.6904  1.0483 -0.8986
 8286SOL    HW225437   0.823   4.421   1.393 -1.7939  0.5336 -2.9283
 8287SOL     OW25438   2.694   1.123   1.432 -0.5523 -0.4596 -0.3049
 8287SOL    HW125439   2.630   1.192   1.413 -0.1204 -0.1696 -0.7187
 8287SOL    HW225440   2.642   1.052   1.469 -0.9758  0.1649  0.3310
 8288SOL     OW25441   5.894   6.774   6.611 -0.1984  0.3718 -0.3558
 8288SOL    HW125442   5.856   6.804   6.694 -1.4072  0.3035 -0.8654
 8288SOL    HW225443   5.853   6.689   6.595 -2.0145  1.5234 -2.2984
 8289SOL     OW25444   1.166   6.353   6.223 -0.0022 -0.2820  0.2078
 8289SOL    HW125445   1.250   6.391   6.251  0.7676 -0.1245 -2.1160
 8289SOL    HW225446   1.104   6.425   6.229  0.4853  0.1618  0.0245
 8290SOL     OW25447   2.067   4.276   4.218 -0.0866  0.0579 -0.2789
 8290SOL    HW125448   2.063   4.251   4.311 -0.8482 -0.3220 -0.4064
 8290SOL    HW225449   2.160   4.290   4.201  0.4245 -2.6088 -0.1451
 8291SOL     OW25450   0.796   5.606   1.140 -0.0264 -0.5858  0.3449
 8291SOL    HW125451   0.770   5.599   1.231 -1.2729  3.3277  0.4973
 8291SOL    HW225452   0.736   5.548   1.093  0.7663 -2.8164  1.9115
 8292SOL     OW25453   3.404   3.652   8.596  0.1331 -0.2742 -0.1966
 8292SOL    HW125454   3.447   3.612   8.520  1.4599 -0.3231  0.5548
 8292SOL    HW225455   3.430   3.598   8.670 -1.8770 -0.7575  0.2129
 8293SOL     OW25456   9.511   6.155   3.576  0.5237 -0.1103 -0.0514
 8293SOL    HW125457   9.418   6.148   3.555  0.6307 -0.7436 -0.3312
 8293SOL    HW225458   9.556   6.127   3.497  0.9657  0.8357 -0.1497
 8294SOL     OW25459   6.878   7.713   2.891  0.6910  0.5178  0.3004
 8294SOL    HW125460   6.792   7.727   2.931 -0.5515 -1.6145 -1.3985
 8294SOL    HW225461   6.924   7.654   2.950  1.1439  1.8693  1.3458
 8295SOL     OW25462   0.469   9.544   1.937  0.2582 -0.0129 -0.2499
 8295SOL    HW125463   0.526   9.500   1.874  1.7046  0.8781  0.3642
 8295SOL    HW225464   0.464   9.634   1.906  0.5456  0.3039  0.5762
 8296SOL     OW25465   3.748   5.316   1.278 -0.4245 -0.3031 -0.0386
 8296SOL    HW125466   3.655   5.329   1.260 -1.3655 -1.1146  3.3696
 8296SOL    HW225467   3.779   5.401   1.308 -0.5889 -0.4341  0.5284
 8297SOL     OW25468   1.048   2.007   2.640 -0.2673 -0.2604 -0.4334
 8297SOL    HW125469   1.000   1.931   2.674  0.6069  0.0394  1.6227
 8297SOL    HW225470   0.987   2.049   2.579 -1.1355 -2.0341 -0.8430
 8298SOL     OW25471   2.369   9.336   1.808  0.5238 -0.1573 -0.2190
 8298SOL    HW125472   2.453   9.368   1.842  0.2338  0.5191 -0.1321
 8298SOL    HW225473   2.305   9.363   1.874  0.0562  0.5000 -0.9332
 8299SOL     OW25474   3.703   9.007   5.203 -0.7731  0.1680 -0.0368
 8299SOL    HW125475   3.757   8.931   5.227  1.7191  1.8034 -0.0295
 8299SOL    HW225476   3.686   9.051   5.286 -1.3350  0.1499 -0.1436
 8300SOL     OW25477   6.735   5.961   1.079  0.0659  0.0490 -0.3599
 8300SOL    HW125478   6.719   5.913   0.998  2.1515 -1.1696 -0.1117
 8300SOL    HW225479   6.759   6.050   1.051 -1.3275  0.2626 -0.9378
 8301SOL     OW25480   9.026   6.172   9.100  0.1047  0.1140 -0.1640
 8301SOL    HW125481   9.077   6.241   9.058  1.4114 -1.1829 -0.7947
 8301SOL    HW225482   8.958   6.150   9.037  0.0857  0.3695 -0.2345
 8302SOL     OW25483   5.775   9.502   9.911  0.0350  0.1399 -0.1912
 8302SOL    HW125484   5.716   9.459   9.848 -0.5130 -0.7872  0.9190
 8302SOL    HW225485   5.862   9.474   9.886 -0.3316 -1.8782  0.6655
 8303SOL     OW25486   7.723   6.656   6.256 -0.3275  0.4384  0.3130
 8303SOL    HW125487   7.730   6.662   6.161 -0.9197  0.5951  0.2758
 8303SOL    HW225488   7.692   6.567   6.272 -1.0206  0.6721  0.3077
 8304SOL     OW25489   3.357   6.873   2.958  0.0393 -0.2356 -0.6164
 8304SOL    HW125490   3.262   6.886   2.960  0.0624 -0.1139 -0.1871
 8304SOL    HW225491   3.392   6.944   3.011  0.2897 -0.9081  0.1456
 8305SOL     OW25492   2.394   4.185   3.066  0.4563  1.0447  0.1941
 8305SOL    HW125493   2.320   4.152   3.016 -0.0301 -0.5965  1.9044
 8305SOL    HW225494   2.467   4.128   3.041  0.5104  1.0066  0.4360
 8306SOL     OW25495   7.220   7.439   6.908  0.1836  0.1075 -0.0390
 8306SOL    HW125496   7.127   7.421   6.925  0.2220 -0.3557 -0.2982
 8306SOL    HW225497   7.225   7.449   6.813  0.1986  1.3490  0.0755
 8307SOL     OW25498   0.725   6.207   9.415  0.0270  0.2438  0.1006
 8307SOL    HW125499   0.790   6.186   9.482 -0.6496  1.9771  1.3885
 8307SOL    HW225500   0.770   6.269   9.357 -0.1442  0.6515  0.3986
 8308SOL     OW25501   9.526   1.974   8.344  0.2732  0.2648 -0.4115
 8308SOL    HW125502   9.463   2.045   8.353 -2.5858 -2.0437 -0.8694
 8308SOL    HW225503   9.549   1.973   8.251  0.1423  0.4591 -0.4448
 8309SOL     OW25504   9.677   7.647   5.890 -0.1762  0.1877 -0.0955
 8309SOL    HW125505   9.667   7.569   5.835  1.4322  1.3376 -2.1948
 8309SOL    HW225506   9.757   7.630   5.940  0.0433  0.3700 -0.3791
 8310SOL     OW25507   3.404   5.215   0.704 -0.2120  0.1064  0.0622
 8310SOL    HW125508   3.492   5.250   0.687  0.5292 -1.8279 -0.2436
 8310SOL    HW225509   3.375   5.179   0.621  0.2351 -2.4825  0.9335
 8311SOL     OW25510   2.897   6.490   3.685  0.0549  0.4111 -0.5854
 8311SOL    HW125511   2.966   6.428   3.710  0.1722  0.9911  0.5935
 8311SOL    HW225512   2.816   6.451   3.720  0.3555  1.7643  1.8895
 8312SOL     OW25513   0.828   0.849   3.918  0.0556 -0.7685 -0.1732
 8312SOL    HW125514   0.878   0.885   3.991  1.2549  0.2742 -1.4515
 8312SOL    HW225515   0.884   0.863   3.841 -1.4185 -1.2672 -1.3898
 8313SOL     OW25516   3.013   9.141   1.147  0.2898 -0.3177  0.6586
 8313SOL    HW125517   2.943   9.083   1.178  0.9521 -0.9041  1.0603
 8313SOL    HW225518   3.029   9.115   1.057  0.0170 -0.1982  0.5727
 8314SOL     OW25519   7.181   3.663   2.687 -0.0250 -1.0448  0.0746
 8314SOL    HW125520   7.089   3.662   2.660 -0.0141 -2.2430  0.0540
 8314SOL    HW225521   7.219   3.736   2.639 -0.6152 -1.4893 -1.1021
 8315SOL     OW25522   6.770   3.842   8.618  0.3322 -0.1202 -0.2806
 8315SOL    HW125523   6.788   3.927   8.658  0.1305  0.0683 -0.5940
 8315SOL    HW225524   6.847   3.824   8.565  0.4694 -0.2343 -0.0459
 8316SOL     OW25525   7.858   4.998   4.354 -0.8281  0.0824 -0.7946
 8316SOL    HW125526   7.829   5.055   4.283 -0.7572 -1.5934 -2.2360
 8316SOL    HW225527   7.837   4.910   4.324  1.0206 -0.8239  0.4007
 8317SOL     OW25528   0.884   1.052   3.152 -0.0204  0.1516  0.1920
 8317SOL    HW125529   0.912   1.055   3.060 -0.2617 -2.0647  0.0088
 8317SOL    HW225530   0.940   0.987   3.193 -1.2830 -0.3838  1.1252
 8318SOL     OW25531   1.315   4.828   6.778 -0.1971 -0.2634 -0.2980
 8318SOL    HW125532   1.292   4.736   6.764 -0.5845 -0.5681  2.0587
 8318SOL    HW225533   1.352   4.831   6.866 -0.0097  1.8211 -0.3933
 8319SOL     OW25534   8.373   7.618   2.119 -0.1679  0.1573 -0.2294
 8319SOL    HW125535   8.405   7.585   2.203  0.9691  0.3608 -0.5660
 8319SOL    HW225536   8.319   7.548   2.085  1.9258 -1.3027 -0.7684
 8320SOL     OW25537   5.793   9.170   6.221 -0.7087  0.0132  0.3404
 8320SOL    HW125538   5.740   9.090   6.219 -1.1589  0.3207 -1.1228
 8320SOL    HW225539   5.883   9.138   6.217 -0.9056 -0.4394 -2.7701
 8321SOL     OW25540   2.980   8.104   5.259 -0.1162  0.4594 -0.3711
 8321SOL    HW125541   3.006   8.018   5.292 -0.6294  0.1548 -0.7404
 8321SOL    HW225542   3.056   8.160   5.275  0.5011 -0.2353 -0.8041
 8322SOL     OW25543   5.955   5.104   8.183 -0.2743 -0.2983 -0.1885
 8322SOL    HW125544   6.006   5.046   8.126 -1.0966  1.2201 -2.5945
 8322SOL    HW225545   5.864   5.081   8.165 -0.6316 -1.5679  2.5585
 8323SOL     OW25546   7.409   0.737   0.067 -0.1048  0.4106  0.3859
 8323SOL    HW125547   7.393   0.718   0.159 -1.3182  1.5898  0.4486
 8323SOL    HW225548   7.338   0.796   0.042  1.0464  1.3056 -0.9068
 8324SOL     OW25549   3.834   7.001   4.764  0.5136 -0.2809  0.4035
 8324SOL    HW125550   3.874   6.979   4.848  1.1879  0.8189  0.4005
 8324SOL    HW225551   3.826   6.918   4.718  1.1646 -0.7556  1.1189
 8325SOL     OW25552   7.992   9.024   9.426 -0.0816 -0.2118  0.2480
 8325SOL    HW125553   7.918   8.972   9.396  0.8314 -1.8431  0.7296
 8325SOL    HW225554   8.044   9.040   9.347  0.4051 -1.3507  0.3146
 8326SOL     OW25555   7.124   3.105   8.264 -0.2561  0.0284  0.4903
 8326SOL    HW125556   7.176   3.143   8.194 -0.3617 -1.1305 -0.2411
 8326SOL    HW225557   7.056   3.056   8.220  0.1310 -1.3624  1.3779
 8327SOL     OW25558   8.076   1.339   0.320 -0.4007 -0.5182  0.3134
 8327SOL    HW125559   8.051   1.430   0.306 -2.2321 -0.8582  1.0745
 8327SOL    HW225560   8.141   1.321   0.253  0.3816  1.4856  0.4666
 8328SOL     OW25561   6.772   4.940   7.001 -0.3701 -0.2146  0.2565
 8328SOL    HW125562   6.793   4.920   6.910  1.3008  0.1226  0.5390
 8328SOL    HW225563   6.685   4.980   6.997 -0.9567 -1.5206 -1.0106
 8329SOL     OW25564   0.449   1.524   9.616 -0.2354  0.3371 -0.7107
 8329SOL    HW125565   0.541   1.551   9.613  0.1203 -0.2463  1.9538
 8329SOL    HW225566   0.409   1.584   9.678 -1.4608  0.0190 -1.1701
 8330SOL     OW25567   5.698   4.326   6.296  0.3869  0.0840 -0.4086
 8330SOL    HW125568   5.738   4.413   6.301 -0.0000  0.2958 -0.8731
 8330SOL    HW225569   5.767   4.266   6.323  0.1352  0.6494  1.6485
 8331SOL     OW25570   1.818   0.611   8.722  0.1790  0.4626  0.2025
 8331SOL    HW125571   1.798   0.616   8.628 -0.6302  1.0168  0.4011
 8331SOL    HW225572   1.792   0.696   8.757 -3.5545 -1.1212  1.7023
 8332SOL     OW25573   3.264   1.208   3.750 -0.7851  0.1223  0.3025
 8332SOL    HW125574   3.200   1.213   3.820 -1.3763  1.5875 -0.3032
 8332SOL    HW225575   3.327   1.142   3.779  0.1766  2.1320  3.2360
 8333SOL     OW25576   5.344   1.515   5.723  0.2595  0.7048 -0.2107
 8333SOL    HW125577   5.396   1.516   5.643  1.0083  0.2208  0.2621
 8333SOL    HW225578   5.286   1.440   5.713 -0.0961  1.0232 -0.5737
 8334SOL     OW25579   6.910   9.909   2.790 -0.5659  0.3834  0.1490
 8334SOL    HW125580   6.879   9.941   2.875 -0.0626 -0.2394  0.5702
 8334SOL    HW225581   6.914   9.814   2.800 -1.7697  0.1893 -1.0007
 8335SOL     OW25582   5.499   7.679   0.906 -0.6067 -0.3710 -0.2436
 8335SOL    HW125583   5.564   7.620   0.868  2.0510  1.6278  0.8433
 8335SOL    HW225584   5.486   7.747   0.841  1.7536  1.4970  1.0733
 8336SOL     OW25585   7.444   7.278   6.553  0.0133 -0.6562 -0.4380
 8336SOL    HW125586   7.377   7.339   6.581  0.5727 -0.1851 -0.1056
 8336SOL    HW225587   7.397   7.214   6.499 -0.5420  0.1975 -0.9989
 8337SOL     OW25588   7.952   2.047   8.429 -0.7779  0.2763  0.0234
 8337SOL    HW125589   7.973   2.001   8.348  0.7557 -0.8805  1.0265
 8337SOL    HW225590   7.887   2.113   8.403  0.1332  0.3619 -2.2514
 8338SOL     OW25591   0.245   5.532   0.549 -0.3496  0.3566 -0.4190
 8338SOL    HW125592   0.317   5.476   0.576  0.7981  2.0010  0.0875
 8338SOL    HW225593   0.249   5.533   0.454 -0.8404 -0.9584 -0.4722
 8339SOL     OW25594   0.587   2.039   9.217  0.4610 -0.1734  0.1761
 8339SOL    HW125595   0.556   2.077   9.300 -1.5716 -0.5372 -0.3597
 8339SOL    HW225596   0.671   2.082   9.201  1.0995 -0.3804  2.6109
 8340SOL     OW25597   1.423   8.562   0.945 -0.2761 -0.0721  0.5603
 8340SOL    HW125598   1.451   8.488   0.892 -0.0934  0.0961  0.4246
 8340SOL    HW225599   1.408   8.524   1.032  0.4672 -0.1373  0.6599
 8341SOL     OW25600   7.657   9.798   0.853 -0.0113 -0.1190 -0.4449
 8341SOL    HW125601   7.743   9.833   0.877  0.7670 -1.0547 -1.7470
 8341SOL    HW225602   7.595   9.866   0.880  1.0552  0.2234  1.2479
 8342SOL     OW25603   7.156   1.397   0.284 -0.7711 -0.1384 -0.0907
 8342SOL    HW125604   7.175   1.317   0.333  0.6387 -0.7602 -1.5756
 8342SOL    HW225605   7.230   1.455   0.304 -1.5775  0.6677  0.6476
 8343SOL     OW25606   2.984   2.680   3.716 -0.0735  0.0855 -0.5195
 8343SOL    HW125607   2.945   2.593   3.722  3.4216 -1.8130 -2.4671
 8343SOL    HW225608   3.009   2.690   3.625  1.0035  2.5389 -0.0465
 8344SOL     OW25609   3.945   7.025   1.264 -0.6324  0.5880 -0.1932
 8344SOL    HW125610   3.907   7.003   1.179 -0.0661 -0.6187 -0.1553
 8344SOL    HW225611   3.915   6.956   1.323  0.4128  0.4215  0.1706
 8345SOL     OW25612   3.889   2.000   1.349  0.1816 -0.2885  0.0670
 8345SOL    HW125613   3.963   2.042   1.304 -0.3746 -1.1000 -1.7109
 8345SOL    HW225614   3.813   2.052   1.324  0.1743  0.8777  2.3434
 8346SOL     OW25615   8.103   8.937   8.936  0.5444 -0.0535  0.4115
 8346SOL    HW125616   8.123   8.882   8.860  0.4754  0.0971  0.2847
 8346SOL    HW225617   8.061   9.015   8.899  1.7111  0.6397  0.4621
 8347SOL     OW25618   6.884   9.583   4.363 -0.5332  0.2420 -0.1423
 8347SOL    HW125619   6.893   9.498   4.321  0.5155 -0.0649  0.6398
 8347SOL    HW225620   6.841   9.564   4.446  0.9071  0.2424  0.6393
 8348SOL     OW25621   6.985   5.314   9.412 -0.0957 -0.6958  0.2569
 8348SOL    HW125622   7.067   5.314   9.362 -0.7696 -0.7655 -0.8717
 8348SOL    HW225623   6.944   5.231   9.390 -0.9699 -0.1939 -0.0373
 8349SOL     OW25624   0.113   1.984   9.318  0.3791 -0.1468 -0.1586
 8349SOL    HW125625   0.114   1.899   9.274 -0.6692 -0.3752  0.2285
 8349SOL    HW225626   0.022   2.014   9.309  0.8703  1.2269 -0.8391
 8350SOL     OW25627   8.807   3.505   4.597 -0.0746 -0.4997 -0.2475
 8350SOL    HW125628   8.721   3.508   4.639 -0.4113 -0.1967 -0.9381
 8350SOL    HW225629   8.787   3.494   4.504  0.5248  2.1224 -0.7724
 8351SOL     OW25630   7.232   4.814   8.906 -0.1172 -0.0784  0.2239
 8351SOL    HW125631   7.205   4.790   8.817  0.4146  0.4085 -0.0792
 8351SOL    HW225632   7.317   4.858   8.894  0.3076 -0.6610  1.0499
 8352SOL     OW25633   5.300   3.451   4.237  0.2773  0.4089 -0.0191
 8352SOL    HW125634   5.336   3.510   4.170  1.0053  1.5678  1.3238
 8352SOL    HW225635   5.375   3.403   4.270  0.3227  1.3954  1.4150
 8353SOL     OW25636   8.298   1.324   0.979  0.1617 -0.0605 -0.2170
 8353SOL    HW125637   8.239   1.396   0.957 -2.0829 -1.5212  0.6491
 8353SOL    HW225638   8.342   1.353   1.059  0.1615  0.8118 -0.5232
 8354SOL     OW25639   5.170   3.701   6.527  0.7065 -0.3833 -0.4795
 8354SOL    HW125640   5.160   3.694   6.432 -0.2404 -1.3065 -0.3344
 8354SOL    HW225641   5.100   3.762   6.554  0.3256 -0.9008 -0.2778
 8355SOL     OW25642   6.318   2.255   1.068 -0.0939 -0.0290  0.2577
 8355SOL    HW125643   6.313   2.334   1.013  0.6489 -1.0520 -1.3554
 8355SOL    HW225644   6.380   2.199   1.023  0.4752 -0.9771  2.1539
 8356SOL     OW25645   8.096   9.618   4.284 -0.3975  0.6923  0.1616
 8356SOL    HW125646   8.101   9.592   4.376  0.1568 -2.1943 -0.5864
 8356SOL    HW225647   8.047   9.547   4.242 -2.7055  3.0333 -1.4695
 8357SOL     OW25648   6.092   3.777   4.986 -0.0344 -0.2582  0.2107
 8357SOL    HW125649   6.094   3.733   5.071 -0.3495  0.0694  0.3862
 8357SOL    HW225650   6.087   3.705   4.922 -0.3373 -0.4840  0.4880
 8358SOL     OW25651   3.331   3.141   0.615 -0.2720  0.2857 -0.5560
 8358SOL    HW125652   3.341   3.047   0.624  0.0134  0.2124 -1.4737
 8358SOL    HW225653   3.246   3.160   0.655 -0.8422 -0.5277 -1.3322
 8359SOL     OW25654   5.836   6.322   5.662 -0.0110  0.3331 -0.2605
 8359SOL    HW125655   5.751   6.361   5.681 -0.1547 -0.4689  0.7885
 8359SOL    HW225656   5.892   6.349   5.734  0.2681 -0.2302 -0.2601
 8360SOL     OW25657   1.439   8.033   8.392  0.1376 -0.7687  0.5146
 8360SOL    HW125658   1.496   8.076   8.456  0.4186 -0.4470  0.0553
 8360SOL    HW225659   1.359   8.085   8.391  1.0374  0.7109 -1.1479
 8361SOL     OW25660   3.787   7.506   4.709  0.4396  0.5911 -0.5850
 8361SOL    HW125661   3.850   7.440   4.680  1.2531  0.6460  0.9250
 8361SOL    HW225662   3.820   7.589   4.673  1.2176  0.6074  0.1307
 8362SOL     OW25663   5.737   2.720   8.200 -0.2515 -0.3529 -0.2085
 8362SOL    HW125664   5.755   2.772   8.122  1.6013 -2.0796 -1.0260
 8362SOL    HW225665   5.661   2.666   8.178  0.2093 -0.7667 -0.8045
 8363SOL     OW25666   8.263   6.881   9.605  0.1900  0.5668 -0.0655
 8363SOL    HW125667   8.204   6.886   9.680 -0.2649  3.0450 -0.5008
 8363SOL    HW225668   8.350   6.874   9.642 -0.1284  0.4174  0.6626
 8364SOL     OW25669   8.873   7.556   6.005 -0.3953  0.0234  0.0567
 8364SOL    HW125670   8.906   7.495   5.939  1.3258 -1.1985  1.9172
 8364SOL    HW225671   8.925   7.635   5.992 -1.6036  0.6101 -1.4175
 8365SOL     OW25672   9.871   2.122   1.979  0.3625  0.3972  0.2707
 8365SOL    HW125673   9.937   2.066   2.020  0.9495 -0.6742 -1.9651
 8365SOL    HW225674   9.792   2.068   1.979  0.4969  0.1904 -0.4016
 8366SOL     OW25675   1.263   1.757   0.535 -0.3161  0.4316  0.3139
 8366SOL    HW125676   1.334   1.793   0.481 -0.8790 -0.5514 -1.1385
 8366SOL    HW225677   1.227   1.685   0.482 -2.3522  0.8602  1.0516
 8367SOL     OW25678   5.699   2.413   1.629  0.0098 -0.1558  0.0412
 8367SOL    HW125679   5.753   2.467   1.571  0.8971 -1.7138 -0.6242
 8367SOL    HW225680   5.648   2.358   1.571 -0.5327 -0.3941  0.7260
 8368SOL     OW25681   0.677   0.371   3.360 -0.4907  0.2711 -0.1881
 8368SOL    HW125682   0.609   0.304   3.369  2.5168 -3.0312  0.1936
 8368SOL    HW225683   0.690   0.403   3.449  0.6050 -1.5488  0.3667
 8369SOL     OW25684   6.276   7.025   5.561  0.1568  0.0887  0.2477
 8369SOL    HW125685   6.282   6.985   5.648 -0.3981 -0.0026  0.2491
 8369SOL    HW225686   6.366   7.049   5.539  0.1705  1.0542  1.2944
 8370SOL     OW25687   2.471   1.371   5.123  0.1240 -0.5274  0.1519
 8370SOL    HW125688   2.479   1.408   5.035  0.1431 -1.0160 -0.0540
 8370SOL    HW225689   2.469   1.276   5.109  0.2915 -0.6109  0.6940
 8371SOL     OW25690   7.547   2.130   0.128  0.4968  0.2269  0.2989
 8371SOL    HW125691   7.532   2.111   0.035 -0.7580 -0.3796  0.6008
 8371SOL    HW225692   7.596   2.054   0.160  0.7063  0.3173  0.1969
 8372SOL     OW25693   9.180   6.222   3.273  0.0511 -0.6815 -0.0493
 8372SOL    HW125694   9.218   6.217   3.360  0.0421 -0.0225 -0.0043
 8372SOL    HW225695   9.253   6.248   3.216 -0.0505 -0.6291 -0.1572
 8373SOL     OW25696   2.512   2.106   5.262 -0.2744  0.3402 -0.5227
 8373SOL    HW125697   2.488   2.119   5.354 -1.9247 -0.1818 -0.8467
 8373SOL    HW225698   2.502   2.192   5.222  0.3789  0.5530 -0.2417
 8374SOL     OW25699   9.721   6.688   4.345 -0.0515  0.4887 -0.8461
 8374SOL    HW125700   9.799   6.653   4.302 -0.1922  0.2686 -0.9260
 8374SOL    HW225701   9.675   6.736   4.277  0.3589  1.1957 -0.6304
 8375SOL     OW25702   9.668   8.832   6.054  0.2837 -0.0837  0.0611
 8375SOL    HW125703   9.609   8.908   6.056  0.5725  0.1737 -0.9956
 8375SOL    HW225704   9.696   8.825   5.963  2.1091 -0.0327  0.5816
 8376SOL     OW25705   3.492   1.845   4.586  0.1962 -0.1753  0.0090
 8376SOL    HW125706   3.474   1.899   4.509 -0.7394 -0.6003 -0.0894
 8376SOL    HW225707   3.553   1.897   4.638  0.3711  0.3821 -0.7273
 8377SOL     OW25708   3.841   2.985   3.452 -0.3004  0.6713  0.2958
 8377SOL    HW125709   3.929   3.020   3.437 -0.2923  1.0785  1.2246
 8377SOL    HW225710   3.854   2.915   3.517 -0.5429  0.0886 -0.2744
 8378SOL     OW25711   6.412   6.010   9.579 -0.1956  0.1422  0.2942
 8378SOL    HW125712   6.465   5.955   9.522  2.1333  0.2923  2.1695
 8378SOL    HW225713   6.331   5.961   9.591  0.6347 -1.4672 -0.4151
 8379SOL     OW25714   4.615   6.327   5.937 -0.2911  0.5723  0.0396
 8379SOL    HW125715   4.644   6.418   5.938 -0.2635  0.5668  1.0575
 8379SOL    HW225716   4.696   6.276   5.951 -0.2577  0.3634 -0.8337
 8380SOL     OW25717   5.450   0.703   2.485  0.3293 -0.1203 -0.6494
 8380SOL    HW125718   5.423   0.700   2.577  1.9339  0.1588 -0.1413
 8380SOL    HW225719   5.388   0.763   2.444 -0.2648 -0.0648  0.2946
 8381SOL     OW25720   6.926   3.357   1.270 -0.0320 -0.1973 -0.6262
 8381SOL    HW125721   6.924   3.434   1.213 -4.3002  0.1582 -0.3293
 8381SOL    HW225722   6.962   3.390   1.353  0.1158  0.9898 -1.1369
 8382SOL     OW25723   8.671   5.850   0.224 -0.1856 -0.2157  0.9177
 8382SOL    HW125724   8.763   5.859   0.201 -0.4598  0.9340  0.1682
 8382SOL    HW225725   8.672   5.823   0.316  0.8945 -0.8062  0.7478
 8383SOL     OW25726   6.080   4.230   8.707 -0.0383 -0.1385  0.4194
 8383SOL    HW125727   6.095   4.193   8.794 -1.1028  0.2660  0.7907
 8383SOL    HW225728   6.156   4.204   8.656  0.4571 -0.6304  1.3944
 8384SOL     OW25729   8.596   2.222   9.757 -0.4109 -0.0408  0.6189
 8384SOL    HW125730   8.665   2.156   9.764 -1.6000 -1.3417  0.6575
 8384SOL    HW225731   8.621   2.290   9.819 -0.3022 -1.5908  2.3707
 8385SOL     OW25732   8.858   9.046   8.824  0.2807 -0.0037 -0.2934
 8385SOL    HW125733   8.768   9.077   8.839  0.3630  0.5565 -0.9446
 8385SOL    HW225734   8.847   8.953   8.802 -0.1606  0.1274 -0.6430
 8386SOL     OW25735   9.075   8.555   8.240 -0.2790 -0.3563  0.2424
 8386SOL    HW125736   9.058   8.649   8.239 -0.6072 -0.4102 -1.5086
 8386SOL    HW225737   8.990   8.515   8.222 -0.0169 -0.9641  0.3360
 8387SOL     OW25738   8.948   1.751   8.033 -0.5982  0.0964 -0.0530
 8387SOL    HW125739   8.870   1.783   7.989  0.2806  1.0224 -0.9829
 8387SOL    HW225740   8.940   1.656   8.031 -1.4277  0.1729 -0.6264
 8388SOL     OW25741   8.030   5.843   0.252 -0.0393  0.3358  0.1413
 8388SOL    HW125742   8.122   5.832   0.227  0.6532 -0.6679  2.7755
 8388SOL    HW225743   7.986   5.766   0.216 -0.1561  1.3682 -2.0906
 8389SOL     OW25744   6.920   1.020   1.296 -0.8041  0.0344 -0.1139
 8389SOL    HW125745   6.952   1.101   1.256 -1.4170  0.1282 -0.4272
 8389SOL    HW225746   6.999   0.974   1.323 -0.1623 -1.1060 -3.4965
 8390SOL     OW25747   9.423   9.317   0.879 -0.3531  0.4134  0.1878
 8390SOL    HW125748   9.460   9.239   0.837  3.3801  1.3385  1.4053
 8390SOL    HW225749   9.382   9.284   0.959  0.4129 -0.4147  0.2524
 8391SOL     OW25750   4.365   4.406   7.323  0.0342  0.2910  0.2937
 8391SOL    HW125751   4.276   4.435   7.342 -0.6908 -2.0056  0.7242
 8391SOL    HW225752   4.360   4.371   7.234 -0.3414 -2.5288  1.2932
 8392SOL     OW25753   3.251   7.837   4.392  0.0294 -0.4058 -0.0279
 8392SOL    HW125754   3.337   7.801   4.367 -0.1637 -0.0845 -1.2380
 8392SOL    HW225755   3.190   7.797   4.330 -0.5400  0.1824  0.1509
 8393SOL     OW25756   6.485   2.976   0.289  0.1109  0.2215 -0.7665
 8393SOL    HW125757   6.484   3.017   0.376  1.9789  0.6480 -0.9210
 8393SOL    HW225758   6.396   2.990   0.256 -0.7002 -0.0587  1.0979
 8394SOL     OW25759   2.862   4.173   8.757  0.2532 -0.1923  0.3065
 8394SOL    HW125760   2.857   4.233   8.832  0.1187  0.8801 -0.5391
 8394SOL    HW225761   2.777   4.182   8.714  0.4145 -0.6395 -0.1086
 8395SOL     OW25762   8.513   3.530   2.767  0.7009 -0.3713 -0.3220
 8395SOL    HW125763   8.570   3.595   2.725  3.3392 -1.7724  0.7968
 8395SOL    HW225764   8.539   3.447   2.727  1.8097 -1.4714  2.4335
 8396SOL     OW25765   6.682   2.314   8.512 -0.3126  0.0993  0.0315
 8396SOL    HW125766   6.600   2.265   8.505 -0.2335  0.0670 -0.7677
 8396SOL    HW225767   6.660   2.390   8.565  0.1921 -2.1198  3.7692
 8397SOL     OW25768   2.804   1.785   8.769 -0.3932 -0.0212  0.1803
 8397SOL    HW125769   2.719   1.821   8.794 -0.4630  1.0240 -1.3729
 8397SOL    HW225770   2.792   1.759   8.677  0.8599 -0.1715  0.0475
 8398SOL     OW25771   6.482   2.050   2.419 -0.0792  0.3450  0.5068
 8398SOL    HW125772   6.535   1.986   2.371 -1.6839 -1.1402  0.6357
 8398SOL    HW225773   6.447   2.001   2.494 -3.8559  0.3881 -1.0309
 8399SOL     OW25774   2.151   8.033   1.194  0.6722 -0.8967 -0.1701
 8399SOL    HW125775   2.108   7.965   1.246 -1.3607  0.0279 -0.5088
 8399SOL    HW225776   2.211   8.077   1.254 -0.5129 -0.8264  1.0087
 8400SOL     OW25777   0.175   8.274   1.949  0.0176 -0.3402 -0.2049
 8400SOL    HW125778   0.218   8.225   1.880  0.5115  0.7067 -0.6758
 8400SOL    HW225779   0.208   8.236   2.030  3.1177  1.3490 -0.5176
 8401SOL     OW25780   4.207   1.640   9.738 -0.0211 -0.4018  0.6787
 8401SOL    HW125781   4.244   1.629   9.650 -0.4890  1.9861  0.1192
 8401SOL    HW225782   4.278   1.617   9.797  1.2168  0.6101 -0.3531
 8402SOL     OW25783   9.003   1.840   9.920 -0.7351 -0.0739  0.0454
 8402SOL    HW125784   8.969   1.842  10.009  0.9280 -0.1428  0.7141
 8402SOL    HW225785   9.002   1.932   9.891 -0.7951  0.0109  0.3182
 8403SOL     OW25786   7.685   2.963   1.306  0.1523 -0.0125 -0.1524
 8403SOL    HW125787   7.735   2.990   1.383  0.1593 -0.1960 -0.0916
 8403SOL    HW225788   7.600   3.006   1.317  0.3452  0.4151 -0.3295
 8404SOL     OW25789   3.499   8.005   6.777  0.1514 -0.1742  0.2321
 8404SOL    HW125790   3.453   7.941   6.722  0.3644  0.6497 -0.9363
 8404SOL    HW225791   3.438   8.025   6.848 -0.9814  0.2914 -0.8486
 8405SOL     OW25792   1.676   4.822   2.112 -0.6924 -0.4454  0.0851
 8405SOL    HW125793   1.743   4.845   2.047 -0.8471  0.9303  0.3832
 8405SOL    HW225794   1.700   4.735   2.141  1.8825  0.5758  1.2906
 8406SOL     OW25795   9.078   7.368   6.681 -0.6816 -0.3389  0.5457
 8406SOL    HW125796   8.999   7.396   6.635 -1.1206  0.0351  1.4979
 8406SOL    HW225797   9.056   7.282   6.717 -0.0372 -1.0298 -0.6535
 8407SOL     OW25798   7.544   1.782   1.183 -0.8762 -0.5084  0.3390
 8407SOL    HW125799   7.623   1.778   1.237  1.0100 -2.3266 -2.2610
 8407SOL    HW225800   7.516   1.691   1.176 -0.5170 -0.4930 -2.3138
 8408SOL     OW25801   0.344   6.264   6.836  0.3299  0.7998  0.4001
 8408SOL    HW125802   0.415   6.203   6.819  0.8110  1.6966 -0.8827
 8408SOL    HW225803   0.386   6.341   6.874 -0.3044  0.2978  2.2725
 8409SOL     OW25804   2.282   0.425   2.256 -0.5076  0.2041 -0.4149
 8409SOL    HW125805   2.252   0.480   2.329 -0.9887 -1.2997  0.5636
 8409SOL    HW225806   2.207   0.424   2.196 -0.7342  0.1187 -0.1355
 8410SOL     OW25807   2.986   0.784   6.226  0.4583 -0.2064 -0.5664
 8410SOL    HW125808   3.026   0.701   6.253 -3.6247 -2.5607 -1.0287
 8410SOL    HW225809   2.952   0.822   6.307  1.3685  0.5300 -0.5099
 8411SOL     OW25810   7.550   9.243   9.791 -0.4133  0.4303 -0.1393
 8411SOL    HW125811   7.575   9.330   9.758  0.2560 -0.2647 -1.5222
 8411SOL    HW225812   7.625   9.217   9.846 -0.2189  0.3591 -0.4360
 8412SOL     OW25813   2.232   1.164   8.542  0.3590 -0.7198  0.3168
 8412SOL    HW125814   2.146   1.204   8.541  0.7010  0.0623 -1.1422
 8412SOL    HW225815   2.219   1.077   8.504  0.2581 -0.4739 -0.2194
 8413SOL     OW25816   6.630   7.868   0.206  0.3325 -0.2228  0.1119
 8413SOL    HW125817   6.641   7.808   0.280  1.2963 -2.8101 -1.9786
 8413SOL    HW225818   6.550   7.840   0.163  1.2845 -0.7317 -1.4364
 8414SOL     OW25819   2.006   1.114   3.958 -0.4900 -0.3098  0.5370
 8414SOL    HW125820   1.920   1.125   3.919 -1.1471 -0.5104  1.8606
 8414SOL    HW225821   2.035   1.204   3.977  0.7493 -0.0424 -2.1776
 8415SOL     OW25822   1.150   1.401   6.217  0.0815 -0.3697  0.1400
 8415SOL    HW125823   1.223   1.457   6.192  0.9073 -1.5799 -0.2832
 8415SOL    HW225824   1.108   1.445   6.290 -1.3479  2.4820 -2.1780
 8416SOL     OW25825   9.428   2.037   4.372  0.1570  0.1876  0.0489
 8416SOL    HW125826   9.414   2.019   4.279 -0.9223 -0.4025  0.3145
 8416SOL    HW225827   9.364   2.105   4.393  0.1108  0.0219  0.4517
 8417SOL     OW25828   6.652   2.572   4.215  0.0251 -0.4650  0.6831
 8417SOL    HW125829   6.570   2.621   4.217 -1.0727 -2.0942 -1.1736
 8417SOL    HW225830   6.647   2.513   4.290 -0.3512 -0.3131  0.7767
 8418SOL     OW25831   2.875   2.621   7.531 -0.2624 -0.5645 -0.2269
 8418SOL    HW125832   2.961   2.662   7.543 -2.2135  3.7740  0.8835
 8418SOL    HW225833   2.845   2.601   7.619 -1.5794  0.8836 -0.3123
 8419SOL     OW25834   4.306   8.795   7.368 -0.4053 -0.5717 -0.0103
 8419SOL    HW125835   4.260   8.833   7.443 -2.7521  0.0708 -1.6548
 8419SOL    HW225836   4.336   8.871   7.318 -1.5691 -0.8683 -1.2333
 8420SOL     OW25837   2.571   4.401   7.595 -0.4442 -0.0786  0.0288
 8420SOL    HW125838   2.547   4.340   7.664  1.7934 -1.7904 -0.5745
 8420SOL    HW225839   2.667   4.404   7.597 -0.3044  0.1387 -2.6665
 8421SOL     OW25840   8.371   5.081   6.492 -0.0065  0.1107 -0.4802
 8421SOL    HW125841   8.322   5.108   6.569 -0.7588 -2.0211 -0.1353
 8421SOL    HW225842   8.326   5.121   6.418 -0.4967  0.5280  0.0444
 8422SOL     OW25843   1.400   7.311   2.057 -0.1084 -0.0010 -0.3204
 8422SOL    HW125844   1.336   7.365   2.104 -0.2986 -0.6068  0.1300
 8422SOL    HW225845   1.457   7.374   2.014 -1.2642  0.5637 -1.0965
 8423SOL     OW25846   8.303   9.980   3.761  0.2268 -0.8058 -0.1947
 8423SOL    HW125847   8.381   9.965   3.708  0.0003 -1.8387 -0.2508
 8423SOL    HW225848   8.285   9.895   3.802 -1.2975 -0.7898 -0.7633
 8424SOL     OW25849   7.150   4.363   3.071  0.2041  0.1990 -0.2052
 8424SOL    HW125850   7.069   4.396   3.032 -0.0756 -0.1255  0.0916
 8424SOL    HW225851   7.181   4.433   3.127 -0.1931  0.0991  0.1434
 8425SOL     OW25852   2.374   6.526   9.564  0.0332  0.1392 -0.3403
 8425SOL    HW125853   2.367   6.570   9.479 -0.5739  1.6106  0.4342
 8425SOL    HW225854   2.462   6.545   9.594  0.4505 -0.8732 -0.8743
 8426SOL     OW25855   4.740   5.185   9.259  0.1252  0.4195 -0.1125
 8426SOL    HW125856   4.824   5.157   9.224  0.9024  0.0016  1.9530
 8426SOL    HW225857   4.706   5.107   9.304 -1.1057  0.7513 -0.4216
 8427SOL     OW25858   7.254   5.214   1.804  0.2273  0.0250 -0.2960
 8427SOL    HW125859   7.281   5.204   1.713  0.8841  1.0204 -0.2283
 8427SOL    HW225860   7.330   5.252   1.848  0.5221 -1.9446  1.0505
 8428SOL     OW25861   6.660   5.007   0.228 -0.1266 -0.0821  0.3583
 8428SOL    HW125862   6.576   4.995   0.272  0.4408 -0.2578  1.4025
 8428SOL    HW225863   6.651   4.955   0.147 -0.6454 -0.9584  0.9539
 8429SOL     OW25864   1.682   8.024   1.887  0.3987 -0.3041 -0.4868
 8429SOL    HW125865   1.713   8.076   1.813  1.4782 -0.9510 -0.5097
 8429SOL    HW225866   1.752   8.030   1.952 -0.1097 -0.5479  0.1014
 8430SOL     OW25867   6.414   4.611   9.501 -0.4370 -0.3031  0.4610
 8430SOL    HW125868   6.475   4.574   9.566  0.0569 -1.7590 -0.7681
 8430SOL    HW225869   6.438   4.704   9.496  0.4710 -0.4721  1.3193
 8431SOL     OW25870   6.225   5.819   7.457  0.4428  0.2871 -0.0678
 8431SOL    HW125871   6.205   5.726   7.458 -1.0286  0.5364 -1.6409
 8431SOL    HW225872   6.284   5.831   7.383  1.9111  0.4014  1.0904
 8432SOL     OW25873   6.874   1.209   7.138  0.1990 -0.4423 -0.1575
 8432SOL    HW125874   6.885   1.144   7.207 -0.3455  0.7340  1.0644
 8432SOL    HW225875   6.781   1.203   7.114  0.1599 -0.1562 -0.0808
 8433SOL     OW25876   3.172   2.748   7.467 -0.6463 -0.0226  0.6277
 8433SOL    HW125877   3.199   2.811   7.534 -0.8972 -1.6514  2.3482
 8433SOL    HW225878   3.254   2.718   7.428 -0.2919 -0.8137  1.9133
 8434SOL     OW25879   1.082   1.828   7.225 -0.2883 -0.1451  0.3847
 8434SOL    HW125880   0.999   1.870   7.204 -0.3262  0.1921  1.1695
 8434SOL    HW225881   1.060   1.736   7.239 -0.0824 -0.6339 -2.1144
 8435SOL     OW25882   0.412   2.141   1.494  0.0601 -0.1893  0.1793
 8435SOL    HW125883   0.374   2.146   1.582  0.5296  0.3713  0.3567
 8435SOL    HW225884   0.432   2.232   1.472  0.6386 -0.4049 -0.2010
 8436SOL     OW25885   2.936   4.942   6.676 -0.0039 -0.5203  0.5937
 8436SOL    HW125886   3.024   4.909   6.696  0.9121  1.1308 -0.5566
 8436SOL    HW225887   2.910   4.991   6.754  2.0896  2.8960 -0.6616
 8437SOL     OW25888   5.433   3.636   7.161  0.1797 -0.4654  0.0532
 8437SOL    HW125889   5.391   3.610   7.243  0.9801 -1.3067  0.2163
 8437SOL    HW225890   5.445   3.554   7.113  0.2846 -0.0569 -0.6432
 8438SOL     OW25891   4.471   8.968   8.448  0.0180 -0.0264 -0.3688
 8438SOL    HW125892   4.481   8.880   8.483 -0.7756 -0.5610 -1.4338
 8438SOL    HW225893   4.551   9.014   8.475 -0.0816 -0.7142  1.1922
 8439SOL     OW25894   1.955   5.980   3.163  0.0952  0.4580  0.1614
 8439SOL    HW125895   1.874   5.955   3.119  1.2662 -1.1137 -1.2216
 8439SOL    HW225896   1.993   5.896   3.191  1.4894  1.1209  0.3100
 8440SOL     OW25897   9.296   0.808   9.123 -0.4114  0.1424  0.1311
 8440SOL    HW125898   9.249   0.890   9.137  0.1544  0.6584 -0.9273
 8440SOL    HW225899   9.367   0.809   9.187 -0.7269  0.2094  0.4870
 8441SOL     OW25900   1.098   6.624   3.187  0.6164  0.0849  0.1398
 8441SOL    HW125901   1.155   6.561   3.143 -1.0346 -0.7971 -0.8417
 8441SOL    HW225902   1.030   6.571   3.227  0.7545  1.0741  1.7651
 8442SOL     OW25903   8.200   4.273   8.946 -0.0664 -0.5136 -0.3751
 8442SOL    HW125904   8.284   4.313   8.925 -1.1922  1.3902 -1.5667
 8442SOL    HW225905   8.214   4.179   8.934  1.2524 -0.0676 -3.0032
 8443SOL     OW25906   5.936   8.511   1.671  0.3127  0.3759 -0.3182
 8443SOL    HW125907   5.881   8.483   1.598  0.7418 -0.0350 -0.4907
 8443SOL    HW225908   5.999   8.572   1.632 -0.8406  1.9002  0.1192
 8444SOL     OW25909   7.255   3.849   5.980  0.6086 -0.2559  0.0131
 8444SOL    HW125910   7.178   3.902   5.999  0.9889  0.5753 -0.6528
 8444SOL    HW225911   7.274   3.804   6.062 -1.2942 -1.4432 -0.1507
 8445SOL     OW25912   7.831   9.746   8.288  0.3792 -0.4504  0.5387
 8445SOL    HW125913   7.826   9.724   8.195  0.3935 -0.1885  0.4752
 8445SOL    HW225914   7.857   9.838   8.290 -0.6945 -0.1349  0.7867
 8446SOL     OW25915   8.829   8.032   7.129 -0.0156  0.0567  0.2702
 8446SOL    HW125916   8.822   8.037   7.033  0.7451 -2.7084 -0.0165
 8446SOL    HW225917   8.749   7.987   7.156  0.1131  0.1891  0.8837
 8447SOL     OW25918   9.334   7.508   7.115 -0.4311  0.0694  0.3660
 8447SOL    HW125919   9.356   7.439   7.178 -0.1107 -1.0574 -0.9380
 8447SOL    HW225920   9.273   7.466   7.054 -0.9182  1.2098  0.0467
 8448SOL     OW25921   7.747   4.169   6.235  0.1210 -0.3184  0.0388
 8448SOL    HW125922   7.780   4.241   6.290  0.2435 -0.0754 -0.3510
 8448SOL    HW225923   7.653   4.167   6.252 -0.0014  0.4253 -0.5121
 8449SOL     OW25924   6.832   7.625   6.380 -0.5461 -0.2127 -0.2692
 8449SOL    HW125925   6.891   7.565   6.425  0.1432  0.4755 -0.2240
 8449SOL    HW225926   6.786   7.572   6.315 -0.4433 -0.9102  0.2264
 8450SOL     OW25927   5.912   5.555   7.171  0.8313 -0.3076  0.0850
 8450SOL    HW125928   5.903   5.461   7.189 -0.4126 -0.5996 -1.7317
 8450SOL    HW225929   6.001   5.565   7.137  0.0421 -1.4442 -2.5964
 8451SOL     OW25930   7.293   7.779   7.488 -0.0968 -0.3468 -0.0909
 8451SOL    HW125931   7.258   7.777   7.577  1.5298 -0.2868  0.5973
 8451SOL    HW225932   7.320   7.688   7.471 -2.5887 -0.9229 -1.5180
 8452SOL     OW25933   4.991   9.064   8.205  0.4430  0.0392 -0.5307
 8452SOL    HW125934   5.076   9.042   8.243  0.3761 -0.6210 -0.7480
 8452SOL    HW225935   4.957   8.981   8.172 -2.0012 -0.5526  2.8693
 8453SOL     OW25936   5.681   6.667   0.089 -0.1762 -0.8804 -0.4742
 8453SOL    HW125937   5.669   6.762   0.094  1.5669 -0.6614  0.4191
 8453SOL    HW225938   5.605   6.636   0.040 -1.4066  0.8351  0.2151
 8454SOL     OW25939   9.062   6.023   1.966  0.3228  0.3632  0.0270
 8454SOL    HW125940   9.045   6.114   1.993 -1.8327  0.1922 -0.5663
 8454SOL    HW225941   8.975   5.983   1.962  1.0138 -1.0822 -1.9512
 8455SOL     OW25942   8.440   6.862   4.433 -0.4269 -0.4967  0.3908
 8455SOL    HW125943   8.393   6.926   4.487 -0.2471  0.3640 -0.4363
 8455SOL    HW225944   8.371   6.806   4.397 -0.9236  1.0574 -1.2088
 8456SOL     OW25945   9.702   8.711   3.761 -0.2137  0.1363 -0.0160
 8456SOL    HW125946   9.655   8.783   3.721 -0.5107 -0.5193 -0.8839
 8456SOL    HW225947   9.637   8.641   3.770  0.0249  0.0117  0.9608
 8457SOL     OW25948   1.051   7.623   0.459 -0.1512 -0.0312  0.5047
 8457SOL    HW125949   1.067   7.714   0.481  0.1929 -0.2386  1.1311
 8457SOL    HW225950   1.086   7.573   0.533 -1.5325 -0.6141  0.8127
 8458SOL     OW25951   6.033   1.281   4.617 -1.0765  0.2170  0.5578
 8458SOL    HW125952   6.068   1.324   4.538 -1.2618  1.5333  1.1560
 8458SOL    HW225953   6.067   1.334   4.689 -0.9340 -0.9587  1.3712
 8459SOL     OW25954   9.093   8.763   7.149  0.4084 -0.1446 -0.7604
 8459SOL    HW125955   9.085   8.801   7.236 -1.9511  0.3767 -1.1431
 8459SOL    HW225956   9.116   8.671   7.165 -1.9005 -0.5712  0.5653
 8460SOL     OW25957   5.834   3.148   9.134 -0.2607 -0.0745 -0.1970
 8460SOL    HW125958   5.761   3.176   9.189 -0.7945 -0.3730 -0.7359
 8460SOL    HW225959   5.860   3.227   9.086  0.8846  0.4355  1.2149
 8461SOL     OW25960   1.581   6.874   1.244 -0.2483 -0.7776 -0.2506
 8461SOL    HW125961   1.531   6.940   1.196 -1.2692 -1.5617 -0.2719
 8461SOL    HW225962   1.540   6.871   1.330  0.8940 -0.1630  0.3561
 8462SOL     OW25963   3.607   3.473   5.065  0.1664  0.0249  0.4405
 8462SOL    HW125964   3.636   3.403   5.006  0.0685 -0.4273  0.9245
 8462SOL    HW225965   3.595   3.430   5.150  1.0309  0.8232  0.9775
 8463SOL     OW25966   4.919   3.843   2.240  0.1874 -0.0173 -0.2019
 8463SOL    HW125967   4.912   3.866   2.148  1.4037  2.6576  0.2669
 8463SOL    HW225968   5.006   3.803   2.249 -0.0330 -0.5135 -0.2426
 8464SOL     OW25969   4.220   4.221   8.696  0.2838 -0.3557 -0.1679
 8464SOL    HW125970   4.242   4.301   8.649  0.0856 -0.1192  0.1378
 8464SOL    HW225971   4.304   4.189   8.729  0.3559 -0.2469 -0.2453
 8465SOL     OW25972   2.912   6.689   6.754  0.9134 -0.1860  0.1646
 8465SOL    HW125973   2.912   6.598   6.724  0.1012 -0.2635  0.3583
 8465SOL    HW225974   2.866   6.686   6.839 -0.8347  0.6473 -0.6929
 8466SOL     OW25975   6.142   4.813   6.754 -0.1204 -0.1612  0.3262
 8466SOL    HW125976   6.117   4.749   6.688 -0.5459  0.9228 -0.5979
 8466SOL    HW225977   6.217   4.859   6.717 -1.5777  1.8290 -0.3968
 8467SOL     OW25978   2.952   9.785   8.745 -0.1191  0.2145 -0.2074
 8467SOL    HW125979   3.030   9.756   8.697 -1.1466 -0.5147 -1.5127
 8467SOL    HW225980   2.931   9.870   8.706  0.8398  1.1360  1.1761
 8468SOL     OW25981   6.769   5.272   8.858  0.2721 -0.1971  0.2463
 8468SOL    HW125982   6.734   5.214   8.791 -3.0238  0.5410  1.1489
 8468SOL    HW225983   6.841   5.318   8.815 -0.3037 -1.3108 -2.0445
 8469SOL     OW25984   5.438   5.139   4.314 -0.2900  0.4990 -0.1334
 8469SOL    HW125985   5.488   5.060   4.294  1.2721  1.7583 -1.5589
 8469SOL    HW225986   5.353   5.125   4.272 -0.4235 -0.8024  0.5053
 8470SOL     OW25987   8.720   9.566   0.770  0.1974 -0.1596  0.4731
 8470SOL    HW125988   8.721   9.474   0.794 -3.4523 -0.4355  0.2475
 8470SOL    HW225989   8.700   9.612   0.851 -0.1082  0.1919  0.2019
 8471SOL     OW25990   0.162   0.671   7.903 -0.0171  0.3539 -1.0671
 8471SOL    HW125991   0.083   0.672   7.848 -0.7338  0.0002 -0.0751
 8471SOL    HW225992   0.163   0.758   7.944 -2.1200 -0.8482  1.9131
 8472SOL     OW25993   2.860   4.892   5.052  0.2665 -0.1190 -0.0236
 8472SOL    HW125994   2.791   4.895   5.118  0.5740 -2.0537  0.4439
 8472SOL    HW225995   2.818   4.854   4.975  1.0400 -2.5903  0.6823
 8473SOL     OW25996   4.399   1.569   3.799 -0.2360  0.2641  0.5049
 8473SOL    HW125997   4.398   1.627   3.724 -0.9554  1.0721  1.1213
 8473SOL    HW225998   4.308   1.540   3.809 -0.0340 -0.3280  0.6867
 8474SOL     OW25999   0.837   5.012   6.544 -0.4063 -0.5113  0.2080
 8474SOL    HW126000   0.906   4.957   6.581  0.4065  0.6118  0.3978
 8474SOL    HW226001   0.883   5.077   6.491 -1.4094 -0.5916 -0.8091
 8475SOL     OW26002   3.682   5.308   2.259  0.1444 -0.2025  0.0642
 8475SOL    HW126003   3.719   5.275   2.340 -0.7592  1.4070  1.2196
 8475SOL    HW226004   3.709   5.400   2.256  1.2832 -0.5446 -2.1872
 8476SOL     OW26005   5.324   1.485   6.483  0.0038 -0.5036 -0.0340
 8476SOL    HW126006   5.231   1.495   6.463  0.0218 -0.7723 -0.2459
 8476SOL    HW226007   5.369   1.516   6.405  0.1404  1.3007  0.7023
 8477SOL     OW26008   4.462   0.003   9.618 -0.2440  0.0916 -0.0587
 8477SOL    HW126009   4.515   0.074   9.654  0.6078 -0.4988 -0.1372
 8477SOL    HW226010   4.470  -0.068   9.682  2.1450 -1.3687 -1.8107
 8478SOL     OW26011   5.543   9.137   8.843 -0.5083  0.1423  0.4039
 8478SOL    HW126012   5.517   9.058   8.891  1.7830 -1.1159 -0.2427
 8478SOL    HW226013   5.540   9.111   8.751 -0.2699  1.0020  0.1449
 8479SOL     OW26014   9.928   9.132   1.637 -0.3696 -0.5206  0.5404
 8479SOL    HW126015   9.873   9.171   1.568 -0.1591  0.0199  0.6677
 8479SOL    HW226016   9.872   9.133   1.715 -0.1180  0.2105  0.7164
 8480SOL     OW26017   3.326   8.984   5.311 -0.3543  0.7118  0.4223
 8480SOL    HW126018   3.261   9.050   5.290 -1.0044 -0.3516 -1.0104
 8480SOL    HW226019   3.317   8.971   5.406 -1.8024  1.0091  0.3458
 8481SOL     OW26020   9.470   1.455   1.699 -0.2786  0.0405  0.0113
 8481SOL    HW126021   9.490   1.362   1.689  0.2608  0.1070  0.4339
 8481SOL    HW226022   9.544   1.501   1.659 -0.8450  0.2925 -0.7645
 8482SOL     OW26023   3.420   4.620   7.338 -0.7220 -0.3425 -0.3981
 8482SOL    HW126024   3.358   4.579   7.399 -0.6934  0.3638  0.1240
 8482SOL    HW226025   3.475   4.675   7.394 -0.2055 -0.2730 -0.9746
 8483SOL     OW26026   6.694   8.537   2.696 -0.1047 -0.3238  0.3511
 8483SOL    HW126027   6.764   8.473   2.679  0.6930  0.7076 -0.3884
 8483SOL    HW226028   6.618   8.484   2.720  0.9299 -1.4836  1.1996
 8484SOL     OW26029   5.291   8.905   8.915  0.8407  0.1138  0.0531
 8484SOL    HW126030   5.355   8.907   8.986  2.1380 -2.7139 -0.8971
 8484SOL    HW226031   5.327   8.843   8.852 -1.2549  0.9833 -2.1316
 8485SOL     OW26032   2.529   3.262   1.246 -0.2405 -0.8939  0.8692
 8485SOL    HW126033   2.563   3.239   1.332  0.3676 -2.0847  0.3370
 8485SOL    HW226034   2.598   3.233   1.185 -0.5229  0.2017  0.0014
 8486SOL     OW26035   5.261  10.000   5.627  0.2497 -0.0477  0.3153
 8486SOL    HW126036   5.234   9.930   5.568  1.1942  1.6339 -2.2539
 8486SOL    HW226037   5.355   9.987   5.639  0.7639  1.5859 -1.4722
 8487SOL     OW26038   3.908   4.211   3.776  0.3938 -0.2018 -0.4579
 8487SOL    HW126039   3.914   4.231   3.870  1.1734  1.1143 -0.7519
 8487SOL    HW226040   3.861   4.128   3.772  1.2018 -0.7848  1.1483
 8488SOL     OW26041   6.690   2.887   8.363  0.4200  0.2045 -0.4084
 8488SOL    HW126042   6.653   2.885   8.451  0.5124  0.3436 -0.3669
 8488SOL    HW226043   6.657   2.807   8.321  1.1212 -0.3270  0.0426
 8489SOL     OW26044   6.150   6.087   0.652  0.5053 -0.2850 -0.2980
 8489SOL    HW126045   6.176   6.031   0.725 -1.1868 -0.9028 -0.1388
 8489SOL    HW226046   6.057   6.105   0.667  0.6410  1.3154 -1.1777
 8490SOL     OW26047   0.361   1.192   6.942 -0.1224  0.2130 -0.1041
 8490SOL    HW126048   0.310   1.197   7.023 -2.0844 -0.6651 -1.2141
 8490SOL    HW226049   0.318   1.255   6.883  0.7299  0.1969 -0.7601
 8491SOL     OW26050   2.162   3.361   1.353  0.0235 -0.6156  0.6791
 8491SOL    HW126051   2.251   3.379   1.384  0.1423 -0.7997  0.4507
 8491SOL    HW226052   2.120   3.316   1.426 -0.7522  1.8555  1.8424
 8492SOL     OW26053   8.224   5.212   6.294 -0.2103  0.2454  0.0425
 8492SOL    HW126054   8.200   5.148   6.227  1.0419 -0.6758  0.4491
 8492SOL    HW226055   8.141   5.252   6.319 -0.8484 -0.2593 -1.1837
 8493SOL     OW26056   5.009   2.498   4.276  0.0142 -0.2126 -0.0419
 8493SOL    HW126057   5.087   2.504   4.222  0.7869 -0.0866  1.0418
 8493SOL    HW226058   4.988   2.588   4.299  0.8229 -0.3569  1.3851
 8494SOL     OW26059   4.834   9.414   3.473  0.1233  0.1980 -0.2906
 8494SOL    HW126060   4.802   9.345   3.415  1.3096 -0.1384 -0.5763
 8494SOL    HW226061   4.755   9.459   3.502 -0.6548 -1.0838 -0.3328
 8495SOL     OW26062   9.441   0.996   3.396  0.1110  0.2582  0.0273
 8495SOL    HW126063   9.509   0.946   3.351 -0.0660 -0.4567  0.5496
 8495SOL    HW226064   9.402   1.050   3.327 -1.1450 -1.8774 -1.0560
 8496SOL     OW26065   1.741   7.242   4.949 -0.4348  0.0968  0.4645
 8496SOL    HW126066   1.696   7.323   4.972 -1.0318 -0.5067  1.5355
 8496SOL    HW226067   1.707   7.177   5.011 -0.7188 -1.2129 -1.0008
 8497SOL     OW26068   8.871   2.601   9.645 -0.5436 -0.6593 -0.0150
 8497SOL    HW126069   8.816   2.650   9.707  1.6361  0.1616  1.3932
 8497SOL    HW226070   8.906   2.529   9.697  1.6428  0.2634 -0.0984
 8498SOL     OW26071   4.340   9.631   5.527  0.1228  0.2533 -0.0052
 8498SOL    HW126072   4.417   9.581   5.553  0.2958  0.0401 -0.8793
 8498SOL    HW226073   4.336   9.704   5.589  1.0706  0.3081  0.0008
 8499SOL     OW26074   2.492   6.345   9.919  0.0459 -0.5574 -0.0311
 8499SOL    HW126075   2.489   6.271   9.980  0.6935  0.6456  1.5399
 8499SOL    HW226076   2.512   6.305   9.835 -0.2285 -2.2285  0.6471
 8500SOL     OW26077   3.766   4.190   9.112  0.1079  0.7572 -0.8790
 8500SOL    HW126078   3.823   4.220   9.041  0.8462  0.4865 -0.4112
 8500SOL    HW226079   3.816   4.208   9.192 -0.9136  1.5115 -0.3936
 8501SOL     OW26080   6.709   6.006   9.211 -0.9696  0.7744  0.0766
 8501SOL    HW126081   6.700   5.966   9.124  1.6387  1.2872 -0.5080
 8501SOL    HW226082   6.752   5.939   9.264 -1.3285  0.9488  0.5961
 8502SOL     OW26083   9.990   3.937   6.416 -0.9030 -0.0937  0.0589
 8502SOL    HW126084  10.010   3.984   6.335 -0.3803 -2.5224 -1.3147
 8502SOL    HW226085   9.926   3.871   6.391 -0.8907 -0.7734  1.6870
 8503SOL     OW26086   2.375   4.992   1.457  0.6637  0.0617 -0.1346
 8503SOL    HW126087   2.403   5.084   1.460  2.9294 -0.5703  1.2907
 8503SOL    HW226088   2.443   4.949   1.406  0.5669 -1.0812  0.6739
 8504SOL     OW26089   5.152   7.925   5.208  0.2970  0.4752 -0.7265
 8504SOL    HW126090   5.058   7.941   5.210  0.0524 -0.7764 -1.1201
 8504SOL    HW226091   5.168   7.885   5.122  1.2816  1.1561 -0.8827
 8505SOL     OW26092   3.212   6.163   7.923 -0.6028 -0.5908 -0.0752
 8505SOL    HW126093   3.168   6.238   7.882 -2.3650 -0.9518  1.0523
 8505SOL    HW226094   3.204   6.179   8.017 -0.8220 -2.0689  0.1890
 8506SOL     OW26095   5.809   3.724   5.805  0.0724 -0.0432 -0.0536
 8506SOL    HW126096   5.881   3.783   5.786  0.7254 -0.6959  0.3255
 8506SOL    HW226097   5.732   3.781   5.813  0.4150  0.5897 -1.1027
 8507SOL     OW26098   2.606   6.545   4.620  0.1027 -0.6363 -0.0004
 8507SOL    HW126099   2.637   6.594   4.545  0.1527 -1.5699 -0.6081
 8507SOL    HW226100   2.685   6.509   4.660  0.0678 -0.2364  0.4415
 8508SOL     OW26101   8.466   2.504   6.061  0.4135  0.8297  0.1331
 8508SOL    HW126102   8.521   2.581   6.042  1.8061 -0.8278 -3.6604
 8508SOL    HW226103   8.504   2.466   6.140  2.7895  1.5272 -0.5764
 8509SOL     OW26104   3.613   9.260   7.915 -0.0832 -0.5290  0.3261
 8509SOL    HW126105   3.698   9.292   7.884 -0.4055  0.8375  0.7430
 8509SOL    HW226106   3.618   9.165   7.906 -0.0614 -0.3437 -3.6692
 8510SOL     OW26107   6.935   0.120   4.015 -0.4442  0.1648 -0.0501
 8510SOL    HW126108   6.972   0.175   3.946 -1.9045  2.7900  1.1090
 8510SOL    HW226109   6.912   0.038   3.971  1.6510  0.4934 -1.9203
 8511SOL     OW26110   6.887   2.309   9.114  0.0527  0.5055  0.3046
 8511SOL    HW126111   6.888   2.405   9.114 -1.2887  0.5448  0.3587
 8511SOL    HW226112   6.829   2.286   9.041 -1.2056 -0.2038  1.4832
 8512SOL     OW26113   6.457   3.370   2.942 -0.1994 -0.0404 -0.3960
 8512SOL    HW126114   6.512   3.435   2.985  0.3098 -0.6564 -0.1082
 8512SOL    HW226115   6.468   3.388   2.848  2.2307 -1.5061 -0.4558
 8513SOL     OW26116   9.108   4.089   4.631 -0.0531 -0.4218 -0.7232
 8513SOL    HW126117   9.027   4.105   4.584  0.2266 -0.3349 -1.1730
 8513SOL    HW226118   9.147   4.175   4.643 -0.2713 -0.4038 -0.0513
 8514SOL     OW26119   4.798   2.944   5.767  0.1549 -0.7059  0.1406
 8514SOL    HW126120   4.816   2.942   5.673 -2.2198  0.3838 -0.3959
 8514SOL    HW226121   4.727   2.882   5.780 -0.5756  0.2627  0.9530
 8515SOL     OW26122   8.686   9.102   0.117 -0.0652  0.6503 -0.3583
 8515SOL    HW126123   8.603   9.080   0.159 -0.0902  0.0913 -0.6858
 8515SOL    HW226124   8.675   9.074   0.026  0.4400  0.6723 -0.4294
 8516SOL     OW26125   0.884   7.644   7.206  0.0885  0.5783  0.2485
 8516SOL    HW126126   0.817   7.712   7.204  0.6285  1.1377 -1.9216
 8516SOL    HW226127   0.948   7.673   7.271 -0.6797  1.1397  0.7552
 8517SOL     OW26128   2.715   9.568   1.355 -0.1194  0.4107 -0.2138
 8517SOL    HW126129   2.635   9.558   1.304 -0.9086 -0.1516  1.1073
 8517SOL    HW226130   2.760   9.484   1.346 -0.4567  0.1677  0.3328
 8518SOL     OW26131   0.630   9.699   9.310 -0.4461  0.2541 -0.0061
 8518SOL    HW126132   0.683   9.652   9.375 -0.5621  0.9938  0.6345
 8518SOL    HW226133   0.694   9.739   9.251 -0.2929  0.9374  0.6178
 8519SOL     OW26134   6.334   3.904   8.406 -0.9038  0.0700  1.1140
 8519SOL    HW126135   6.267   3.881   8.342  0.4395 -1.1137  0.0754
 8519SOL    HW226136   6.407   3.936   8.353 -0.8450  1.9708  2.2557
 8520SOL     OW26137   2.166   5.149   8.593  0.2269 -0.4757  0.1163
 8520SOL    HW126138   2.203   5.093   8.662 -0.1121  3.1449  3.6139
 8520SOL    HW226139   2.234   5.216   8.578 -1.7427  1.8647  0.9960
 8521SOL     OW26140   3.480   4.096   8.069  0.0409 -0.3867 -0.2533
 8521SOL    HW126141   3.546   4.138   8.014 -0.6626  0.5870 -0.3795
 8521SOL    HW226142   3.448   4.166   8.126  1.0509 -1.4672  1.7231
 8522SOL     OW26143   2.668   5.525   5.260 -0.2150 -0.0874 -0.2503
 8522SOL    HW126144   2.588   5.532   5.313 -1.3938 -3.8251 -1.2193
 8522SOL    HW226145   2.725   5.467   5.311 -0.3858 -1.7455 -1.8245
 8523SOL     OW26146   6.417   0.642   2.084  0.2016 -0.7848  0.3903
 8523SOL    HW126147   6.406   0.617   1.993 -0.5083 -0.5975  0.4221
 8523SOL    HW226148   6.345   0.702   2.102  1.1503  0.3086  0.6813
 8524SOL     OW26149   3.088   6.255   6.637  0.1102  0.5594 -0.0257
 8524SOL    HW126150   3.049   6.216   6.715 -1.0062  2.9723  0.7172
 8524SOL    HW226151   3.013   6.274   6.580  0.3896  3.0239  0.3553
 8525SOL     OW26152   7.767   5.690   5.624  0.1435  0.0264 -0.2935
 8525SOL    HW126153   7.758   5.660   5.534  0.6017  0.2559 -0.4184
 8525SOL    HW226154   7.860   5.710   5.634 -0.3926  3.3627 -0.8322
 8526SOL     OW26155   7.123   3.946   0.683  0.0482  0.2429 -0.3164
 8526SOL    HW126156   7.054   3.930   0.619 -0.3132  2.9078 -0.7286
 8526SOL    HW226157   7.190   3.995   0.635  0.3341  1.2146  0.9908
 8527SOL     OW26158   9.499   4.927   3.385  0.0591  0.2916 -0.1977
 8527SOL    HW126159   9.542   4.879   3.456  1.8441  3.7072  1.2777
 8527SOL    HW226160   9.571   4.964   3.334 -1.2225 -0.3196 -2.6186
 8528SOL     OW26161   6.097   2.012   0.018 -0.0581 -0.4110  0.0629
 8528SOL    HW126162   6.030   2.069  -0.019 -0.9521 -0.9320  0.8114
 8528SOL    HW226163   6.176   2.065   0.022 -0.4349  0.2294 -0.8089
 8529SOL     OW26164   5.117   5.244   9.749 -0.0621 -0.3016  0.2146
 8529SOL    HW126165   5.158   5.162   9.778 -0.6084 -0.7027 -0.1398
 8529SOL    HW226166   5.071   5.221   9.668  1.2569  0.7412 -0.8921
 8530SOL     OW26167   4.717   9.026   2.018  0.2892 -0.4133 -0.0754
 8530SOL    HW126168   4.772   8.980   2.081  1.4743  1.3433  0.2303
 8530SOL    HW226169   4.637   9.046   2.067  0.2449 -1.0849  0.1410
 8531SOL     OW26170   5.319   6.400   1.380  0.1442  0.4522  0.6886
 8531SOL    HW126171   5.414   6.392   1.390  0.4114  0.6844 -1.2266
 8531SOL    HW226172   5.299   6.351   1.300 -1.2950  0.7547  0.8354
 8532SOL     OW26173   8.049   6.016   4.587 -0.1386 -0.3383 -0.3331
 8532SOL    HW126174   7.988   5.951   4.622 -1.0406  0.7627  0.1923
 8532SOL    HW226175   8.034   6.015   4.493 -0.2061 -0.8291 -0.3194
 8533SOL     OW26176   4.953   8.653   9.974 -0.8094 -0.2976 -0.2316
 8533SOL    HW126177   4.942   8.684   9.884  1.0498 -2.3526 -1.2759
 8533SOL    HW226178   5.037   8.607   9.973 -0.8141 -0.5276  2.5483
 8534SOL     OW26179   2.289   6.426   0.714  0.1352  0.0116  0.3649
 8534SOL    HW126180   2.311   6.450   0.624 -0.7028  0.4339  0.2711
 8534SOL    HW226181   2.372   6.434   0.762  0.4081  0.5649 -0.1974
 8535SOL     OW26182   6.160   5.043   3.809 -0.0691 -0.5225  0.9985
 8535SOL    HW126183   6.151   5.124   3.759 -0.4868 -0.8635  0.5119
 8535SOL    HW226184   6.116   5.061   3.892  0.2034 -0.1151  1.0592
 8536SOL     OW26185   4.185   0.510   5.310  0.1965  0.0309  0.0581
 8536SOL    HW126186   4.106   0.487   5.260  1.0940 -3.2252 -0.1078
 8536SOL    HW226187   4.227   0.578   5.259 -2.5080  1.9701  0.2185
 8537SOL     OW26188   5.814   7.732   8.170  0.0632 -0.7118 -0.4263
 8537SOL    HW126189   5.887   7.675   8.197  0.8149  0.4853  0.1275
 8537SOL    HW226190   5.774   7.686   8.096  2.8665 -0.3034 -2.3617
 8538SOL     OW26191   7.359   7.702   0.712  0.1019  0.0691 -0.4996
 8538SOL    HW126192   7.265   7.689   0.729  0.1149  0.1462 -0.3719
 8538SOL    HW226193   7.361   7.771   0.645 -0.0266 -1.4621 -2.1793
 8539SOL     OW26194   8.032   0.969   9.751  0.1491 -0.3436 -0.4318
 8539SOL    HW126195   8.083   0.889   9.737 -1.0861 -1.2939  0.3552
 8539SOL    HW226196   7.941   0.942   9.743 -0.2908  1.2386 -1.3592
 8540SOL     OW26197   4.051   8.678   7.104  0.4495 -0.8271  0.3158
 8540SOL    HW126198   4.143   8.651   7.111  0.8774  0.7281  1.1309
 8540SOL    HW226199   4.053   8.772   7.122 -1.2886 -0.7392  0.1294
 8541SOL     OW26200   5.066   7.369   8.376  0.2854 -0.0143 -0.3424
 8541SOL    HW126201   5.004   7.428   8.332  0.4657  0.9307  0.6307
 8541SOL    HW226202   5.138   7.360   8.313  1.5604  3.0443  0.4455
 8542SOL     OW26203   7.316   2.148   7.767  1.1433  0.5710 -0.3194
 8542SOL    HW126204   7.347   2.094   7.840  0.3809  0.8706  0.2362
 8542SOL    HW226205   7.325   2.238   7.799  0.0945  0.6753 -0.3017
 8543SOL     OW26206   3.184   9.184   9.228  0.2301 -0.1479 -0.3793
 8543SOL    HW126207   3.250   9.247   9.256 -0.5224  0.1652  0.7631
 8543SOL    HW226208   3.101   9.221   9.258 -0.5099 -0.4144 -1.9828
 8544SOL     OW26209   4.353   5.965   5.090  0.1747  0.2493  0.2278
 8544SOL    HW126210   4.442   5.967   5.055  1.0327 -0.7403  2.1811
 8544SOL    HW226211   4.320   5.877   5.069 -0.1771  0.4565 -0.1006
 8545SOL     OW26212   6.478   1.667   4.165 -0.2899 -0.4065 -0.0334
 8545SOL    HW126213   6.548   1.681   4.101 -1.5961  1.7726 -1.1309
 8545SOL    HW226214   6.423   1.599   4.126  0.4771 -1.1685  0.1970
 8546SOL     OW26215   1.669   5.896   8.925  0.2457 -0.0271  0.2717
 8546SOL    HW126216   1.680   5.845   8.845 -0.8388 -0.7695  0.5727
 8546SOL    HW226217   1.758   5.912   8.956  0.6623 -0.0822 -0.8562
 8547SOL     OW26218   8.213   4.843   9.618  0.5787 -0.1560  0.0203
 8547SOL    HW126219   8.142   4.811   9.562  0.3877  1.3054 -0.6300
 8547SOL    HW226220   8.169   4.902   9.680  1.0076 -0.5268  0.6804
 8548SOL     OW26221   6.167   4.881   6.162  0.6799  0.7713  0.3895
 8548SOL    HW126222   6.151   4.962   6.209 -0.1459  1.4099 -0.9320
 8548SOL    HW226223   6.173   4.907   6.070  0.3597 -0.6621 -0.0659
 8549SOL     OW26224   3.466   6.494   5.418  0.4101  0.4431 -0.0114
 8549SOL    HW126225   3.542   6.437   5.428  0.0229  0.0097  0.5800
 8549SOL    HW226226   3.402   6.440   5.372  0.9125  1.2481 -1.7300
 8550SOL     OW26227   6.731   6.354   1.654  0.3083  0.0012 -0.0863
 8550SOL    HW126228   6.674   6.323   1.584  0.2418  1.0771 -0.5292
 8550SOL    HW226229   6.717   6.293   1.726 -0.8208 -0.1923 -0.4600
 8551SOL     OW26230   2.324   4.674   7.179  0.6218 -0.0408 -0.2876
 8551SOL    HW126231   2.267   4.609   7.220  0.7050 -1.3921 -2.1825
 8551SOL    HW226232   2.413   4.645   7.199  0.6960  1.1630  1.3012
 8552SOL     OW26233   4.774   0.033   7.407  0.2075  0.2417  0.3208
 8552SOL    HW126234   4.740   0.059   7.493 -0.0310  0.7569  0.0798
 8552SOL    HW226235   4.704  -0.020   7.369 -0.2961  1.1901 -0.1197
 8553SOL     OW26236   6.432   5.356   1.422 -0.5180  0.1261 -0.2505
 8553SOL    HW126237   6.498   5.301   1.464 -0.6969  0.1979  0.1257
 8553SOL    HW226238   6.394   5.300   1.354 -1.4579 -0.6051  0.8284
 8554SOL     OW26239   4.597   3.943   5.349  0.2584 -0.2535 -0.4700
 8554SOL    HW126240   4.643   3.955   5.266  2.8010  0.9711  1.0071
 8554SOL    HW226241   4.654   3.887   5.401 -0.9276 -0.3978  0.7329
 8555SOL     OW26242   2.805   5.291   5.651 -0.5762  0.4601  0.5525
 8555SOL    HW126243   2.838   5.201   5.658  1.3334  0.7927 -2.2202
 8555SOL    HW226244   2.772   5.312   5.738  1.2556 -2.0620  1.9803
 8556SOL     OW26245   9.314   7.274   1.291 -0.8556  0.2929  0.3380
 8556SOL    HW126246   9.224   7.305   1.301 -0.7937  1.1264 -1.3061
 8556SOL    HW226247   9.349   7.327   1.219  1.4452  1.0399  1.9117
 8557SOL     OW26248   1.309   2.605   3.383 -0.9051 -0.2869  0.0577
 8557SOL    HW126249   1.326   2.613   3.289  0.9161 -0.4096  0.3449
 8557SOL    HW226250   1.292   2.694   3.412 -0.9257 -0.1782 -0.2779
 8558SOL     OW26251   0.813   7.923   8.840 -0.1101 -0.3518 -0.1454
 8558SOL    HW126252   0.848   7.864   8.774 -0.6904 -0.4147 -0.3976
 8558SOL    HW226253   0.725   7.890   8.858 -0.4101  0.3827 -0.2273
 8559SOL     OW26254   6.238   9.907   8.798 -0.3182 -1.1239 -0.4049
 8559SOL    HW126255   6.296   9.982   8.812  0.1097 -1.3095 -1.1167
 8559SOL    HW226256   6.192   9.928   8.716 -1.1774 -1.0383  0.0849
 8560SOL     OW26257   2.051   4.612   5.180 -0.0886 -0.3405 -0.0719
 8560SOL    HW126258   2.047   4.540   5.118  1.5222 -0.7019  0.2191
 8560SOL    HW226259   2.141   4.614   5.210  1.9612  5.4742 -4.5372
 8561SOL     OW26260   6.358   4.439   8.040  0.1920 -0.1394  0.5263
 8561SOL    HW126261   6.394   4.528   8.048 -0.1936 -0.0475  1.3499
 8561SOL    HW226262   6.432   4.386   8.010  0.4433  0.4451  0.1052
 8562SOL     OW26263   1.728   8.790   8.172 -0.4590  0.0356 -0.1786
 8562SOL    HW126264   1.766   8.702   8.176  0.3643  0.4328  1.6127
 8562SOL    HW226265   1.802   8.847   8.151 -0.7663  0.4487 -0.1576
 8563SOL     OW26266   3.919   2.102   2.946  0.2859 -0.1181 -0.0739
 8563SOL    HW126267   3.969   2.021   2.938 -0.5140 -0.6786  0.4607
 8563SOL    HW226268   3.947   2.155   2.871  2.9079  0.2857  1.0575
 8564SOL     OW26269   3.912   3.981   3.395 -0.3619  0.3599 -0.2219
 8564SOL    HW126270   3.942   3.953   3.309 -1.7671 -1.4460 -0.1826
 8564SOL    HW226271   3.930   3.907   3.453 -2.2949  0.2641  0.3436
 8565SOL     OW26272   9.964   6.922   7.138  0.8413 -0.0032 -0.1887
 8565SOL    HW126273  10.008   6.992   7.089  0.7695 -0.2188 -0.5652
 8565SOL    HW226274   9.882   6.907   7.090  0.6776 -0.0806  0.1125
 8566SOL     OW26275   0.871   9.490   2.895 -0.1363  0.6621  0.7209
 8566SOL    HW126276   0.912   9.574   2.878  1.5812 -0.2747 -0.0480
 8566SOL    HW226277   0.794   9.488   2.839 -0.0592  1.6182  0.5751
 8567SOL     OW26278   0.288   0.555   1.938  0.1740 -0.2915 -0.0700
 8567SOL    HW126279   0.192   0.554   1.936  0.1554  0.7272 -0.6539
 8567SOL    HW226280   0.313   0.583   1.850  0.9139  1.7190  0.7090
 8568SOL     OW26281   1.523   8.985   4.975 -0.0279 -0.3805  0.1357
 8568SOL    HW126282   1.566   9.043   5.039 -0.8720  0.2990  0.0990
 8568SOL    HW226283   1.430   9.004   4.985 -0.0910  1.8968 -3.2555
 8569SOL     OW26284   1.073   1.597   1.972 -1.1372  0.5011  0.1283
 8569SOL    HW126285   1.103   1.566   1.887 -0.0795 -0.8403  0.9457
 8569SOL    HW226286   0.979   1.577   1.973 -1.4015  1.5666 -1.1319
 8570SOL     OW26287   0.904   4.143   7.083 -0.3048  0.5595 -0.2918
 8570SOL    HW126288   0.827   4.124   7.137 -0.6819  1.3991 -0.5278
 8570SOL    HW226289   0.979   4.123   7.141 -0.6123 -2.2816 -0.7203
 8571SOL     OW26290   6.426   1.265   7.229 -0.0480  0.3170 -0.2591
 8571SOL    HW126291   6.359   1.322   7.266  1.1138  2.5740 -1.3891
 8571SOL    HW226292   6.506   1.318   7.230  1.4644 -1.8281 -0.0825
 8572SOL     OW26293   2.416   2.382   8.027  0.3530  0.0357 -0.1967
 8572SOL    HW126294   2.436   2.466   7.987  0.5579  0.6107  1.0716
 8572SOL    HW226295   2.430   2.395   8.121  1.1807 -1.6359 -0.0395
 8573SOL     OW26296   7.533   3.357   3.428  0.2966  0.0571 -0.4217
 8573SOL    HW126297   7.482   3.316   3.498 -1.3718 -0.2827 -1.7766
 8573SOL    HW226298   7.619   3.315   3.434  0.3867  0.3966  1.6990
 8574SOL     OW26299   8.867   4.838   5.313  0.1790  0.0821 -0.3509
 8574SOL    HW126300   8.891   4.908   5.374 -2.0629  0.6732 -0.0394
 8574SOL    HW226301   8.948   4.817   5.267  1.0236  2.6719 -0.2397
 8575SOL     OW26302   1.061   6.295   9.954 -0.9789 -0.1076 -0.3635
 8575SOL    HW126303   0.988   6.236   9.974 -1.2433  0.3907  0.1782
 8575SOL    HW226304   1.020   6.380   9.937 -0.4694  0.5008  1.2546
 8576SOL     OW26305   8.531   1.759   3.252  0.4537 -0.3675  0.2983
 8576SOL    HW126306   8.596   1.754   3.322  0.3850 -0.3284  0.3652
 8576SOL    HW226307   8.575   1.721   3.176  0.9830  0.7700  0.0175
 8577SOL     OW26308   7.130   8.654   1.752 -0.4934 -0.0530  0.2029
 8577SOL    HW126309   7.206   8.645   1.809  2.0913  0.8749 -2.7926
 8577SOL    HW226310   7.085   8.570   1.759  0.6372 -0.5573  2.2590
 8578SOL     OW26311   6.675   2.558   5.310  0.6023  0.0978 -0.1797
 8578SOL    HW126312   6.682   2.560   5.215 -0.0472 -1.0853 -0.2744
 8578SOL    HW226313   6.628   2.476   5.329  1.3419 -0.0368  1.1903
 8579SOL     OW26314   5.262   0.225   0.528  0.0384 -0.6741 -0.5457
 8579SOL    HW126315   5.246   0.164   0.600 -0.7985  0.4093  0.2233
 8579SOL    HW226316   5.244   0.312   0.565 -0.3452 -0.0808 -2.0243
 8580SOL     OW26317   6.166   3.940   9.286  0.6558  0.6276  0.8430
 8580SOL    HW126318   6.193   4.009   9.346  0.9640 -0.6717  2.2594
 8580SOL    HW226319   6.188   3.859   9.331 -0.2299 -0.4174 -0.5177
 8581SOL     OW26320   5.857   5.928   5.109 -0.2422  0.0047  0.1651
 8581SOL    HW126321   5.766   5.900   5.095  0.0008 -0.2395 -1.0532
 8581SOL    HW226322   5.904   5.893   5.034  0.8661  0.1460  0.7813
 8582SOL     OW26323   3.950   7.892   6.583 -0.1654  0.0670  0.3481
 8582SOL    HW126324   3.985   7.980   6.571  0.7608 -0.4417 -0.9773
 8582SOL    HW226325   3.862   7.896   6.546  0.4247  0.0871 -1.1188
 8583SOL     OW26326   0.263   8.811   0.544  0.1601  0.2861  0.2264
 8583SOL    HW126327   0.225   8.823   0.457  2.2010  1.1198 -0.6053
 8583SOL    HW226328   0.239   8.722   0.568  2.0244 -1.0942 -2.5211
 8584SOL     OW26329   0.982   0.815   6.204  0.0951 -0.0813 -0.0418
 8584SOL    HW126330   1.042   0.765   6.260 -0.7730 -0.9872  0.0989
 8584SOL    HW226331   1.038   0.845   6.132  0.6537 -1.2563 -0.1282
 8585SOL     OW26332   9.956   4.005   0.950 -0.6371  0.5640 -0.0374
 8585SOL    HW126333   9.863   4.002   0.971 -0.8761 -1.6967 -1.1735
 8585SOL    HW226334   9.994   3.929   0.995  0.4284  0.7477 -0.5960
 8586SOL     OW26335   7.272   8.491   0.353  0.1374  0.1155 -0.0266
 8586SOL    HW126336   7.341   8.452   0.299  1.2800 -0.8178  1.9425
 8586SOL    HW226337   7.263   8.580   0.321  1.6327 -0.0214 -0.9338
 8587SOL     OW26338   5.536   2.691   4.276  0.1615  0.1612 -0.0732
 8587SOL    HW126339   5.602   2.625   4.257  1.5721  1.1009  1.2591
 8587SOL    HW226340   5.583   2.774   4.266 -1.3100  0.9408 -0.7761
 8588SOL     OW26341   8.302   9.453   3.413  0.0476 -0.3268  0.1072
 8588SOL    HW126342   8.230   9.439   3.351  0.2916 -0.7343 -0.0842
 8588SOL    HW226343   8.260   9.486   3.492 -0.1270  1.8542 -0.8189
 8589SOL     OW26344   2.677   2.822   1.593 -0.1402  0.0116  0.3696
 8589SOL    HW126345   2.704   2.867   1.513 -0.6166  0.5288  0.4943
 8589SOL    HW226346   2.735   2.746   1.598  0.6183  0.5595  0.1124
 8590SOL     OW26347   7.559   4.201   6.898 -0.4708  0.0290  0.1067
 8590SOL    HW126348   7.623   4.172   6.963 -0.3045 -0.2350 -0.1746
 8590SOL    HW226349   7.549   4.126   6.839 -0.9850  0.0921  0.1070
 8591SOL     OW26350   9.952   1.791   9.502 -0.5071 -0.2263 -0.3298
 8591SOL    HW126351   9.891   1.848   9.454 -0.8832 -1.6064 -1.5410
 8591SOL    HW226352  10.037   1.808   9.462 -0.2653  0.8128  0.5605
 8592SOL     OW26353   2.443   4.402   1.837 -0.5181  0.8208 -0.0033
 8592SOL    HW126354   2.418   4.477   1.782 -1.5788 -0.3151 -1.1475
 8592SOL    HW226355   2.387   4.331   1.807  1.6666 -0.9448 -0.1939
 8593SOL     OW26356   3.830   7.740   0.659 -0.0944 -0.5369 -0.2849
 8593SOL    HW126357   3.761   7.707   0.603  0.8894 -0.7772 -1.4016
 8593SOL    HW226358   3.911   7.719   0.613  0.7012  0.3777  0.6267
 8594SOL     OW26359   6.906   1.552   9.613  0.0106  0.3505 -0.3178
 8594SOL    HW126360   6.816   1.547   9.644 -0.6057 -0.7895 -2.1282
 8594SOL    HW226361   6.948   1.473   9.649  0.3109  0.8808  0.5245
 8595SOL     OW26362   1.275   5.007   8.223 -0.2263 -0.2254 -0.1375
 8595SOL    HW126363   1.272   5.031   8.130 -0.5525 -0.3111 -0.1531
 8595SOL    HW226364   1.190   4.966   8.239  0.5954 -2.1182 -0.3258
 8596SOL     OW26365   4.470   7.544   1.291  0.3037 -0.0171  0.3849
 8596SOL    HW126366   4.521   7.483   1.238  0.9216  0.1475  0.7775
 8596SOL    HW226367   4.469   7.625   1.241  0.3405 -0.0505  0.3311
 8597SOL     OW26368   7.683   1.322   7.766 -0.1427 -0.1449  0.1033
 8597SOL    HW126369   7.677   1.371   7.848 -0.4429  0.1753 -0.1068
 8597SOL    HW226370   7.678   1.230   7.793 -0.2956 -0.0418  0.4390
 8598SOL     OW26371   1.496   7.934   9.608  0.4221 -1.1159 -0.0277
 8598SOL    HW126372   1.451   7.966   9.530 -0.7299 -0.7141  0.7644
 8598SOL    HW226373   1.463   7.990   9.679  0.3067 -2.4135  0.9908
 8599SOL     OW26374   6.905   2.222   6.938  0.2370  0.0966 -0.1720
 8599SOL    HW126375   6.962   2.201   7.011  0.6876  0.4640 -0.4143
 8599SOL    HW226376   6.872   2.309   6.957  1.3499  0.7296 -1.0065
 8600SOL     OW26377   5.250   3.913   7.296 -0.1056  0.3354 -0.0369
 8600SOL    HW126378   5.241   3.819   7.278  0.6020  0.4839 -1.2586
 8600SOL    HW226379   5.162   3.941   7.319 -0.3026 -0.6522  0.4740
 8601SOL     OW26380   8.506   6.470   6.156 -0.5226  0.2403  0.3659
 8601SOL    HW126381   8.452   6.490   6.232 -2.0077 -0.2541 -0.5111
 8601SOL    HW226382   8.542   6.554   6.129  0.2542  0.3785  1.7522
 8602SOL     OW26383   6.599   4.141   3.266  0.0347 -0.1383 -0.4796
 8602SOL    HW126384   6.647   4.060   3.253  1.0288  0.2003  0.8572
 8602SOL    HW226385   6.521   4.132   3.211 -0.5420 -2.5537  0.5874
 8603SOL     OW26386   5.786   5.511   1.593  0.0163  0.3614  0.2479
 8603SOL    HW126387   5.868   5.468   1.569 -0.2491  0.3798 -0.6894
 8603SOL    HW226388   5.790   5.516   1.689  0.9717  0.0935  0.2357
 8604SOL     OW26389   9.636   3.373   4.913 -0.0344  0.2484  0.8994
 8604SOL    HW126390   9.658   3.367   4.820 -0.1503  0.7200  0.8415
 8604SOL    HW226391   9.606   3.285   4.935 -1.0541  0.4078  0.2243
 8605SOL     OW26392   1.614   8.664   4.013 -0.1296  0.1897 -0.0988
 8605SOL    HW126393   1.690   8.652   4.070  0.0496  0.1156 -0.3491
 8605SOL    HW226394   1.642   8.629   3.928 -0.6775 -0.4422 -0.0205
 8606SOL     OW26395   6.007   1.713   8.100 -0.5986 -0.8227 -0.1267
 8606SOL    HW126396   5.951   1.746   8.170 -0.1060  1.4257 -0.7044
 8606SOL    HW226397   5.948   1.701   8.026 -0.5200  0.5713 -0.4388
 8607SOL     OW26398   6.797   9.203   0.187  0.0682 -0.6417  0.0957
 8607SOL    HW126399   6.860   9.163   0.248 -0.7778 -1.1379  0.6793
 8607SOL    HW226400   6.825   9.172   0.101  0.3474 -1.2416  0.3903
 8608SOL     OW26401   8.943   8.999   5.561  0.3892  0.4155  0.0415
 8608SOL    HW126402   8.880   8.968   5.496 -0.3224  2.9748 -0.5910
 8608SOL    HW226403   8.945   8.930   5.627 -2.9384  0.1056 -0.0056
 8609SOL     OW26404   3.737   1.366   6.054 -0.3232  1.1064 -0.0574
 8609SOL    HW126405   3.718   1.281   6.015  3.4360 -0.0994  0.2798
 8609SOL    HW226406   3.719   1.429   5.985 -2.5679  0.0303 -0.5469
 8610SOL     OW26407   3.520   3.715   3.223 -0.4731  0.1664  0.3986
 8610SOL    HW126408   3.515   3.803   3.259  0.2583  0.8529 -1.0991
 8610SOL    HW226409   3.550   3.661   3.297  0.4737  1.4196  0.9741
 8611SOL     OW26410   8.051   5.425   5.631 -0.3752  0.3685  0.2605
 8611SOL    HW126411   8.059   5.482   5.555 -0.6882 -0.3846 -0.3505
 8611SOL    HW226412   7.959   5.400   5.634  0.0350 -1.3982 -0.4620
 8612SOL     OW26413   6.111   7.171   6.454  0.1991  0.0411 -0.2679
 8612SOL    HW126414   6.051   7.188   6.526  0.6843 -0.5022  0.2724
 8612SOL    HW226415   6.057   7.184   6.375 -0.4164  0.3273  0.1902
 8613SOL     OW26416   4.261   1.230   3.683  0.0326  0.0648 -0.0288
 8613SOL    HW126417   4.210   1.309   3.699 -1.0055  0.5773 -4.5127
 8613SOL    HW226418   4.339   1.260   3.637 -0.8375 -1.4422 -2.7019
 8614SOL     OW26419   6.175   9.316   7.533 -0.1314  0.3063 -0.6140
 8614SOL    HW126420   6.262   9.336   7.500  0.5066 -0.9262  0.2299
 8614SOL    HW226421   6.191   9.262   7.611 -1.5961  1.6448  0.6817
 8615SOL     OW26422   8.441   9.292   8.478  0.1128  0.6632  0.0496
 8615SOL    HW126423   8.347   9.304   8.487  0.2574  1.9834 -0.0316
 8615SOL    HW226424   8.458   9.299   8.384  0.1720 -0.6316 -0.0499
 8616SOL     OW26425   3.475   5.504   7.946  0.7654 -0.7522 -0.3611
 8616SOL    HW126426   3.390   5.480   7.983  1.4545 -2.2735  0.3246
 8616SOL    HW226427   3.499   5.585   7.990  0.2700 -1.0272  0.4244
 8617SOL     OW26428   8.874   1.229   1.166  0.2024 -0.5691 -0.1865
 8617SOL    HW126429   8.798   1.216   1.223  0.4028  0.8328  0.4514
 8617SOL    HW226430   8.889   1.324   1.167 -0.5214 -0.2970 -3.5738
 8618SOL     OW26431   3.064   4.294   4.811 -0.0078 -0.2198 -0.0145
 8618SOL    HW126432   2.973   4.270   4.822 -0.2610  1.2437  1.5654
 8618SOL    HW226433   3.096   4.238   4.740 -2.1672 -0.6023 -0.7447
 8619SOL     OW26434   9.831   2.896   2.476  0.1425  0.1908  0.0956
 8619SOL    HW126435   9.896   2.937   2.419 -1.2423 -1.3394 -2.8266
 8619SOL    HW226436   9.873   2.892   2.562  3.7236 -0.2666 -1.4960
 8620SOL     OW26437   5.595   6.533   0.322  0.5719  0.0459 -0.2904
 8620SOL    HW126438   5.570   6.455   0.273 -2.9723  1.8508 -1.6992
 8620SOL    HW226439   5.670   6.568   0.275  0.8811 -1.3242 -0.8872
 8621SOL     OW26440   5.615   2.693   5.728  0.1018 -0.2428  0.1794
 8621SOL    HW126441   5.600   2.604   5.759  0.0896 -0.5742 -0.7297
 8621SOL    HW226442   5.560   2.700   5.649  0.5643  0.3605 -0.0966
 8622SOL     OW26443   3.715   3.679   8.006  0.6606 -0.1214 -0.5184
 8622SOL    HW126444   3.670   3.613   7.953  0.0278  0.8552 -1.2346
 8622SOL    HW226445   3.674   3.762   7.981  0.0635  0.3445  1.8069
 8623SOL     OW26446   6.764   8.177   0.994  0.2638  0.1218  0.5269
 8623SOL    HW126447   6.670   8.163   1.008  0.0239  1.2745  0.2161
 8623SOL    HW226448   6.773   8.272   0.991  1.3817  0.0130  0.1319
 8624SOL     OW26449   5.167   3.246   4.551 -0.4332  0.3072  0.2144
 8624SOL    HW126450   5.110   3.306   4.599 -0.3494  0.8614 -0.3708
 8624SOL    HW226451   5.213   3.196   4.619  0.5721  1.8929  0.7404
 8625SOL     OW26452   0.698   8.923   0.362  0.4196  0.2003  0.1256
 8625SOL    HW126453   0.740   8.988   0.305  1.1495 -0.8466 -0.5889
 8625SOL    HW226454   0.727   8.839   0.327 -2.8964 -0.6774 -0.9375
 8626SOL     OW26455   1.502   4.128   6.931  0.2907  0.6691 -0.2665
 8626SOL    HW126456   1.512   4.036   6.907 -1.5561  0.6709 -1.2004
 8626SOL    HW226457   1.509   4.129   7.027  1.2748 -0.2780 -0.3073
 8627SOL     OW26458   9.749   2.276   5.206  0.4150  0.2547  0.2997
 8627SOL    HW126459   9.670   2.329   5.215 -0.1673 -0.5437  0.0042
 8627SOL    HW226460   9.770   2.248   5.295 -0.2259 -0.3700  0.2564
 8628SOL     OW26461   0.556   0.275   6.654  0.3505  0.1583  0.1035
 8628SOL    HW126462   0.645   0.239   6.663 -0.1146 -0.8392  1.0437
 8628SOL    HW226463   0.525   0.284   6.745 -1.5789 -2.3471 -0.2112
 8629SOL     OW26464   5.464   3.074   1.821 -0.3158  0.0348 -0.4924
 8629SOL    HW126465   5.516   3.065   1.901 -0.2086  1.1602 -0.4282
 8629SOL    HW226466   5.513   3.025   1.755  1.1692  1.5686 -0.5835
 8630SOL     OW26467   8.915   6.353   6.129  0.3615  0.6408 -0.1533
 8630SOL    HW126468   8.921   6.416   6.201  0.6690  0.5566 -0.1045
 8630SOL    HW226469   8.990   6.294   6.142  1.2371  1.4513 -1.3293
 8631SOL     OW26470   8.712   7.961   5.192 -0.5965  0.4268 -0.0872
 8631SOL    HW126471   8.804   7.939   5.178 -0.9635 -0.6102 -1.0029
 8631SOL    HW226472   8.669   7.876   5.204 -1.3756  0.9243  0.7506
 8632SOL     OW26473   1.689   8.185   4.602 -0.1146  0.0230  0.1767
 8632SOL    HW126474   1.675   8.139   4.685  0.6498 -1.3482 -0.4198
 8632SOL    HW226475   1.690   8.116   4.536  0.8327  0.9128 -0.7915
 8633SOL     OW26476   7.150   1.881   0.347 -0.1374  0.3636  0.3941
 8633SOL    HW126477   7.170   1.943   0.277  0.9870  0.1315  0.4885
 8633SOL    HW226478   7.183   1.923   0.426  0.3677 -0.2107  0.4991
 8634SOL     OW26479   2.176   3.075   9.472 -0.4281 -0.3485 -0.0280
 8634SOL    HW126480   2.270   3.085   9.462 -0.3217  1.4929  1.9815
 8634SOL    HW226481   2.138   3.147   9.421 -0.4944  1.2091  2.1057
 8635SOL     OW26482   1.398   5.953   9.575 -0.0118  0.2048  0.1983
 8635SOL    HW126483   1.438   6.006   9.506 -1.6341  2.7049  1.0385
 8635SOL    HW226484   1.455   5.965   9.651 -0.2249  0.5340  0.3083
 8636SOL     OW26485   3.636   6.834   5.213  0.3636  0.3566 -0.4540
 8636SOL    HW126486   3.595   6.835   5.299  0.4032 -0.6998 -0.4177
 8636SOL    HW226487   3.567   6.803   5.154  1.3911 -2.6888 -0.2078
 8637SOL     OW26488   2.092   7.803   4.760  0.1067  0.6279 -0.2863
 8637SOL    HW126489   2.001   7.820   4.785 -0.5484 -0.8438 -1.4445
 8637SOL    HW226490   2.117   7.876   4.704 -0.4128  0.9850 -0.0480
 8638SOL     OW26491   7.427   9.479   9.144 -0.1436 -0.8224  0.0199
 8638SOL    HW126492   7.336   9.450   9.156 -0.4850 -0.5291 -1.5836
 8638SOL    HW226493   7.422   9.541   9.071  1.3239 -0.5988  0.0894
 8639SOL     OW26494   7.969   0.785   4.066 -0.1813 -0.8310 -0.5607
 8639SOL    HW126495   8.060   0.814   4.066 -0.2664 -0.5562 -0.7469
 8639SOL    HW226496   7.974   0.690   4.080  0.1383 -0.8346 -0.6814
 8640SOL     OW26497   8.640   5.852   7.578 -0.6032 -0.0701 -0.4433
 8640SOL    HW126498   8.711   5.799   7.540 -0.0258 -0.5788  1.2645
 8640SOL    HW226499   8.685   5.926   7.620 -1.1810  0.1957 -0.2850
 8641SOL     OW26500   8.213   2.081   5.005 -0.4323  0.1019  0.2338
 8641SOL    HW126501   8.222   2.174   5.026 -0.8095  0.3541 -0.6457
 8641SOL    HW226502   8.207   2.080   4.909  0.9252 -0.9399  0.1285
 8642SOL     OW26503   5.944   5.834   3.280 -0.1296 -0.3388 -0.4438
 8642SOL    HW126504   6.004   5.838   3.355  0.0190  2.6749 -0.5854
 8642SOL    HW226505   5.872   5.778   3.309  0.1871  0.3135  1.7853
 8643SOL     OW26506   7.700   4.895   5.147 -0.1464 -0.6253  0.5848
 8643SOL    HW126507   7.744   4.979   5.165 -0.1173 -0.3030 -0.9042
 8643SOL    HW226508   7.772   4.832   5.142 -0.0834 -0.5673  0.7358
 8644SOL     OW26509   3.538   3.065   7.304  0.0985 -0.4953 -0.6553
 8644SOL    HW126510   3.522   3.154   7.333 -0.0449 -0.7078 -0.0649
 8644SOL    HW226511   3.484   3.011   7.361 -1.1503 -0.8572 -2.1185
 8645SOL     OW26512   8.250   2.149   3.019 -0.4444 -0.1766 -0.3680
 8645SOL    HW126513   8.205   2.156   3.103 -1.0612  1.1486 -0.7758
 8645SOL    HW226514   8.343   2.157   3.041 -0.6097  0.3162  0.1832
 8646SOL     OW26515   1.303   2.160   2.531 -0.2031 -0.3758 -0.3382
 8646SOL    HW126516   1.240   2.131   2.596  1.8453 -1.0977  1.4449
 8646SOL    HW226517   1.258   2.151   2.447 -1.5853 -3.3148  0.6164
 8647SOL     OW26518   8.397   2.879   0.691 -0.1637 -0.9412  0.7898
 8647SOL    HW126519   8.309   2.874   0.727 -1.1184 -0.1524 -1.2620
 8647SOL    HW226520   8.388   2.847   0.601  1.5213 -0.2669  0.3388
 8648SOL     OW26521   7.169   1.571   6.296 -0.3375 -0.3108 -0.9567
 8648SOL    HW126522   7.095   1.556   6.355 -0.0301  1.1346 -0.1516
 8648SOL    HW226523   7.133   1.626   6.226  0.2267  1.6343  0.1913
 8649SOL     OW26524   1.480   2.923   5.946  0.0442  0.0463  0.7572
 8649SOL    HW126525   1.571   2.953   5.939 -0.2194  0.7626  0.3148
 8649SOL    HW226526   1.456   2.941   6.037  0.8633 -1.6998  1.3614
 8650SOL     OW26527   9.837   0.470   6.779 -0.1004 -0.3028  0.3463
 8650SOL    HW126528   9.828   0.381   6.746  0.0001 -1.0114  2.1311
 8650SOL    HW226529   9.833   0.525   6.700  1.1333 -1.9395 -0.9473
 8651SOL     OW26530   7.863   7.929   2.544 -0.2358 -0.1209  0.2429
 8651SOL    HW126531   7.872   7.867   2.617  0.7847 -0.2941 -0.0237
 8651SOL    HW226532   7.899   8.011   2.578 -2.3557  0.6149  0.8922
 8652SOL     OW26533   6.432   6.487   5.397 -0.1990 -0.0655  0.5301
 8652SOL    HW126534   6.489   6.421   5.437  0.5109 -0.3308 -0.8672
 8652SOL    HW226535   6.483   6.567   5.396 -0.3258  0.0151  0.4209
 8653SOL     OW26536   1.063   0.049   6.523  0.1457  0.2578  0.6497
 8653SOL    HW126537   1.112   0.025   6.601  1.8844 -0.5522 -0.6286
 8653SOL    HW226538   1.122   0.107   6.474 -0.5076 -0.0294 -0.5291
 8654SOL     OW26539   1.695   5.627   3.258 -0.7102 -0.7412  0.1313
 8654SOL    HW126540   1.758   5.555   3.269  0.1724  0.1171  0.8566
 8654SOL    HW226541   1.717   5.664   3.173  1.6160  1.2325  1.4718
 8655SOL     OW26542   4.280   7.085   4.907 -0.4401  0.1284  0.2436
 8655SOL    HW126543   4.355   7.105   4.963  0.2061  0.1292 -0.5836
 8655SOL    HW226544   4.253   7.170   4.871 -0.5258  0.0701  0.1685
 8656SOL     OW26545   8.902   2.600   2.216 -0.4195  0.2843  0.5206
 8656SOL    HW126546   8.869   2.688   2.236 -2.6494 -0.5977  1.0629
 8656SOL    HW226547   8.841   2.567   2.150 -0.0769 -1.1292  0.8910
 8657SOL     OW26548   0.194   4.523   0.204  0.0630  0.2314 -0.3007
 8657SOL    HW126549   0.275   4.482   0.234 -0.1019  1.5967  2.3913
 8657SOL    HW226550   0.222   4.590   0.142  0.8804 -0.1403 -0.3389
 8658SOL     OW26551   5.560   9.289   7.364 -0.1647 -0.2379  0.2213
 8658SOL    HW126552   5.652   9.282   7.337  0.8389  0.6598  2.9853
 8658SOL    HW226553   5.529   9.370   7.325  0.5363 -0.0503  0.0455
 8659SOL     OW26554   8.682   3.083   2.834  0.5298  0.1325  0.8181
 8659SOL    HW126555   8.774   3.073   2.811  0.0709  0.6306 -1.4034
 8659SOL    HW226556   8.676   3.050   2.924  3.2760  2.2000  1.8666
 8660SOL     OW26557   2.900   1.205   2.307  0.0185 -0.1858 -0.3625
 8660SOL    HW126558   2.971   1.167   2.358 -1.1597 -2.5112 -0.3374
 8660SOL    HW226559   2.872   1.281   2.358  3.7077  2.1225 -1.3557
 8661SOL     OW26560   8.596   0.852   2.389  0.1763  0.1546  0.5580
 8661SOL    HW126561   8.524   0.878   2.332 -0.8151 -0.5691  1.4642
 8661SOL    HW226562   8.663   0.920   2.375 -0.7280  0.9238 -0.1525
 8662SOL     OW26563   1.892   0.480   5.803 -0.2452  0.2597  0.0695
 8662SOL    HW126564   1.871   0.535   5.728  0.8112  2.3618  1.2037
 8662SOL    HW226565   1.988   0.472   5.800 -0.2589 -0.2447  0.7723
 8663SOL     OW26566   1.541   5.853   0.923 -0.3076 -0.0799 -0.0818
 8663SOL    HW126567   1.530   5.879   1.015 -1.6076 -1.0060  0.0685
 8663SOL    HW226568   1.599   5.777   0.927 -1.3432 -0.8949  0.1458
 8664SOL     OW26569   7.811   8.731   8.193  0.1888 -0.0224 -0.3621
 8664SOL    HW126570   7.788   8.809   8.141 -0.5438  0.3352  0.4741
 8664SOL    HW226571   7.746   8.729   8.263  1.4942 -0.1639  0.8867
 8665SOL     OW26572   1.596   6.359   0.710 -1.0393  0.4150  0.5629
 8665SOL    HW126573   1.680   6.345   0.753 -0.2828  1.8080 -0.4115
 8665SOL    HW226574   1.613   6.341   0.618 -2.1944 -0.7447  0.5432
 8666SOL     OW26575   7.734   4.669   2.325 -0.1277  0.4788 -0.3502
 8666SOL    HW126576   7.764   4.651   2.236 -0.7328 -0.6951 -0.3308
 8666SOL    HW226577   7.815   4.674   2.376  0.1347 -0.9090 -0.6059
 8667SOL     OW26578   1.632   7.832   7.567 -0.3409 -0.2494 -0.3893
 8667SOL    HW126579   1.658   7.742   7.548 -0.0192 -0.1339 -0.5048
 8667SOL    HW226580   1.702   7.866   7.623 -0.6054 -0.1606 -0.1099
 8668SOL     OW26581   9.466   9.933   7.585  0.4141  0.2156 -0.0142
 8668SOL    HW126582   9.425   9.897   7.506 -1.9344  1.2246  0.6610
 8668SOL    HW226583   9.543   9.979   7.552  0.5134 -0.8972 -1.4891
 8669SOL     OW26584   0.358   8.529   1.203 -0.1982 -0.1387  0.2189
 8669SOL    HW126585   0.436   8.491   1.162  0.2699 -1.1344  1.9346
 8669SOL    HW226586   0.376   8.623   1.207 -0.8533  0.2189 -3.0063
 8670SOL     OW26587   6.864   0.613   9.605  0.2168  0.0562 -0.1830
 8670SOL    HW126588   6.903   0.627   9.692  0.4431  0.9402 -0.4122
 8670SOL    HW226589   6.803   0.687   9.595 -1.4567 -1.2269  0.1218
 8671SOL     OW26590   5.394   0.118   3.109  0.5641  0.1088 -0.2477
 8671SOL    HW126591   5.430   0.207   3.100  1.4722  0.0123  1.8757
 8671SOL    HW226592   5.410   0.095   3.201 -0.0176 -2.1070 -0.6516
 8672SOL     OW26593   2.430   7.742   3.634 -0.2459 -0.1430  0.1780
 8672SOL    HW126594   2.397   7.664   3.677 -0.5681  0.4904  1.1065
 8672SOL    HW226595   2.352   7.791   3.607 -0.0723  0.4944  0.7894
 8673SOL     OW26596   8.504   5.010   2.338 -0.1878  0.5612  0.5775
 8673SOL    HW126597   8.518   4.996   2.432  0.3841  0.0031  0.4163
 8673SOL    HW226598   8.409   5.005   2.327 -0.1571 -2.0205  0.7679
 8674SOL     OW26599   5.079   6.576   9.847 -0.1388  0.2024  0.2437
 8674SOL    HW126600   5.150   6.532   9.800  1.2864  0.1542  2.3202
 8674SOL    HW226601   5.030   6.505   9.888  0.6773  0.3738  1.5674
 8675SOL     OW26602   2.933   5.506   1.035  0.3105 -0.1654  0.1234
 8675SOL    HW126603   2.963   5.475   0.950  0.8378 -1.1645  0.6575
 8675SOL    HW226604   2.852   5.554   1.016  0.7956  0.2235 -1.0094
 8676SOL     OW26605   7.765   0.329   7.698 -0.9399 -0.1095  0.2272
 8676SOL    HW126606   7.708   0.300   7.627 -1.2469  0.5194  0.2148
 8676SOL    HW226607   7.843   0.274   7.689 -1.0853 -0.2208 -0.4289
 8677SOL     OW26608   3.076   3.318   2.563  0.1047  0.2169 -0.4378
 8677SOL    HW126609   3.163   3.324   2.604 -0.5091  0.3579  0.9008
 8677SOL    HW226610   3.071   3.228   2.531  1.9486  1.0489 -3.4444
 8678SOL     OW26611   5.820   6.087   7.582 -0.1184 -0.8356 -0.1061
 8678SOL    HW126612   5.735   6.132   7.578 -1.3609 -3.0481  0.1311
 8678SOL    HW226613   5.848   6.081   7.490  1.6266  2.9953 -0.0278
 8679SOL     OW26614   2.439   3.095   9.382 -0.5240  0.5467  0.3634
 8679SOL    HW126615   2.429   3.030   9.311 -0.5755 -0.4174  1.2243
 8679SOL    HW226616   2.467   3.175   9.337  2.2875 -0.7657 -0.5110
 8680SOL     OW26617   3.978   6.201   5.750  0.0228  0.0768 -0.3804
 8680SOL    HW126618   3.942   6.290   5.753 -0.0059  0.0578  2.5464
 8680SOL    HW226619   4.057   6.205   5.804  0.6473 -1.4409 -1.1268
 8681SOL     OW26620   6.077   1.970   1.324 -0.5663 -0.0564 -0.2812
 8681SOL    HW126621   6.042   1.992   1.410  1.9557 -0.7831  1.0401
 8681SOL    HW226622   6.137   1.897   1.340 -0.0635 -0.2657 -2.6699
 8682SOL     OW26623   0.611   9.685   6.108 -0.6308  0.7784  0.6293
 8682SOL    HW126624   0.572   9.700   6.194 -0.8072  0.5897  0.5831
 8682SOL    HW226625   0.540   9.648   6.055 -0.0490 -0.8692  0.9381
 8683SOL     OW26626   7.085   7.635   5.667  0.2358 -0.3587 -0.5491
 8683SOL    HW126627   7.074   7.683   5.749 -1.3407 -1.6633  0.0549
 8683SOL    HW226628   7.173   7.596   5.674  0.2565 -0.1680  0.3598
 8684SOL     OW26629   8.182   1.807   5.367 -0.0096 -0.3329  0.8156
 8684SOL    HW126630   8.131   1.729   5.349 -0.5739  0.0439  0.7484
 8684SOL    HW226631   8.174   1.821   5.461 -0.7739  0.2209  0.6805
 8685SOL     OW26632   6.960   8.044   0.019  0.4543  0.5448 -0.1421
 8685SOL    HW126633   6.915   8.125  -0.006 -0.9712 -0.0424  0.4334
 8685SOL    HW226634   6.892   7.977   0.015  1.7059 -0.7261 -1.0391
 8686SOL     OW26635   5.514   3.469   3.757  0.2684 -0.1531 -0.4110
 8686SOL    HW126636   5.577   3.453   3.828  0.4316 -0.8748 -0.7108
 8686SOL    HW226637   5.429   3.472   3.800  0.3950 -0.3077 -0.1460
 8687SOL     OW26638   0.570   9.769   8.127 -0.4149 -0.2558 -0.0125
 8687SOL    HW126639   0.499   9.820   8.166  0.0399 -0.0749  0.6144
 8687SOL    HW226640   0.544   9.677   8.140  0.3063 -0.2407  1.9345
 8688SOL     OW26641   1.620   9.399   5.253  0.1261 -0.6027  0.4608
 8688SOL    HW126642   1.541   9.370   5.297 -0.5800  1.1190  0.3959
 8688SOL    HW226643   1.658   9.464   5.312  0.4694 -0.0441 -0.3629
 8689SOL     OW26644   3.596   7.802   6.538 -0.0384 -1.1439 -0.2694
 8689SOL    HW126645   3.545   7.733   6.494 -0.6136  0.3768 -2.1244
 8689SOL    HW226646   3.538   7.877   6.540  1.6518  0.2753 -1.3115
 8690SOL     OW26647   7.467   8.361   2.376  0.6134  0.3443  0.3473
 8690SOL    HW126648   7.372   8.359   2.393  0.6118  0.8617  0.4092
 8690SOL    HW226649   7.484   8.278   2.331 -0.1834  0.9797 -1.2309
 8691SOL     OW26650   3.882   5.087   4.193 -0.3901 -0.1439  0.1799
 8691SOL    HW126651   3.940   5.124   4.126  0.6283 -1.2577  0.3953
 8691SOL    HW226652   3.809   5.049   4.144 -0.3691  0.2942 -0.1925
 8692SOL     OW26653   6.215   6.037   7.173  0.4937  0.0378  0.3937
 8692SOL    HW126654   6.132   6.075   7.143 -0.0632 -0.6433  0.9915
 8692SOL    HW226655   6.270   6.112   7.194 -0.3897  0.5258  1.0744
 8693SOL     OW26656   0.483   5.349   3.326 -0.0817  0.2346  0.2451
 8693SOL    HW126657   0.518   5.284   3.387  0.2469  0.9208  0.7970
 8693SOL    HW226658   0.559   5.392   3.289 -0.3121  0.9901  0.6350
 8694SOL     OW26659   3.275   0.482   5.181  0.0721 -0.1808  0.0558
 8694SOL    HW126660   3.367   0.458   5.188 -0.0223  0.0900  4.5521
 8694SOL    HW226661   3.274   0.578   5.184 -0.3536 -0.0184 -2.5889
 8695SOL     OW26662   2.933   2.706   1.555 -0.3677 -0.1643 -0.4715
 8695SOL    HW126663   2.998   2.774   1.572 -0.6505 -0.2523  1.1171
 8695SOL    HW226664   2.950   2.679   1.465  0.4604  1.2336 -0.7755
 8696SOL     OW26665   7.540   2.452   9.886  0.7966  0.1614  0.4355
 8696SOL    HW126666   7.539   2.404   9.968 -1.3784 -1.9311 -0.6740
 8696SOL    HW226667   7.471   2.517   9.895 -0.3064 -0.8853 -0.0872
 8697SOL     OW26668   5.280   1.181   6.261 -0.4132 -0.5094 -0.4564
 8697SOL    HW126669   5.314   1.262   6.223  1.0207 -0.1829  1.3718
 8697SOL    HW226670   5.239   1.208   6.343 -1.7345 -1.4103 -0.7918
 8698SOL     OW26671   9.439   8.511   4.344  0.5869 -0.0347  0.0255
 8698SOL    HW126672   9.347   8.485   4.355 -0.0170  1.9101  0.0913
 8698SOL    HW226673   9.441   8.602   4.374  2.2638  0.3861 -1.2097
 8699SOL     OW26674   8.865   7.597   7.890 -0.0556 -0.0806 -0.1152
 8699SOL    HW126675   8.850   7.605   7.984 -0.8600  2.5392 -0.3888
 8699SOL    HW226676   8.944   7.648   7.874 -0.0724 -0.2921 -0.9175
 8700SOL     OW26677   4.929   8.147   3.801  0.3394  0.0898 -0.7835
 8700SOL    HW126678   4.850   8.181   3.843  1.1017  1.0445 -0.0939
 8700SOL    HW226679   4.947   8.209   3.730  0.0644 -0.5393 -1.4231
 8701SOL     OW26680   2.254  -0.001   4.297  0.7084  0.2598  0.2165
 8701SOL    HW126681   2.222   0.036   4.214  0.3618 -0.3292  0.0873
 8701SOL    HW226682   2.203   0.044   4.364 -0.1058 -0.3646  0.0327
 8702SOL     OW26683   6.566   7.640   3.296 -0.8214  0.2301  0.0920
 8702SOL    HW126684   6.622   7.631   3.219  0.9341 -1.2494  1.4545
 8702SOL    HW226685   6.544   7.551   3.320  0.4677  0.4917  2.5240
 8703SOL     OW26686   3.760   6.016   5.498  0.7414  0.2189 -0.3671
 8703SOL    HW126687   3.816   5.946   5.531 -0.3449 -0.6076 -0.2054
 8703SOL    HW226688   3.742   5.991   5.407 -1.4270 -0.9454  0.3085
 8704SOL     OW26689   5.853   2.931   9.775  0.0918  0.0476 -0.4952
 8704SOL    HW126690   5.923   2.867   9.780  0.4503  0.4734  0.1181
 8704SOL    HW226691   5.793   2.897   9.709  0.2577 -0.9328 -0.1493
 8705SOL     OW26692   4.646   2.709   9.685 -0.4938 -0.0764  0.3681
 8705SOL    HW126693   4.608   2.797   9.691 -0.2842  0.0090  0.4601
 8705SOL    HW226694   4.663   2.696   9.592  0.3978  0.3809  0.4556
 8706SOL     OW26695   8.621   8.065   0.131 -0.1738 -0.2567  0.3981
 8706SOL    HW126696   8.650   8.119   0.205 -0.6519  0.7909 -0.1628
 8706SOL    HW226697   8.689   8.077   0.065  0.0406 -0.8626  0.5017
 8707SOL     OW26698   1.640   6.042   6.348 -0.0706  0.9197  0.0777
 8707SOL    HW126699   1.607   6.122   6.307 -1.3274  0.7176  0.6690
 8707SOL    HW226700   1.668   6.070   6.435  0.0955  0.8342  0.0524
 8708SOL     OW26701   4.619   2.650   6.055 -0.0587 -0.7093 -0.1593
 8708SOL    HW126702   4.572   2.608   6.127  0.9692  1.2333  1.7966
 8708SOL    HW226703   4.605   2.744   6.070  0.0723 -0.2435 -2.6292
 8709SOL     OW26704   2.734   3.558   4.108  0.2995 -0.1891 -0.4691
 8709SOL    HW126705   2.770   3.520   4.029  1.8976 -0.1574  0.2147
 8709SOL    HW226706   2.760   3.498   4.178  1.7765  1.4195  0.4611
 8710SOL     OW26707   8.009   9.254   0.694 -0.1386  0.0664  0.0263
 8710SOL    HW126708   7.987   9.320   0.760 -2.1189  0.4292 -0.9172
 8710SOL    HW226709   8.072   9.297   0.636  1.5263 -0.2172  1.5508
 8711SOL     OW26710   6.300   0.706   4.473  0.1019  0.1005  0.6049
 8711SOL    HW126711   6.332   0.618   4.454 -2.5584 -0.9902  0.6620
 8711SOL    HW226712   6.311   0.753   4.390  0.4039 -0.6774  0.1866
 8712SOL     OW26713   3.238   9.362   4.768 -0.3192 -0.4434 -0.3551
 8712SOL    HW126714   3.326   9.345   4.736  0.1214  1.3174 -0.2043
 8712SOL    HW226715   3.247   9.367   4.863 -0.4731  0.1318 -0.3622
 8713SOL     OW26716   1.734   5.463   9.805 -0.1604 -0.0415  0.3022
 8713SOL    HW126717   1.716   5.370   9.791  0.9375 -0.1459 -0.5468
 8713SOL    HW226718   1.728   5.502   9.717 -1.7231  0.9123  0.7951
 8714SOL     OW26719   9.965   7.490   6.717 -0.3413 -0.2476 -0.0594
 8714SOL    HW126720   9.883   7.442   6.713 -0.4203 -0.0777 -0.4399
 8714SOL    HW226721   9.993   7.500   6.626 -0.5603  0.8370 -0.0218
 8715SOL     OW26722   7.230   0.070   8.854  0.2382  0.3509 -0.1328
 8715SOL    HW126723   7.188   0.022   8.925 -0.7248  0.9895 -0.2551
 8715SOL    HW226724   7.241   0.159   8.887  2.4281 -0.0121  0.2579
 8716SOL     OW26725   3.271   4.089   6.430  0.0802 -0.0534  0.2298
 8716SOL    HW126726   3.317   4.099   6.347 -0.2326 -0.0830  0.0517
 8716SOL    HW226727   3.329   4.035   6.484  0.0228 -0.5214 -0.1758
 8717SOL     OW26728   2.655   4.561   6.778  0.0270 -0.2274 -0.0305
 8717SOL    HW126729   2.710   4.601   6.711  0.8237 -2.3238 -0.7301
 8717SOL    HW226730   2.696   4.584   6.861 -0.9300  2.3432 -0.1807
 8718SOL     OW26731   4.457   8.175   9.601  0.0222  0.2640  0.7291
 8718SOL    HW126732   4.451   8.153   9.507 -1.0074 -0.7120  0.9998
 8718SOL    HW226733   4.411   8.258   9.609 -1.6700 -0.6040  0.6351
 8719SOL     OW26734   5.126   7.653   4.835  0.3610  0.0261 -0.3340
 8719SOL    HW126735   5.143   7.587   4.768 -0.3138 -1.4569  0.8933
 8719SOL    HW226736   5.206   7.656   4.887 -0.0896 -0.8850  0.4473
 8720SOL     OW26737   4.421   3.820   9.033 -0.1212 -0.0282  0.2894
 8720SOL    HW126738   4.373   3.902   9.044  1.5073  0.9831  0.2282
 8720SOL    HW226739   4.448   3.820   8.941 -1.2141 -1.3002 -0.0633
 8721SOL     OW26740   1.996   2.312   7.512 -0.0772 -0.5061 -0.1936
 8721SOL    HW126741   1.997   2.306   7.608 -0.2609 -1.3531 -0.2327
 8721SOL    HW226742   1.981   2.404   7.494  0.1570 -0.3007  0.5942
 8722SOL     OW26743   1.004   3.004   7.488 -0.3975  0.1898 -0.3809
 8722SOL    HW126744   0.927   2.977   7.439 -0.4083 -1.0389  0.2808
 8722SOL    HW226745   0.974   3.011   7.578 -0.0957  1.2708 -0.3489
 8723SOL     OW26746   0.050   0.111   9.161  0.4480  0.6657  0.3494
 8723SOL    HW126747   0.043   0.069   9.075  0.1120  1.2052  0.1082
 8723SOL    HW226748   0.139   0.090   9.191  0.6860  0.7561 -0.2758
 8724SOL     OW26749   7.237   0.288   0.158  0.2259 -0.6629  0.0330
 8724SOL    HW126750   7.202   0.259   0.073  4.2931 -3.0153 -1.1185
 8724SOL    HW226751   7.166   0.270   0.220 -1.7780 -1.9300 -2.4178
 8725SOL     OW26752   6.430   0.486   0.515  0.1232  0.3504  0.1847
 8725SOL    HW126753   6.521   0.514   0.507  0.5136 -1.0573 -0.5985
 8725SOL    HW226754   6.422   0.459   0.607  0.3949  0.7408  0.3306
 8726SOL     OW26755   1.368   0.142   6.753  0.7168 -0.0983  0.1626
 8726SOL    HW126756   1.421   0.063   6.741  0.1869 -0.1172 -2.7258
 8726SOL    HW226757   1.429   0.214   6.736  0.2572 -0.0818 -1.6589
 8727SOL     OW26758   8.280   9.375   8.172 -0.4041 -0.2230  0.1397
 8727SOL    HW126759   8.208   9.385   8.108 -0.5563  1.8436  0.5574
 8727SOL    HW226760   8.349   9.433   8.139  0.4146 -0.8840  0.6584
 8728SOL     OW26761   1.334   7.792   0.553 -0.3058 -0.0647 -0.3924
 8728SOL    HW126762   1.269   7.832   0.496  1.3562  0.6364 -1.8915
 8728SOL    HW226763   1.392   7.744   0.494  0.4057 -0.9062  0.9240
 8729SOL     OW26764   2.940   5.457   8.888 -0.4370  0.0244 -0.2529
 8729SOL    HW126765   2.866   5.402   8.863  0.1046 -0.1064 -1.6554
 8729SOL    HW226766   2.909   5.547   8.874 -0.4123 -0.0207 -0.5934
 8730SOL     OW26767   1.121   5.753   5.028 -0.2450  0.3175 -0.8038
 8730SOL    HW126768   1.129   5.680   5.089  0.2418  1.3773  0.4618
 8730SOL    HW226769   1.180   5.731   4.956 -0.5692 -0.8042 -0.7474
 8731SOL     OW26770   9.087   6.866   3.171  0.2039  0.3618  0.5693
 8731SOL    HW126771   9.096   6.771   3.174 -0.1858  0.3424  1.4843
 8731SOL    HW226772   9.065   6.891   3.261  1.1723  1.4050  0.5475
 8732SOL     OW26773   7.811   5.099   7.673  0.1738 -0.0793 -0.2231
 8732SOL    HW126774   7.760   5.177   7.696  1.2184  0.4356  0.4394
 8732SOL    HW226775   7.791   5.084   7.580 -0.1793  0.8774 -0.3150
 8733SOL     OW26776   8.807   3.367   2.372  0.3144 -0.0764 -0.2311
 8733SOL    HW126777   8.798   3.453   2.331 -0.3330 -1.8564 -4.3085
 8733SOL    HW226778   8.901   3.356   2.384  0.6815  0.1879 -2.3599
 8734SOL     OW26779   5.209   3.187   8.873  0.2247 -0.5511  0.1084
 8734SOL    HW126780   5.216   3.261   8.934  3.2456 -1.6248  1.2070
 8734SOL    HW226781   5.242   3.222   8.790 -0.5434 -0.0656 -0.0037
 8735SOL     OW26782   4.737   7.687   1.893 -0.1136  0.2394 -0.2695
 8735SOL    HW126783   4.664   7.720   1.946  1.1476  0.1267  1.6340
 8735SOL    HW226784   4.705   7.605   1.855 -1.6081  1.1573 -1.0791
 8736SOL     OW26785   3.086   0.980   9.849 -0.6168  0.0107 -0.1792
 8736SOL    HW126786   3.111   1.072   9.839  0.2219 -0.2138 -0.2128
 8736SOL    HW226787   3.058   0.953   9.762  2.1625 -0.6213 -0.9788
 8737SOL     OW26788   4.671   6.483   2.308 -0.2997  0.1800  0.4715
 8737SOL    HW126789   4.672   6.427   2.385  3.2327 -1.3945 -0.5073
 8737SOL    HW226790   4.693   6.424   2.236 -1.4412  1.9759 -1.4430
 8738SOL     OW26791   4.649   9.375   5.837 -0.5662 -0.6920 -0.4368
 8738SOL    HW126792   4.727   9.364   5.891 -0.1324 -0.6805 -1.0531
 8738SOL    HW226793   4.576   9.353   5.895 -0.0924 -0.9069  0.0807
 8739SOL     OW26794   4.947   8.955   7.920  0.4903 -0.3142  0.1192
 8739SOL    HW126795   4.851   8.962   7.923  0.4473 -0.7371 -0.1918
 8739SOL    HW226796   4.964   8.876   7.869  1.0098 -0.1904  0.0938
 8740SOL     OW26797   3.816   3.103   4.047  0.0987 -0.0224  0.0213
 8740SOL    HW126798   3.867   3.095   3.967 -1.1751  3.0190 -1.2671
 8740SOL    HW226799   3.854   3.178   4.092 -2.1097  1.3616 -0.2331
 8741SOL     OW26800   6.868   5.195   4.404 -0.0121 -0.4518  0.2876
 8741SOL    HW126801   6.811   5.232   4.471 -2.3750 -3.2534  0.0624
 8741SOL    HW226802   6.956   5.200   4.441 -0.8212  1.0429  2.1466
 8742SOL     OW26803   3.650   7.349   6.866  0.3725  0.1833 -0.2758
 8742SOL    HW126804   3.734   7.394   6.856  0.8741 -0.8335 -0.8006
 8742SOL    HW226805   3.668   7.259   6.840 -0.3966 -0.5439  1.5171
 8743SOL     OW26806   0.423   8.541   2.827  0.1454 -0.5317  0.2487
 8743SOL    HW126807   0.422   8.508   2.917  0.5389 -0.1305  0.4058
 8743SOL    HW226808   0.335   8.522   2.793 -0.3746  0.2963  1.0861
 8744SOL     OW26809   9.590   2.651   9.421 -0.2027  0.4457  0.1474
 8744SOL    HW126810   9.585   2.557   9.403 -0.2572  0.5929 -0.6566
 8744SOL    HW226811   9.539   2.663   9.501 -0.5247 -0.1567  0.0377
 8745SOL     OW26812   2.480   3.787   2.254 -0.5414 -0.2114 -0.4672
 8745SOL    HW126813   2.511   3.699   2.277  1.0958  0.0776 -1.4162
 8745SOL    HW226814   2.527   3.846   2.313  0.1414  0.1833 -1.3855
 8746SOL     OW26815   5.030   2.226   4.347  0.5150  0.1309 -0.2335
 8746SOL    HW126816   5.017   2.303   4.292  0.1314  1.1571  1.2126
 8746SOL    HW226817   4.942   2.195   4.366  0.6857 -1.4914 -1.8428
 8747SOL     OW26818   2.595   7.512   7.649  0.1673  0.4915 -0.1973
 8747SOL    HW126819   2.613   7.558   7.731  0.4027 -0.2852  0.1941
 8747SOL    HW226820   2.664   7.540   7.590  0.0422  0.9950 -0.1140
 8748SOL     OW26821   2.169   4.110   3.563  0.3347 -0.3652  0.1421
 8748SOL    HW126822   2.082   4.072   3.554  0.3401 -0.0313 -1.7902
 8748SOL    HW226823   2.222   4.042   3.604 -0.5427 -1.0258  0.1874
 8749SOL     OW26824   9.380   6.056   0.821 -0.8110 -0.4019  0.2933
 8749SOL    HW126825   9.352   6.143   0.850 -0.1705 -0.1207  0.0922
 8749SOL    HW226826   9.332   6.041   0.739  1.1652  0.9967 -1.2171
 8750SOL     OW26827   7.109   2.079   9.583 -0.8044 -0.6733  0.3822
 8750SOL    HW126828   7.056   2.036   9.516 -2.7849  1.0714  0.7336
 8750SOL    HW226829   7.083   2.171   9.580  1.9155  0.2179  0.9249
 8751SOL     OW26830   4.559   8.794   3.474  0.3165  0.3773  0.3054
 8751SOL    HW126831   4.572   8.749   3.391  0.6040  1.7176 -0.4166
 8751SOL    HW226832   4.521   8.728   3.532 -1.7822 -0.0928 -1.4670
 8752SOL     OW26833   6.512   9.033   1.347 -0.3662  0.6447  0.5310
 8752SOL    HW126834   6.441   9.000   1.293 -0.1726  0.0505  0.6342
 8752SOL    HW226835   6.473   9.103   1.399 -1.3915 -0.9426  2.0164
 8753SOL     OW26836   8.956   4.724   7.372  0.5427 -0.1673  0.1181
 8753SOL    HW126837   8.894   4.700   7.303 -0.1137  1.7431 -0.0171
 8753SOL    HW226838   9.042   4.709   7.333  0.1920 -1.4208 -0.2267
 8754SOL     OW26839   8.698   0.374   1.157  0.0399 -0.0654 -0.0650
 8754SOL    HW126840   8.774   0.319   1.137  0.7565  0.5577  0.8486
 8754SOL    HW226841   8.686   0.427   1.078 -1.2074 -2.0662 -1.3125
 8755SOL     OW26842   0.080   6.409   7.004  0.2766  0.1933 -0.9590
 8755SOL    HW126843  -0.014   6.425   7.016  0.8224  1.7006  1.8723
 8755SOL    HW226844   0.084   6.317   6.978 -1.8640 -0.9746  2.2128
 8756SOL     OW26845   7.162   0.870   1.380  0.4335 -0.0202 -0.1664
 8756SOL    HW126846   7.189   0.925   1.454 -1.2506 -0.5632  0.8856
 8756SOL    HW226847   7.230   0.885   1.314  0.6085  2.5001  0.4713
 8757SOL     OW26848   4.031   8.417   4.326 -0.2115 -0.6684 -0.6478
 8757SOL    HW126849   3.971   8.482   4.289  1.9979  0.5631 -2.3070
 8757SOL    HW226850   4.117   8.460   4.324  0.8943 -2.6568  0.8246
 8758SOL     OW26851   5.005   7.436   7.081  0.2110 -0.2159  0.0808
 8758SOL    HW126852   4.911   7.423   7.096  0.3083  0.2142  1.2068
 8758SOL    HW226853   5.014   7.531   7.070  0.8858  0.2054  3.3263
 8759SOL     OW26854   8.428   3.479   4.119  0.0041 -0.5852  0.2875
 8759SOL    HW126855   8.504   3.480   4.059  0.0027  2.2689  0.1862
 8759SOL    HW226856   8.428   3.391   4.155  1.1356 -1.8796 -2.5029
 8760SOL     OW26857   2.429   1.088   5.568 -0.2575  0.1582 -0.2559
 8760SOL    HW126858   2.454   1.026   5.636  2.2023  1.0066 -0.2767
 8760SOL    HW226859   2.367   1.147   5.612 -0.2648 -0.5061  0.6592
 8761SOL     OW26860   3.997   8.192   6.960 -0.8622  0.1029  0.0348
 8761SOL    HW126861   4.076   8.235   6.991 -1.3405  1.3557 -0.3741
 8761SOL    HW226862   4.026   8.108   6.926  0.2927  0.5587 -0.1371
 8762SOL     OW26863   6.213   6.131   6.317 -0.1632  0.5996  0.9662
 8762SOL    HW126864   6.133   6.123   6.264  0.9027  0.9424 -0.7689
 8762SOL    HW226865   6.252   6.044   6.314  1.5394  1.3448 -1.6236
 8763SOL     OW26866   7.842   0.920   6.560  0.4165 -0.2792  0.3939
 8763SOL    HW126867   7.758   0.916   6.514  1.9841  0.0535 -2.7346
 8763SOL    HW226868   7.879   0.832   6.551  0.1948 -0.6331  2.3692
 8764SOL     OW26869   1.470   4.509   3.881  0.2051  0.2228 -0.1708
 8764SOL    HW126870   1.401   4.451   3.848  1.2839  0.9842 -4.3425
 8764SOL    HW226871   1.527   4.451   3.931 -0.1187 -1.8522 -2.0262
 8765SOL     OW26872   1.116   0.251   3.181 -0.4651  0.1814 -0.1386
 8765SOL    HW126873   1.100   0.199   3.260 -1.7601 -1.1043 -1.1737
 8765SOL    HW226874   1.039   0.308   3.175  1.0651  2.5078  1.1222
 8766SOL     OW26875   7.242   8.594   7.754  0.7853  0.1225 -0.3890
 8766SOL    HW126876   7.189   8.574   7.676 -0.3920 -1.5204  0.7850
 8766SOL    HW226877   7.184   8.647   7.809  1.5704  1.1630 -0.5228
 8767SOL     OW26878   3.468   0.389   9.345 -0.1683  0.1065  0.1730
 8767SOL    HW126879   3.516   0.368   9.265 -0.2099 -0.8513  0.3878
 8767SOL    HW226880   3.431   0.305   9.373  0.3214  0.3111  1.5030
 8768SOL     OW26881   1.827   3.976   0.333 -0.3208 -0.2791  0.0960
 8768SOL    HW126882   1.913   3.934   0.337 -0.1688 -0.1360 -1.1093
 8768SOL    HW226883   1.820   4.027   0.413 -0.4192 -2.4001  1.5222
 8769SOL     OW26884   9.462   0.575   8.341  0.3500  0.5099 -0.6159
 8769SOL    HW126885   9.501   0.657   8.370  0.0149  0.7774 -0.9158
 8769SOL    HW226886   9.526   0.538   8.280  1.3509 -0.3671  0.9202
 8770SOL     OW26887   1.296   8.539   0.217  0.2569 -0.1198  0.7098
 8770SOL    HW126888   1.383   8.526   0.179 -0.0852  1.2709 -0.6210
 8770SOL    HW226889   1.289   8.633   0.233 -1.6508  0.0824 -0.9285
 8771SOL     OW26890   6.637   4.325   3.010  0.2321  0.4525  0.8009
 8771SOL    HW126891   6.572   4.291   3.070  1.1570 -2.1056  0.5203
 8771SOL    HW226892   6.702   4.368   3.065 -0.6157  1.1315  1.2744
 8772SOL     OW26893   8.032   8.497   3.888  0.1014  0.8343  0.2174
 8772SOL    HW126894   8.055   8.527   3.800  0.5206  2.8142  0.9702
 8772SOL    HW226895   8.096   8.428   3.907  2.1733  2.6560  0.2218
 8773SOL     OW26896   7.581   2.431   0.894 -0.0589 -0.0958 -0.3093
 8773SOL    HW126897   7.601   2.423   0.987 -0.3112  0.9803 -0.1434
 8773SOL    HW226898   7.541   2.347   0.870 -2.5840  0.5654  1.2331
 8774SOL     OW26899   2.067   7.843   8.643  0.1782  0.7617 -0.4987
 8774SOL    HW126900   2.101   7.909   8.702 -1.0300  0.1327  0.9617
 8774SOL    HW226901   1.990   7.884   8.604 -1.1649 -0.0708  1.1666
 8775SOL     OW26902   9.532   8.315   2.527 -0.4697 -0.2094  0.1716
 8775SOL    HW126903   9.457   8.373   2.541  0.4269  0.8763  0.6281
 8775SOL    HW226904   9.538   8.305   2.432 -0.1081  1.1796  0.0332
 8776SOL     OW26905   8.123   6.456   8.967 -0.1587 -0.3284  0.1240
 8776SOL    HW126906   8.154   6.438   9.056  1.4210 -0.1163 -0.3449
 8776SOL    HW226907   8.039   6.411   8.961 -0.1830 -0.5313  1.6467
 8777SOL     OW26908   5.850   8.870   3.333  0.3677 -0.0862 -0.2888
 8777SOL    HW126909   5.917   8.890   3.398 -1.9182  0.7311  1.9941
 8777SOL    HW226910   5.798   8.800   3.372  0.3479 -1.3330 -2.3917
 8778SOL     OW26911   4.093   1.862   2.036 -0.0987  0.4674  0.2211
 8778SOL    HW126912   4.091   1.946   2.081  1.5968  0.2312  0.8100
 8778SOL    HW226913   4.149   1.876   1.959  1.4923 -0.4669  1.1549
 8779SOL     OW26914   7.379   4.322   3.516 -1.0798 -0.0182  0.8230
 8779SOL    HW126915   7.357   4.388   3.582 -1.7210 -0.4659  1.0680
 8779SOL    HW226916   7.294   4.286   3.489 -0.8326  0.1907 -0.2878
 8780SOL     OW26917   3.605   2.475   2.759  0.3789 -0.6670 -0.3259
 8780SOL    HW126918   3.648   2.553   2.794  1.6541 -1.0749 -0.9139
 8780SOL    HW226919   3.513   2.499   2.751  0.3884  0.0683  1.4609
 8781SOL     OW26920   9.254   5.720   0.259 -0.3774  0.8984 -0.2630
 8781SOL    HW126921   9.217   5.757   0.179 -1.6323  0.9106  0.3019
 8781SOL    HW226922   9.348   5.736   0.251 -0.6324  2.1950 -1.0734
 8782SOL     OW26923   4.773   8.302   8.978 -0.2880  0.3757  0.1058
 8782SOL    HW126924   4.778   8.342   9.065  1.0113  0.3348  0.0699
 8782SOL    HW226925   4.846   8.240   8.975 -1.1454 -0.6413 -0.5300
 8783SOL     OW26926   3.315   4.711   8.338  0.3207  0.3480  0.0769
 8783SOL    HW126927   3.292   4.800   8.365 -1.0013 -0.1539  0.7232
 8783SOL    HW226928   3.376   4.681   8.406  0.0080  0.4246  0.3932
 8784SOL     OW26929   1.649   9.905   4.205 -0.2482 -0.2741 -0.6997
 8784SOL    HW126930   1.660   9.946   4.119  0.7899 -0.4909 -0.6890
 8784SOL    HW226931   1.654   9.811   4.187  2.4028 -0.3024 -0.1541
 8785SOL     OW26932   2.599   6.197   2.727 -0.4340  0.1239 -0.0962
 8785SOL    HW126933   2.510   6.205   2.693 -0.1342 -0.6764 -1.1440
 8785SOL    HW226934   2.596   6.236   2.814 -2.0237 -0.6995  0.2553
 8786SOL     OW26935   4.871   1.397   7.516 -0.4224  0.0443  0.0959
 8786SOL    HW126936   4.791   1.381   7.566 -0.2200  0.5397  0.6038
 8786SOL    HW226937   4.842   1.441   7.437 -0.7228 -0.4674 -0.0793
 8787SOL     OW26938   6.725   5.499   4.141 -0.1361  0.4225 -0.0816
 8787SOL    HW126939   6.706   5.567   4.077  0.6038 -0.7397 -1.5904
 8787SOL    HW226940   6.646   5.495   4.196 -1.1598  0.8416 -1.4756
 8788SOL     OW26941   9.792   2.702   7.204  0.1015  0.0970 -0.3507
 8788SOL    HW126942   9.862   2.636   7.200 -2.2781 -2.5739 -0.7275
 8788SOL    HW226943   9.793   2.732   7.295  0.6584 -1.1595  0.0875
 8789SOL     OW26944   8.536   1.219   8.803  0.2047  0.0858  0.4482
 8789SOL    HW126945   8.617   1.178   8.772  0.6136  1.5293 -0.4957
 8789SOL    HW226946   8.468   1.152   8.790  0.9857 -0.5980 -0.1884
 8790SOL     OW26947   0.932   2.089   0.407  0.1473  0.0459  0.5028
 8790SOL    HW126948   0.906   2.013   0.458  1.1592  0.4009  1.5804
 8790SOL    HW226949   0.945   2.159   0.472  1.6888  0.4480 -0.1810
 8791SOL     OW26950   3.710   8.220   2.278  0.3022 -0.0513 -0.2512
 8791SOL    HW126951   3.615   8.214   2.285  0.1675  0.7300 -1.0734
 8791SOL    HW226952   3.725   8.297   2.222  1.4039 -0.3749 -0.4399
 8792SOL     OW26953   4.636   6.825   2.725  0.0577 -0.0757  0.2901
 8792SOL    HW126954   4.678   6.874   2.654 -1.3406  0.6254 -0.0743
 8792SOL    HW226955   4.700   6.827   2.796  0.0322  2.3746  0.3249
 8793SOL     OW26956   8.402   5.508   0.034  0.4383 -0.7386  0.1984
 8793SOL    HW126957   8.376   5.501   0.126 -1.0446  1.3944  0.0371
 8793SOL    HW226958   8.489   5.470   0.030  0.4761 -1.0119  2.4587
 8794SOL     OW26959   9.669   6.130   1.924  0.0655  0.0437 -0.3133
 8794SOL    HW126960   9.618   6.194   1.874 -1.7657 -0.7429  0.4927
 8794SOL    HW226961   9.606   6.064   1.951  1.5916 -1.1801  0.4170
 8795SOL     OW26962   5.602   3.333   1.752  0.5482 -0.1359  0.4208
 8795SOL    HW126963   5.544   3.349   1.827 -0.4710 -2.2627  0.1712
 8795SOL    HW226964   5.547   3.285   1.690  1.3996  1.4464 -1.6654
 8796SOL     OW26965   3.601   9.451   1.328 -0.5317 -0.2908  0.2822
 8796SOL    HW126966   3.516   9.490   1.348 -0.9893 -0.6316 -0.9139
 8796SOL    HW226967   3.664   9.519   1.349 -1.2638  0.8455 -1.0286
 8797SOL     OW26968   1.106   4.305   8.191 -0.2187 -0.1223  0.4815
 8797SOL    HW126969   1.174   4.344   8.135  1.1602  0.2383  2.2994
 8797SOL    HW226970   1.136   4.215   8.205 -0.9197 -0.4194  0.0845
 8798SOL     OW26971   2.957   6.610   2.409  0.1985 -0.3681  0.2120
 8798SOL    HW126972   2.987   6.693   2.370  0.2777  0.5269  2.0934
 8798SOL    HW226973   3.010   6.600   2.488 -0.7289 -1.5489  0.7127
 8799SOL     OW26974   2.564   5.032   8.057 -0.2467 -0.0208  0.0428
 8799SOL    HW126975   2.596   4.949   8.092  1.1329  0.2731 -0.4544
 8799SOL    HW226976   2.507   5.007   7.984  1.0846 -0.5381 -0.8527
 8800SOL     OW26977   6.073   2.883   2.890  0.3024  0.0385 -0.1340
 8800SOL    HW126978   6.104   2.868   2.979  0.2014  0.2521 -0.0628
 8800SOL    HW226979   5.978   2.876   2.896  0.0627  2.5998  0.2842
 8801SOL     OW26980   5.545   2.061   6.578 -0.1566  0.9099  0.0325
 8801SOL    HW126981   5.474   2.033   6.635  1.6564 -2.4081  0.9519
 8801SOL    HW226982   5.506   2.065   6.490 -1.4319 -1.2847  0.4284
 8802SOL     OW26983   1.133   0.449   3.825 -0.0290  0.2238 -0.1321
 8802SOL    HW126984   1.209   0.502   3.800 -0.1459  0.4844  0.0520
 8802SOL    HW226985   1.096   0.496   3.900  0.4601 -0.6640  0.7040
 8803SOL     OW26986   2.384   4.913   6.050 -0.0320 -0.2280  0.3581
 8803SOL    HW126987   2.327   4.978   6.009  1.3796  0.1267 -1.1459
 8803SOL    HW226988   2.465   4.961   6.069  0.1179 -0.9417  1.5929
 8804SOL     OW26989   1.651   3.476   8.483  0.0299  0.1078 -0.2134
 8804SOL    HW126990   1.651   3.476   8.387 -2.6739  0.6626 -0.2927
 8804SOL    HW226991   1.558   3.476   8.507  0.5772 -2.5602  2.4672
 8805SOL     OW26992   8.106   0.229   3.630 -0.0774 -0.5715  0.2362
 8805SOL    HW126993   8.176   0.265   3.576  0.7775 -0.7301  1.2114
 8805SOL    HW226994   8.029   0.232   3.574  0.2098  1.6564 -0.1352
 8806SOL     OW26995   2.956   9.886   7.318 -0.0810 -0.4434  0.1205
 8806SOL    HW126996   2.982   9.973   7.287  0.6048  0.1012  2.0625
 8806SOL    HW226997   2.887   9.859   7.258  0.7363  0.7778 -1.4426
 8807SOL     OW26998   3.244   9.370   6.478 -0.2853 -0.4062 -0.1133
 8807SOL    HW126999   3.256   9.412   6.393  0.1504 -2.3818 -1.1077
 8807SOL    HW227000   3.154   9.337   6.477 -0.8946  1.1110  0.9827
 8808SOL     OW27001   7.003   5.816   6.500 -0.6563  0.0902 -0.0333
 8808SOL    HW127002   7.027   5.743   6.442  0.8881  1.3366 -1.0509
 8808SOL    HW227003   7.040   5.791   6.585  2.5618  0.9193 -1.0456
 8809SOL     OW27004   1.213   3.855   7.847 -0.3794 -0.5539 -0.1158
 8809SOL    HW127005   1.122   3.844   7.876 -0.2801 -1.0634  0.0120
 8809SOL    HW227006   1.247   3.926   7.902 -0.5293 -0.7556  0.2451
 8810SOL     OW27007   0.623   3.556   7.924  0.1901  0.1135 -0.4591
 8810SOL    HW127008   0.686   3.624   7.899 -0.7345  0.6500 -1.4479
 8810SOL    HW227009   0.602   3.512   7.842  0.7682 -1.3913  0.1783
 8811SOL     OW27010   1.605   4.606   1.469 -0.7130  0.3972 -0.4515
 8811SOL    HW127011   1.603   4.685   1.415 -0.6897 -0.1319 -1.2525
 8811SOL    HW227012   1.530   4.555   1.438  0.6013 -0.9437 -1.6182
 8812SOL     OW27013   1.052   0.063   3.834 -0.1132  0.2510 -0.4233
 8812SOL    HW127014   1.074   0.101   3.919 -0.1446 -0.9778  0.1584
 8812SOL    HW227015   0.960   0.083   3.822  0.1735  1.4285 -0.7125
 8813SOL     OW27016   6.475   5.279   9.890 -0.2956  0.3844  0.7554
 8813SOL    HW127017   6.565   5.276   9.921  1.2075  1.1896 -2.9945
 8813SOL    HW227018   6.479   5.330   9.809 -4.1586  0.4919  0.4362
 8814SOL     OW27019   5.578   2.662   7.726  0.5198 -0.4254  0.5176
 8814SOL    HW127020   5.500   2.616   7.757 -0.9970  0.9385 -1.0744
 8814SOL    HW227021   5.575   2.654   7.631 -0.7647  4.1152 -0.0634
 8815SOL     OW27022   8.733   1.487   9.045  0.1957 -0.1994  0.9331
 8815SOL    HW127023   8.638   1.484   9.031  0.4076 -3.0519 -0.6646
 8815SOL    HW227024   8.766   1.540   8.972 -0.0927  0.2937  1.1515
 8816SOL     OW27025   6.179   6.631   3.678  0.1645 -0.9350  0.2792
 8816SOL    HW127026   6.185   6.628   3.773 -1.9044 -0.2734  0.4890
 8816SOL    HW227027   6.088   6.658   3.660  0.3668 -1.4541 -1.8814
 8817SOL     OW27028   6.995   0.812   3.692  0.6025 -0.0892 -0.3027
 8817SOL    HW127029   6.974   0.763   3.612 -0.0568 -0.7796  0.2859
 8817SOL    HW227030   6.928   0.880   3.697  0.3637 -0.3349 -0.1009
 8818SOL     OW27031   3.370   8.361   8.482  0.5174  0.7153 -0.2373
 8818SOL    HW127032   3.285   8.387   8.444  1.3682  1.7539 -1.5346
 8818SOL    HW227033   3.372   8.266   8.472 -0.4100  0.6941 -0.3756
 8819SOL     OW27034   5.472   3.937   2.804 -0.7598  0.3364 -0.0343
 8819SOL    HW127035   5.551   3.985   2.776  1.4523 -3.8180 -1.7868
 8819SOL    HW227036   5.450   3.975   2.888  3.5488  1.4033  0.8920
 8820SOL     OW27037   8.946   7.804   3.456  0.0465 -0.0812  0.1678
 8820SOL    HW127038   8.906   7.849   3.531 -0.4462 -0.1454 -0.0502
 8820SOL    HW227039   9.016   7.863   3.428 -0.3253  0.3612  0.1449
 8821SOL     OW27040   1.165   8.274   1.257  0.5298  0.4300 -0.0721
 8821SOL    HW127041   1.205   8.204   1.204  1.2690  0.4717  0.4157
 8821SOL    HW227042   1.212   8.353   1.230  1.3390  0.3570  1.0662
 8822SOL     OW27043   0.836   1.886   0.559  0.2030 -0.2478  0.2264
 8822SOL    HW127044   0.770   1.818   0.572  0.7208 -0.5165  1.5484
 8822SOL    HW227045   0.841   1.931   0.643  1.4334  0.0168  0.0278
 8823SOL     OW27046   7.112   3.332   0.483 -0.5744  0.6525 -0.5808
 8823SOL    HW127047   7.148   3.332   0.394  0.6061 -0.0035 -0.1225
 8823SOL    HW227048   7.050   3.259   0.482  1.2513 -1.0026 -0.2109
 8824SOL     OW27049   0.503   6.427   5.806  0.4462  0.2352  0.6834
 8824SOL    HW127050   0.552   6.365   5.860  1.3307  1.3678  1.2304
 8824SOL    HW227051   0.567   6.459   5.742  0.2960  1.3005  1.0356
 8825SOL     OW27052   7.838   6.543   1.718 -0.6231 -0.4216  0.0530
 8825SOL    HW127053   7.845   6.639   1.717  1.1783 -0.5032 -1.4257
 8825SOL    HW227054   7.759   6.525   1.667 -0.1332  0.3028 -1.0269
 8826SOL     OW27055   3.379   2.027   9.599  0.1217  0.0715  0.0077
 8826SOL    HW127056   3.415   2.074   9.525  2.1228 -0.1484  0.7833
 8826SOL    HW227057   3.334   2.094   9.651  0.0260  0.4859 -0.6035
 8827SOL     OW27058   8.597   2.691   3.039  0.3172 -0.3927  0.7145
 8827SOL    HW127059   8.666   2.688   3.105 -0.2361  0.3291  1.3354
 8827SOL    HW227060   8.536   2.758   3.070  0.5814  0.7378 -1.0551
 8828SOL     OW27061   1.043   6.418   2.581  0.1505 -0.8715  0.1425
 8828SOL    HW127062   0.972   6.430   2.519 -2.7874  2.2530  3.6032
 8828SOL    HW227063   1.011   6.352   2.643  0.1223  0.5279  1.7085
 8829SOL     OW27064   8.975   6.190   1.254  0.3398  0.1726  0.0299
 8829SOL    HW127065   8.928   6.259   1.301  1.3015 -0.3277  1.8087
 8829SOL    HW227066   8.964   6.112   1.308  0.6403 -0.7005 -1.1095
 8830SOL     OW27067   1.439   9.435   3.486 -0.4121  0.5286  0.1629
 8830SOL    HW127068   1.457   9.441   3.392  0.4366 -0.2279  0.2575
 8830SOL    HW227069   1.345   9.418   3.491 -0.6440  1.5327 -0.5009
 8831SOL     OW27070   0.604   4.507   2.431 -0.0650 -0.3394 -0.2819
 8831SOL    HW127071   0.686   4.462   2.413 -0.0495 -0.3156 -0.2710
 8831SOL    HW227072   0.555   4.448   2.488 -0.0038 -0.2992 -0.1890
 8832SOL     OW27073   4.301   5.411   7.630 -0.6449  0.1466  0.3285
 8832SOL    HW127074   4.372   5.466   7.596  1.2243 -2.0019  0.4972
 8832SOL    HW227075   4.266   5.367   7.553 -1.1834  0.5303  0.3545
 8833SOL     OW27076   2.948   9.622   4.288  0.4210  0.7266  0.3366
 8833SOL    HW127077   3.022   9.678   4.314  0.8231  0.2094  0.3285
 8833SOL    HW227078   2.875   9.683   4.278  0.9036  1.2890  0.0942
 8834SOL     OW27079   7.833   1.451   5.935  0.7594 -0.1068  0.4766
 8834SOL    HW127080   7.798   1.494   5.857  1.4851 -0.2994  0.0377
 8834SOL    HW227081   7.869   1.368   5.903  2.8405  0.6548  0.6458
 8835SOL     OW27082   9.569   5.543   8.932  0.2339  1.2355  0.1454
 8835SOL    HW127083   9.509   5.507   8.997  0.4443  0.7401  0.0662
 8835SOL    HW227084   9.515   5.553   8.853  0.3850  0.2879 -0.0810
 8836SOL     OW27085   3.277   4.874   5.617  0.4224 -0.5224 -0.2696
 8836SOL    HW127086   3.263   4.877   5.712  0.5348 -1.1975 -0.2261
 8836SOL    HW227087   3.303   4.783   5.599  1.4960 -0.1246 -0.8017
 8837SOL     OW27088   2.280   4.210   6.809  0.5245  0.5977 -0.0314
 8837SOL    HW127089   2.258   4.133   6.860 -1.7206  0.0850 -1.6129
 8837SOL    HW227090   2.375   4.206   6.800  0.4656 -2.2073 -0.3625
 8838SOL     OW27091   7.110   0.784   2.345 -0.1220  0.5096 -0.2352
 8838SOL    HW127092   7.125   0.804   2.438 -0.8404  1.1176 -0.2409
 8838SOL    HW227093   7.018   0.806   2.331  0.4381  2.2270 -1.5359
 8839SOL     OW27094   0.268   6.636   4.666 -1.1336  0.3521 -0.4304
 8839SOL    HW127095   0.247   6.642   4.759  0.3236 -0.7458 -0.0053
 8839SOL    HW227096   0.225   6.556   4.637  0.9276 -1.0187  0.0712
 8840SOL     OW27097   9.656   9.321   1.928  0.0295  0.2164  0.2345
 8840SOL    HW127098   9.563   9.300   1.929 -0.2321  1.3465  0.5617
 8840SOL    HW227099   9.698   9.241   1.896 -1.0596 -0.2411 -0.0908
 8841SOL     OW27100   1.729   1.925   5.326  0.8360 -0.7957  0.3781
 8841SOL    HW127101   1.734   2.013   5.290 -0.0646 -0.2282  1.5712
 8841SOL    HW227102   1.669   1.932   5.400 -2.1055 -3.1278 -1.5359
 8842SOL     OW27103   5.161   0.613   5.015  0.2110 -0.2525  0.0969
 8842SOL    HW127104   5.080   0.610   5.066  1.3487 -1.0894  1.9654
 8842SOL    HW227105   5.162   0.530   4.967  0.0428 -0.3111  0.1947
 8843SOL     OW27106   7.055   4.843   2.919 -0.3721 -0.5867  0.0176
 8843SOL    HW127107   6.992   4.915   2.929 -0.3970 -0.7201  0.8868
 8843SOL    HW227108   7.081   4.847   2.827 -1.4967 -0.3999 -0.3160
 8844SOL     OW27109   5.909   5.100   6.350  0.4009 -0.1820 -0.3852
 8844SOL    HW127110   5.996   5.141   6.356  0.4721 -0.4924  0.9767
 8844SOL    HW227111   5.890   5.100   6.256  1.7285  0.1983 -0.6866
 8845SOL     OW27112   0.716   3.433   6.725  0.3418  0.1840  0.2824
 8845SOL    HW127113   0.679   3.440   6.813 -0.2097  0.7923  0.0149
 8845SOL    HW227114   0.700   3.519   6.685  1.3302  0.1913 -0.1279
 8846SOL     OW27115   9.920   4.143   0.413  0.4210  0.6550  0.1036
 8846SOL    HW127116  10.010   4.176   0.415  0.9665 -0.7638  1.7182
 8846SOL    HW227117   9.929   4.051   0.386 -0.3608  0.1188  1.5611
 8847SOL     OW27118   8.123   3.638   8.055 -0.7025  0.1040 -0.0466
 8847SOL    HW127119   8.161   3.590   7.981  0.7764 -0.0265  0.7514
 8847SOL    HW227120   8.101   3.570   8.119 -0.4013  0.3294  0.3038
 8848SOL     OW27121   5.131   5.716   0.728 -0.1550 -0.9262 -0.0897
 8848SOL    HW127122   5.083   5.783   0.776  0.7500 -0.6517  0.4734
 8848SOL    HW227123   5.190   5.765   0.670  1.3582 -1.1715  1.1696
 8849SOL     OW27124   3.538   3.456   9.134  0.2687 -0.3148  0.2696
 8849SOL    HW127125   3.456   3.413   9.110 -0.1946  0.2688  0.7613
 8849SOL    HW227126   3.542   3.448   9.229  1.6012 -1.7647  0.1400
 8850SOL     OW27127   5.348   2.213   2.293  0.0549  0.5812 -0.6311
 8850SOL    HW127128   5.258   2.245   2.296 -1.0859 -2.2659 -1.3781
 8850SOL    HW227129   5.376   2.227   2.203 -0.2200  0.0954 -0.7968
 8851SOL     OW27130   6.148   2.482   1.664 -0.1492  0.2068 -0.2153
 8851SOL    HW127131   6.131   2.434   1.583 -1.2269  3.2216 -1.9150
 8851SOL    HW227132   6.126   2.420   1.734  0.3921 -2.3497 -2.1570
 8852SOL     OW27133   9.863   1.732   4.489  0.6643  0.5895 -0.3639
 8852SOL    HW127134   9.880   1.702   4.399  0.3835 -0.3346 -0.1169
 8852SOL    HW227135   9.932   1.691   4.541  0.0732  0.1006  0.0337
 8853SOL     OW27136   6.226   0.238   1.553  0.1099 -0.0337 -0.2716
 8853SOL    HW127137   6.165   0.225   1.480  0.7067  3.6542 -1.6591
 8853SOL    HW227138   6.170   0.251   1.629 -0.8733  1.8849 -1.2588
 8854SOL     OW27139   4.111   8.600   3.517 -0.3081 -0.4209  0.1818
 8854SOL    HW127140   4.037   8.656   3.494 -1.4930 -2.3372 -1.0142
 8854SOL    HW227141   4.174   8.613   3.446 -0.7319 -0.8251 -0.2781
 8855SOL     OW27142   0.573   5.707   0.219  0.3159  0.3999  0.0729
 8855SOL    HW127143   0.625   5.763   0.162  2.9441 -1.2111  0.6803
 8855SOL    HW227144   0.527   5.648   0.160 -1.2396  2.0730 -0.4926
 8856SOL     OW27145   1.473   7.129   4.015 -0.2676  0.2172 -0.0405
 8856SOL    HW127146   1.497   7.054   3.960  0.3473 -0.1299  0.6845
 8856SOL    HW227147   1.546   7.190   4.007 -0.2927  0.2789  0.1939
 8857SOL     OW27148   3.335   4.037   2.938  0.0529 -0.0230  0.0024
 8857SOL    HW127149   3.429   4.039   2.923  0.0483  0.6114  0.0266
 8857SOL    HW227150   3.297   4.038   2.850  0.0704 -1.3928 -0.0391
 8858SOL     OW27151   4.323   4.299   3.671 -0.2714 -0.1320  0.2846
 8858SOL    HW127152   4.230   4.315   3.654  0.1040  0.9331 -0.9248
 8858SOL    HW227153   4.346   4.364   3.738 -0.8243 -1.7408  2.1525
 8859SOL     OW27154   4.529   5.043   3.570 -0.5668  0.2640  0.0224
 8859SOL    HW127155   4.596   5.013   3.631 -0.4570  0.7075  0.1268
 8859SOL    HW227156   4.556   5.132   3.547 -1.9860  1.0612  1.3075
 8860SOL     OW27157   1.547   0.935   0.456 -0.0027  0.1259  0.2050
 8860SOL    HW127158   1.613   0.991   0.496  0.2039 -1.1966  1.8243
 8860SOL    HW227159   1.495   0.994   0.402  1.8237  1.3761 -0.2685
 8861SOL     OW27160   0.719   8.932   4.077  0.0703  0.2511  0.0937
 8861SOL    HW127161   0.806   8.929   4.117  0.4877  0.5612 -0.7774
 8861SOL    HW227162   0.714   9.019   4.037 -0.7834  0.3711  0.4260
 8862SOL     OW27163   7.301   5.323   5.539  0.5241  0.3949  0.4362
 8862SOL    HW127164   7.232   5.380   5.506 -1.7894 -2.3677  0.1287
 8862SOL    HW227165   7.349   5.377   5.602 -0.5177  3.0879 -0.9374
 8863SOL     OW27166   1.273   0.578   8.095 -0.0892  0.2512 -0.3776
 8863SOL    HW127167   1.292   0.631   8.017 -0.4095 -1.7475 -1.8924
 8863SOL    HW227168   1.292   0.636   8.169 -0.7565  2.5786 -1.9248
 8864SOL     OW27169   9.882   2.082   8.119 -0.2002  0.1618  0.4466
 8864SOL    HW127170   9.898   2.120   8.032 -0.4790  0.4527  0.5177
 8864SOL    HW227171   9.916   1.993   8.113  0.0507  0.2755  0.1301
 8865SOL     OW27172   9.418   8.558   9.853  0.1717  0.3608  0.1825
 8865SOL    HW127173   9.388   8.576   9.764  1.5373 -1.9499 -0.8274
 8865SOL    HW227174   9.470   8.635   9.877 -0.6378  1.2362 -0.7912
 8866SOL     OW27175   4.826   7.083   2.094 -0.5044 -0.6189  0.0305
 8866SOL    HW127176   4.748   7.092   2.149  0.3451  2.3794  0.9437
 8866SOL    HW227177   4.857   7.173   2.081  1.9968 -1.5880 -1.5092
 8867SOL     OW27178   7.262   1.037   1.571 -0.1176  0.2278  0.2353
 8867SOL    HW127179   7.203   1.112   1.575 -0.0846  0.3503 -1.1004
 8867SOL    HW227180   7.332   1.065   1.511 -0.7791 -1.2857 -1.3368
 8868SOL     OW27181   9.326   8.439   3.477 -0.8462  0.3809 -0.0286
 8868SOL    HW127182   9.370   8.470   3.398 -0.7817  2.8409  0.8891
 8868SOL    HW227183   9.241   8.407   3.447  0.2291 -1.3835 -1.4000
 8869SOL     OW27184   8.812   4.700   7.147 -0.3791  0.2862 -0.4079
 8869SOL    HW127185   8.834   4.793   7.157 -1.3855  0.5035 -0.0340
 8869SOL    HW227186   8.768   4.695   7.062  0.0733  0.0602 -0.6343
 8870SOL     OW27187   4.285   1.588   4.731 -0.7703 -1.1413  0.4831
 8870SOL    HW127188   4.343   1.632   4.793 -1.5495 -0.0037  0.4430
 8870SOL    HW227189   4.330   1.594   4.647  0.0032 -2.1373  0.8129
 8871SOL     OW27190   0.988   2.965   2.961  0.0180  0.7890 -0.2612
 8871SOL    HW127191   1.049   3.037   2.947  0.7493  0.2978  0.3397
 8871SOL    HW227192   0.922   3.000   3.021  1.3792  0.4435  1.5297
 8872SOL     OW27193   7.118   6.438   1.143  0.0023 -0.4139 -0.2763
 8872SOL    HW127194   7.099   6.470   1.231 -1.5878  0.1089 -0.7783
 8872SOL    HW227195   7.038   6.455   1.093  1.4067  0.7511 -2.2493
 8873SOL     OW27196   8.832   0.949   5.256  0.2905  0.5061  0.2597
 8873SOL    HW127197   8.824   0.987   5.343 -2.9106  0.1742  0.2466
 8873SOL    HW227198   8.742   0.929   5.231  1.4185 -4.3299 -0.9537
 8874SOL     OW27199   4.069   1.019   6.434  0.1264 -0.0653  0.5170
 8874SOL    HW127200   4.136   1.023   6.502  0.7861  0.5307 -0.1511
 8874SOL    HW227201   4.000   1.079   6.465  1.2218  1.6240 -0.1517
 8875SOL     OW27202   2.141   9.947   1.727  0.2815 -0.1699  0.7568
 8875SOL    HW127203   2.104   9.975   1.643 -0.0250  0.6613  1.1576
 8875SOL    HW227204   2.197   9.873   1.705  1.1273  0.7590 -0.3593
 8876SOL     OW27205   8.167   1.589   8.878  0.2255  0.0164 -0.1827
 8876SOL    HW127206   8.250   1.545   8.857  0.5057  0.1108  0.6629
 8876SOL    HW227207   8.194   1.666   8.929 -0.2995  0.8297 -1.1009
 8877SOL     OW27208   0.375   1.343   5.989  0.3738  0.3437 -0.4777
 8877SOL    HW127209   0.352   1.283   5.918  0.3088  1.0067 -1.0169
 8877SOL    HW227210   0.368   1.430   5.951  1.8687  0.6553 -0.1083
 8878SOL     OW27211   7.645   9.373   7.204  0.6819  0.1634 -0.0286
 8878SOL    HW127212   7.614   9.435   7.138  0.1410 -0.9165 -0.8125
 8878SOL    HW227213   7.565   9.333   7.239  0.9941  0.3350  0.9125
 8879SOL     OW27214   2.900   6.488   9.733  0.3312 -0.0416  0.3464
 8879SOL    HW127215   2.972   6.471   9.794  0.3384  0.6509  0.5380
 8879SOL    HW227216   2.908   6.581   9.711  0.1291 -0.2066 -0.4534
 8880SOL     OW27217   6.194   6.780   2.760 -0.1450 -0.0902 -0.4966
 8880SOL    HW127218   6.219   6.861   2.715 -0.6807  1.5948  2.0527
 8880SOL    HW227219   6.277   6.734   2.772  0.4262  0.9074 -0.4716
 8881SOL     OW27220   6.776   4.688   5.612 -0.1233 -0.4932 -0.6316
 8881SOL    HW127221   6.690   4.730   5.621  0.4276  0.3733  1.1628
 8881SOL    HW227222   6.838   4.756   5.637  0.8171 -2.2669  2.4060
 8882SOL     OW27223   6.420   8.869   7.634 -0.1474 -0.4238 -0.4787
 8882SOL    HW127224   6.465   8.785   7.633  1.9266  0.5875  0.2510
 8882SOL    HW227225   6.417   8.894   7.727 -1.7236 -0.1650 -0.5712
 8883SOL     OW27226   3.494   7.678   4.618 -0.1478 -0.0316  0.2983
 8883SOL    HW127227   3.515   7.694   4.526  0.5021 -0.8154  0.2972
 8883SOL    HW227228   3.504   7.583   4.629 -1.5483 -0.1450  0.8575
 8884SOL     OW27229   9.523   9.040   0.765 -0.6975  0.2453  0.3450
 8884SOL    HW127230   9.492   9.033   0.674 -0.5929 -3.3778  0.4417
 8884SOL    HW227231   9.462   8.986   0.815  1.2488 -0.7256  1.8139
 8885SOL     OW27232   3.800   4.121   1.682  0.3047 -0.5353  0.2386
 8885SOL    HW127233   3.822   4.029   1.694  0.2842 -0.5230  0.3721
 8885SOL    HW227234   3.868   4.169   1.729 -1.0304 -0.5383  2.3291
 8886SOL     OW27235   8.556   7.356   6.248 -0.1764  0.0747 -0.0640
 8886SOL    HW127236   8.629   7.410   6.216 -0.3222 -0.4767 -1.3652
 8886SOL    HW227237   8.597   7.272   6.270 -0.6989 -1.1623 -3.2338
 8887SOL     OW27238   3.358   9.814   1.877 -0.4378 -0.2188  0.4431
 8887SOL    HW127239   3.421   9.742   1.887 -0.6104 -0.1874  2.1640
 8887SOL    HW227240   3.284   9.776   1.832 -0.5057 -1.1386  1.2960
 8888SOL     OW27241   3.681   5.297   5.483  0.1531  0.0314  0.2643
 8888SOL    HW127242   3.649   5.250   5.560 -3.9623  2.4135  0.3214
 8888SOL    HW227243   3.621   5.270   5.413  2.7578 -0.8101 -1.8049
 8889SOL     OW27244   2.904   6.288   2.268 -0.4666 -1.1406 -0.3440
 8889SOL    HW127245   2.862   6.279   2.354  1.0318  2.4335  0.9725
 8889SOL    HW227246   2.835   6.321   2.211 -0.4669  1.1207  0.8466
 8890SOL     OW27247   4.571   8.828   0.949 -0.2951  0.0409  0.0696
 8890SOL    HW127248   4.482   8.817   0.983 -1.3543  0.3807 -2.3759
 8890SOL    HW227249   4.566   8.906   0.893  1.9695  1.0082  1.0607
 8891SOL     OW27250   5.698   6.850   8.374  0.3256  0.2332 -0.7356
 8891SOL    HW127251   5.781   6.808   8.356  0.1450 -0.8142  0.6932
 8891SOL    HW227252   5.637   6.778   8.392 -0.0768  1.0230  1.4009
 8892SOL     OW27253   4.525   9.525   1.071 -0.1405 -0.0672  0.6119
 8892SOL    HW127254   4.571   9.446   1.101  0.8610  0.7907  1.4272
 8892SOL    HW227255   4.435   9.496   1.059  0.2028 -1.3450  0.8651
 8893SOL     OW27256   9.596   0.412   0.951 -0.2414  0.0275 -0.3301
 8893SOL    HW127257   9.518   0.370   0.987  0.6836 -2.0365 -0.6073
 8893SOL    HW227258   9.664   0.345   0.955  1.9722  2.2038  1.2807
 8894SOL     OW27259   3.425   0.203   9.933 -0.3806  0.5262 -0.2256
 8894SOL    HW127260   3.510   0.224   9.893 -1.3063  2.7278 -1.1813
 8894SOL    HW227261   3.392   0.130   9.881 -0.6012  1.9549 -2.2189
 8895SOL     OW27262   6.933   1.469   6.684 -0.7721 -0.2572  0.0926
 8895SOL    HW127263   6.885   1.471   6.767 -1.1993  2.8873 -0.1002
 8895SOL    HW227264   7.017   1.428   6.705 -0.6063  1.0437  2.2644
 8896SOL     OW27265   1.630   2.570   4.213 -0.1027 -0.7355  0.1223
 8896SOL    HW127266   1.574   2.578   4.136  0.7924  2.4630 -0.3627
 8896SOL    HW227267   1.584   2.509   4.271 -0.8574 -3.1568 -2.8075
 8897SOL     OW27268   7.504   1.616   1.564  0.5742 -0.6975  0.5603
 8897SOL    HW127269   7.556   1.556   1.511 -0.5191  2.3569 -4.8473
 8897SOL    HW227270   7.415   1.581   1.560 -0.0069  0.7917 -2.3295
 8898SOL     OW27271   8.286   7.006   6.885  0.0649  0.6513  0.2564
 8898SOL    HW127272   8.256   7.021   6.796 -0.2052 -0.6771  0.1076
 8898SOL    HW227273   8.207   7.017   6.939 -0.4020 -1.2273  0.0285
 8899SOL     OW27274   7.917   7.723   6.781 -0.0308  0.2561  0.3790
 8899SOL    HW127275   7.951   7.712   6.692 -0.6294  1.3654 -0.0096
 8899SOL    HW227276   7.883   7.813   6.782 -0.5359  0.0616  1.5554
 8900SOL     OW27277   6.099   4.555   8.045  0.3195 -0.0507  0.2932
 8900SOL    HW127278   6.185   4.512   8.052  0.7086  0.7567  0.6508
 8900SOL    HW227279   6.110   4.617   7.974 -0.9784 -2.1700 -1.9156
 8901SOL     OW27280   9.577   2.301   8.675  0.4173 -0.6046  0.1034
 8901SOL    HW127281   9.572   2.230   8.739  1.5074 -0.2528  0.6201
 8901SOL    HW227282   9.487   2.327   8.660 -0.0156 -2.1894 -0.2104
 8902SOL     OW27283   6.950   9.262   3.632  0.3248 -0.1019 -0.0052
 8902SOL    HW127284   7.034   9.267   3.679 -0.0451  0.6306  0.5997
 8902SOL    HW227285   6.958   9.184   3.577  0.7396 -1.0831  1.3779
 8903SOL     OW27286   1.213   6.118   1.121 -0.3286  1.2027  0.1611
 8903SOL    HW127287   1.224   6.149   1.211 -2.2212 -3.0630  2.1389
 8903SOL    HW227288   1.297   6.080   1.097 -0.8004 -1.1096  1.8219
 8904SOL     OW27289   1.656   4.033   8.519  0.0003 -0.4348 -0.0462
 8904SOL    HW127290   1.647   3.949   8.562  1.2044  0.3348  1.8375
 8904SOL    HW227291   1.714   4.083   8.576 -1.3882  1.9965 -0.6076
 8905SOL     OW27292   6.781   9.132   5.068 -0.4559  0.3880  0.0336
 8905SOL    HW127293   6.864   9.168   5.035 -0.1742 -0.1981  0.0799
 8905SOL    HW227294   6.784   9.147   5.162  0.2074 -0.7978  0.2227
 8906SOL     OW27295   1.534   0.164   3.873 -0.0950  0.0701  0.4930
 8906SOL    HW127296   1.479   0.181   3.949 -1.9136 -1.7270 -0.3293
 8906SOL    HW227297   1.472   0.152   3.800  1.5582  1.4934 -1.2611
 8907SOL     OW27298   6.553   2.014   6.574 -0.6791  0.0303  0.5261
 8907SOL    HW127299   6.481   2.058   6.528  0.3861 -0.4677 -1.7726
 8907SOL    HW227300   6.565   2.066   6.653 -1.1742  2.3851 -0.8189
 8908SOL     OW27301   7.269   8.167   5.363 -0.1251 -0.0129 -0.1688
 8908SOL    HW127302   7.190   8.163   5.418  1.0349 -1.7296  1.4950
 8908SOL    HW227303   7.331   8.219   5.414  0.0558  0.8069 -1.1952
 8909SOL     OW27304   0.614   4.219   2.261 -0.4792  0.0940  0.1812
 8909SOL    HW127305   0.535   4.267   2.235  0.6586  0.9695 -1.9612
 8909SOL    HW227306   0.582   4.148   2.316 -2.9521 -0.4807 -1.7882
 8910SOL     OW27307   0.909   4.792   1.631  0.2245  0.4334  0.1129
 8910SOL    HW127308   1.004   4.778   1.632  0.0867 -0.5586 -0.0032
 8910SOL    HW227309   0.879   4.748   1.552 -0.5296 -0.6374  0.9682
 8911SOL     OW27310   6.959   9.696   3.329 -0.3245 -0.0740 -0.2854
 8911SOL    HW127311   6.979   9.763   3.394  0.7713 -1.9367  1.4219
 8911SOL    HW227312   6.986   9.614   3.370 -0.8044 -1.4943 -2.6131
 8912SOL     OW27313   3.593   8.412   0.563 -0.6479  0.2767 -0.5120
 8912SOL    HW127314   3.605   8.342   0.627 -0.0887  0.7354 -0.1066
 8912SOL    HW227315   3.609   8.370   0.479 -0.1460 -0.0572 -0.2596
 8913SOL     OW27316   5.422   8.929   6.738  0.2505  0.2562  0.5333
 8913SOL    HW127317   5.327   8.942   6.749  0.1773  0.5538 -0.3691
 8913SOL    HW227318   5.462   9.005   6.780  0.0806  0.2298  0.7430
 8914SOL     OW27319   2.415   2.768   8.844  0.2525 -0.3498 -0.4413
 8914SOL    HW127320   2.509   2.757   8.828  0.3728  1.2523 -1.0946
 8914SOL    HW227321   2.406   2.761   8.939  1.5726  2.4243  0.0147
 8915SOL     OW27322   5.502   5.827   5.996 -0.1431  0.0572  0.5724
 8915SOL    HW127323   5.528   5.784   6.077 -0.2366  0.3838  0.7768
 8915SOL    HW227324   5.458   5.907   6.024  0.7778  0.7202  0.1890
 8916SOL     OW27325   4.385   9.954   1.214  0.7548 -0.4130 -0.0911
 8916SOL    HW127326   4.290   9.965   1.210  0.8711  0.3835 -0.7961
 8916SOL    HW227327   4.397   9.865   1.248 -0.2381 -0.5725 -0.1314
 8917SOL     OW27328   8.817   8.493   8.154  0.6369  0.3347  0.3273
 8917SOL    HW127329   8.756   8.567   8.157 -0.3007 -0.3496 -1.2542
 8917SOL    HW227330   8.762   8.415   8.161  0.8548 -0.4330 -3.9629
 8918SOL     OW27331   8.604   5.385   4.924  0.4556 -0.1587  1.0006
 8918SOL    HW127332   8.592   5.459   4.863  2.4518 -1.1555 -0.7219
 8918SOL    HW227333   8.522   5.337   4.919  0.4756 -0.0922 -0.8217
 8919SOL     OW27334   6.674   9.073   1.135  0.0402  0.1517  0.0597
 8919SOL    HW127335   6.622   9.060   1.214  0.6779  1.8872  0.8141
 8919SOL    HW227336   6.764   9.086   1.167  0.2498  1.2284 -0.9026
 8920SOL     OW27337   0.385   0.201   8.167  0.3743 -0.5022 -0.3258
 8920SOL    HW127338   0.391   0.106   8.175 -0.2118 -0.4942  0.2557
 8920SOL    HW227339   0.451   0.234   8.228 -1.7157 -0.5030  2.0889
 8921SOL     OW27340   8.373   4.795   6.319 -0.1607  0.1012 -0.2418
 8921SOL    HW127341   8.320   4.866   6.282 -1.4425 -0.1702  1.0197
 8921SOL    HW227342   8.443   4.841   6.366 -0.0110  0.4776 -0.8073
 8922SOL     OW27343   2.828   7.181   3.774  0.3531 -0.0993  0.1670
 8922SOL    HW127344   2.761   7.124   3.810 -1.5095  0.2131 -2.4516
 8922SOL    HW227345   2.793   7.270   3.786 -0.3380  0.0167 -2.1632
 8923SOL     OW27346   9.407   7.382   3.371  0.0433 -0.2493 -0.0158
 8923SOL    HW127347   9.366   7.391   3.457 -1.0137 -1.1252 -0.4037
 8923SOL    HW227348   9.366   7.450   3.317  0.0732 -0.2649 -0.0579
 8924SOL     OW27349   7.988   4.275   5.737 -0.7070 -0.1103  0.4225
 8924SOL    HW127350   7.962   4.352   5.685  0.8022 -0.6453 -1.2186
 8924SOL    HW227351   7.972   4.302   5.828  0.2201  2.3661 -0.0464
 8925SOL     OW27352   5.293   8.845   9.786  1.0386 -0.2081  0.4863
 8925SOL    HW127353   5.268   8.791   9.711  0.0077 -3.5533  2.9879
 8925SOL    HW227354   5.224   8.911   9.792  0.8294 -0.2256 -1.0933
 8926SOL     OW27355   6.272   2.087   0.673 -0.0734 -0.9626 -0.3722
 8926SOL    HW127356   6.200   2.139   0.637  0.3394  1.5848  2.1100
 8926SOL    HW227357   6.295   2.027   0.603 -1.5796  1.2319 -2.9769
 8927SOL     OW27358   7.440   6.322   5.246  0.3988  0.1320  0.1626
 8927SOL    HW127359   7.452   6.416   5.259  0.4761  0.2713 -0.8808
 8927SOL    HW227360   7.518   6.293   5.200  2.0220 -1.1175  3.3820
 8928SOL     OW27361   3.545   0.706   9.704  0.5283  0.1343  0.7689
 8928SOL    HW127362   3.501   0.669   9.780  0.8940 -2.4683 -0.1744
 8928SOL    HW227363   3.477   0.708   9.636  0.4381  1.5817  0.8641
 8929SOL     OW27364   6.799   2.938   9.676 -0.2412 -0.2453  0.0663
 8929SOL    HW127365   6.843   3.006   9.626  0.1333 -0.5939 -0.0911
 8929SOL    HW227366   6.712   2.931   9.636 -0.5732  0.6831  0.5993
 8930SOL     OW27367   7.045   5.587   8.438  0.2732 -0.1336 -0.3293
 8930SOL    HW127368   7.010   5.498   8.434 -0.3536  0.0916 -0.0651
 8930SOL    HW227369   7.130   5.577   8.481  0.3009 -0.6313 -0.4920
 8931SOL     OW27370   9.518   6.337   1.713  0.2930  0.2004 -0.0642
 8931SOL    HW127371   9.459   6.393   1.662 -0.0508  1.5243  1.6899
 8931SOL    HW227372   9.480   6.335   1.801  1.7612 -0.6114  0.6023
 8932SOL     OW27373   5.807   0.756   9.317  0.3789 -0.1183 -1.0986
 8932SOL    HW127374   5.776   0.690   9.379 -2.0476  2.4207  0.6500
 8932SOL    HW227375   5.767   0.731   9.234 -0.2032 -1.0641 -0.5529
 8933SOL     OW27376   0.826   7.623  -0.010 -0.2696 -0.8360 -0.4505
 8933SOL    HW127377   0.843   7.618   0.084  1.6268 -1.0918 -0.7775
 8933SOL    HW227378   0.734   7.598  -0.018 -0.2610 -1.5928  1.2547
 8934SOL     OW27379   5.087   7.421   1.942  0.3482 -0.3503  0.3377
 8934SOL    HW127380   5.071   7.450   1.853  0.0827 -1.6683 -0.0643
 8934SOL    HW227381   5.116   7.500   1.988 -0.1763  0.4950 -0.7291
 8935SOL     OW27382   4.315   5.482   2.895 -0.0967  0.0059 -0.3319
 8935SOL    HW127383   4.266   5.555   2.857  0.6458 -0.1018 -1.5643
 8935SOL    HW227384   4.407   5.508   2.886  0.1202 -0.1288  1.2386
 8936SOL     OW27385   3.625   2.470   7.762 -0.1202  0.4124 -0.4373
 8936SOL    HW127386   3.648   2.439   7.674  0.4190  1.8215 -0.8107
 8936SOL    HW227387   3.531   2.451   7.770 -0.2815  0.7026 -1.4945
 8937SOL     OW27388   3.428   5.847   3.234 -0.6652  0.0777 -0.4330
 8937SOL    HW127389   3.435   5.941   3.247  3.6730  0.0494 -1.3192
 8937SOL    HW227390   3.430   5.810   3.322 -1.0377  0.7301 -0.1459
 8938SOL     OW27391   1.912   8.782   5.338 -0.2212 -0.0480 -0.0215
 8938SOL    HW127392   1.930   8.820   5.423  0.8635  0.6080 -0.5173
 8938SOL    HW227393   1.917   8.856   5.277 -0.4859 -0.5871 -0.7143
 8939SOL     OW27394   5.044   7.656   6.189  0.4038 -0.3374 -0.6446
 8939SOL    HW127395   5.016   7.592   6.254 -1.6398  0.6611 -0.4620
 8939SOL    HW227396   5.080   7.728   6.241  1.1095 -0.5882 -0.7706
 8940SOL     OW27397   5.028   1.494   6.427 -0.3828  0.0904 -0.1869
 8940SOL    HW127398   4.997   1.426   6.368  0.1255  0.6205 -1.0864
 8940SOL    HW227399   4.967   1.567   6.415  0.1678  0.4828 -0.6412
 8941SOL     OW27400   1.651   5.575   5.993 -0.4871 -0.3318 -0.2864
 8941SOL    HW127401   1.645   5.671   6.001  0.6550 -0.2460 -0.2204
 8941SOL    HW227402   1.643   5.543   6.083  1.1118 -0.1372 -0.0354
 8942SOL     OW27403   2.472   7.403   4.517  0.1862 -0.0763 -0.2475
 8942SOL    HW127404   2.499   7.430   4.605 -0.2547  1.4669 -0.5441
 8942SOL    HW227405   2.391   7.354   4.531 -0.2134  0.6835  0.1713
 8943SOL     OW27406   2.360   4.047   0.239  0.4781 -0.7127  0.7506
 8943SOL    HW127407   2.395   4.078   0.323  0.9000  0.2124  0.2492
 8943SOL    HW227408   2.321   4.125   0.200  0.1190 -1.1794  0.1635
 8944SOL     OW27409   1.093   0.106   5.013  0.0214 -0.4896 -0.2423
 8944SOL    HW127410   1.086   0.095   4.918  0.0468 -1.0041 -0.1884
 8944SOL    HW227411   1.168   0.051   5.037 -1.5173 -2.4407  0.4131
 8945SOL     OW27412   8.050   0.606   5.710  0.0978 -0.2651  0.6323
 8945SOL    HW127413   7.965   0.586   5.749  0.4475 -0.8308  1.1078
 8945SOL    HW227414   8.030   0.627   5.618 -0.4130 -1.6943  0.3971
 8946SOL     OW27415   0.513   6.102   6.518 -0.2720  0.0887  0.1560
 8946SOL    HW127416   0.491   6.163   6.447  1.4854  1.7381  0.9597
 8946SOL    HW227417   0.564   6.153   6.579  0.9864 -2.1207  1.0676
 8947SOL     OW27418   3.771   4.374   7.735 -0.3512  0.1682  0.1430
 8947SOL    HW127419   3.750   4.462   7.767 -1.2604  0.6128 -1.5317
 8947SOL    HW227420   3.866   4.369   7.739 -0.3100  1.0945  0.6456
 8948SOL     OW27421   0.117   2.954   2.423 -0.2828 -0.1231 -0.4907
 8948SOL    HW127422   0.188   2.924   2.479 -1.6091  0.1154  1.3966
 8948SOL    HW227423   0.079   3.029   2.470 -1.3602  0.1835 -1.7799
 8949SOL     OW27424   2.168   5.287   4.750 -0.0934  0.1514 -0.0500
 8949SOL    HW127425   2.154   5.205   4.703  1.6267  0.1286 -0.6080
 8949SOL    HW227426   2.219   5.262   4.828 -1.7982  0.3648  1.1822
 8950SOL     OW27427   4.853   9.244   1.629  0.0622  0.6947 -0.1236
 8950SOL    HW127428   4.829   9.156   1.601  2.5456 -0.3116  0.6137
 8950SOL    HW227429   4.796   9.263   1.703 -0.4716 -0.3269 -0.2528
 8951SOL     OW27430   8.120   4.535   3.117  0.0213  0.1957 -0.5374
 8951SOL    HW127431   8.134   4.598   3.046  0.1196  0.4184 -0.3238
 8951SOL    HW227432   8.041   4.488   3.093  0.6177 -0.4361 -1.3066
 8952SOL     OW27433   1.948   9.532   8.480 -0.2624 -0.3813 -0.0314
 8952SOL    HW127434   1.984   9.496   8.561 -0.0071 -1.2895 -0.5261
 8952SOL    HW227435   1.857   9.505   8.479 -0.5936  0.6569  0.5125
 8953SOL     OW27436   2.188   2.590   8.307 -0.0443  0.1174 -0.0050
 8953SOL    HW127437   2.114   2.587   8.367 -0.9370 -1.2075 -1.1135
 8953SOL    HW227438   2.182   2.677   8.267 -1.6228 -0.3223 -0.8005
 8954SOL     OW27439   0.671   3.741   7.542  0.1663 -0.0835  0.2269
 8954SOL    HW127440   0.651   3.754   7.449  1.1689 -1.9450 -0.2817
 8954SOL    HW227441   0.766   3.741   7.547  0.1341  1.0292  1.4483
 8955SOL     OW27442   6.479   0.639   9.398  0.5009 -0.3451  0.2187
 8955SOL    HW127443   6.413   0.675   9.338  0.5277  0.0370  0.4197
 8955SOL    HW227444   6.515   0.715   9.443  0.9314 -0.5728  0.2663
 8956SOL     OW27445   7.056   0.207   0.358 -0.4725  0.0382  0.4911
 8956SOL    HW127446   6.966   0.240   0.360 -0.4510  0.1803 -0.4873
 8956SOL    HW227447   7.072   0.178   0.448 -1.7523 -0.6889  0.5151
 8957SOL     OW27448   4.294   2.634   0.732  0.0316  0.0274  0.2819
 8957SOL    HW127449   4.332   2.722   0.728 -0.1670  0.1379  0.8402
 8957SOL    HW227450   4.271   2.614   0.641  0.5104  0.3607  0.0853
 8958SOL     OW27451   5.109   1.635   9.788 -0.1405 -0.3407  0.1125
 8958SOL    HW127452   5.198   1.601   9.781  0.0637 -0.0000  0.9335
 8958SOL    HW227453   5.112   1.697   9.861 -1.3558 -1.3697  1.0990
 8959SOL     OW27454   7.925   7.575   8.709  0.7675 -0.3051  0.7123
 8959SOL    HW127455   8.010   7.617   8.695  0.4295  0.2570  0.2975
 8959SOL    HW227456   7.877   7.635   8.767  0.8797 -0.9256  1.4582
 8960SOL     OW27457   8.204   4.097   5.977  0.1414 -0.4423  0.2245
 8960SOL    HW127458   8.243   4.159   5.915 -1.4441 -1.7518 -2.2159
 8960SOL    HW227459   8.276   4.037   5.998  0.2840 -1.0991 -1.9055
 8961SOL     OW27460   7.798   1.928   7.479  0.3258 -0.1897  0.1555
 8961SOL    HW127461   7.739   2.003   7.480  0.7985  0.2255 -1.1508
 8961SOL    HW227462   7.874   1.957   7.531 -0.6787 -0.8175  2.0539
 8962SOL     OW27463   7.434   1.176   3.098 -0.3852 -0.2261  0.0825
 8962SOL    HW127464   7.427   1.215   3.185 -1.7660  1.5825 -0.7761
 8962SOL    HW227465   7.496   1.232   3.051  1.2350 -1.8538  0.1977
 8963SOL     OW27466   0.480   1.811   8.594  0.3313 -0.5636 -0.4574
 8963SOL    HW127467   0.404   1.867   8.582  1.6037  1.7730  1.5434
 8963SOL    HW227468   0.448   1.722   8.576 -2.4013  0.4933 -1.2740
 8964SOL     OW27469   5.545   5.926   2.836 -0.3324  0.4192  0.5200
 8964SOL    HW127470   5.612   5.881   2.785 -0.9762 -1.7651  1.4907
 8964SOL    HW227471   5.555   5.892   2.925 -1.5147  1.4792  1.0988
 8965SOL     OW27472   7.484   7.177   7.485 -1.0300  0.7285 -0.2048
 8965SOL    HW127473   7.476   7.242   7.416 -3.2850  0.8701  0.1245
 8965SOL    HW227474   7.529   7.222   7.556 -0.8499  1.3206 -0.6898
 8966SOL     OW27475   8.940   0.482   3.807 -0.7299 -0.7133  0.3916
 8966SOL    HW127476   8.964   0.575   3.807 -1.2063 -0.5827  0.2646
 8966SOL    HW227477   8.926   0.460   3.899  0.1797 -0.8802  0.4972
 8967SOL     OW27478   0.653   5.597   2.069 -0.4155  0.1257 -0.1186
 8967SOL    HW127479   0.592   5.669   2.084  1.2689  1.7128 -0.5646
 8967SOL    HW227480   0.721   5.635   2.013  0.3436 -1.9245 -0.6640
 8968SOL     OW27481   8.595   9.455   9.308  0.5351  0.9572 -0.3501
 8968SOL    HW127482   8.500   9.464   9.303  0.6203  1.8487 -0.5308
 8968SOL    HW227483   8.621   9.417   9.224  0.2506 -0.2741  0.0926
 8969SOL     OW27484   6.184   4.852   8.653 -0.5067 -0.5247 -0.2906
 8969SOL    HW127485   6.164   4.784   8.718 -1.4928 -0.4086 -0.4610
 8969SOL    HW227486   6.246   4.910   8.697 -1.7428 -0.0127  0.8561
 8970SOL     OW27487   6.925   3.872   0.524  0.0777 -0.7908  0.2400
 8970SOL    HW127488   6.933   3.911   0.436  0.3160 -1.5488 -0.0806
 8970SOL    HW227489   6.867   3.798   0.512 -0.0771 -0.7581  0.7776
 8971SOL     OW27490   1.293   5.149   2.382 -0.1864 -0.0253 -0.2805
 8971SOL    HW127491   1.327   5.117   2.465  0.0313  0.0840 -0.3273
 8971SOL    HW227492   1.277   5.070   2.330 -0.6411 -0.1099 -0.0113
 8972SOL     OW27493   7.980   4.335   6.788  0.4065  0.0452 -0.1848
 8972SOL    HW127494   7.904   4.390   6.767 -3.4483 -3.4697  2.5922
 8972SOL    HW227495   8.006   4.297   6.704  1.8683  4.1579 -1.8346
 8973SOL     OW27496   2.121   6.760   9.236  0.3818  0.6450  0.5200
 8973SOL    HW127497   2.120   6.793   9.146  0.1087 -0.8179 -0.0344
 8973SOL    HW227498   2.029   6.762   9.263  0.3299  0.1372  0.3947
 8974SOL     OW27499   9.155   2.240   0.225  0.3960 -0.3127  0.9393
 8974SOL    HW127500   9.135   2.231   0.132  1.5884  1.0932  0.4959
 8974SOL    HW227501   9.122   2.327   0.248 -2.5455 -1.7359  2.6441
 8975SOL     OW27502   8.800   2.157   8.406 -0.0381 -0.0067 -0.8022
 8975SOL    HW127503   8.833   2.232   8.456  0.0809 -1.4445  1.4401
 8975SOL    HW227504   8.877   2.103   8.389 -0.4768 -0.9972  0.1779
 8976SOL     OW27505   9.216   0.845   7.117  0.0129  0.0576  0.2674
 8976SOL    HW127506   9.156   0.897   7.064  1.2765  0.0046 -1.3256
 8976SOL    HW227507   9.297   0.897   7.119  0.4252 -0.5865  0.9838
 8977SOL     OW27508   4.076   5.966   8.083  0.2877  0.1952  0.0186
 8977SOL    HW127509   4.051   5.884   8.126  2.9910  0.1647  1.8157
 8977SOL    HW227510   4.093   5.942   7.992 -0.0374 -1.0134  0.2632
 8978SOL     OW27511   2.773   2.037   1.454  0.1223 -0.4257 -0.1607
 8978SOL    HW127512   2.812   2.072   1.373  1.1025 -0.0826  0.4416
 8978SOL    HW227513   2.692   1.995   1.425 -0.8736  1.8920 -0.9922
 8979SOL     OW27514   8.198   2.077   4.736  0.3737 -0.2637 -0.2582
 8979SOL    HW127515   8.155   2.102   4.654  1.3239 -0.8918 -0.9696
 8979SOL    HW227516   8.255   2.004   4.712  1.6049  0.3418  0.7072
 8980SOL     OW27517   6.447   9.942   1.193 -0.4551  0.2452  0.0895
 8980SOL    HW127518   6.517   9.944   1.128 -0.1366 -2.4110  0.2363
 8980SOL    HW227519   6.476  10.002   1.262  0.2055  1.4646 -1.1917
 8981SOL     OW27520   5.342   2.561   7.895 -0.0825 -0.5185 -0.1795
 8981SOL    HW127521   5.412   2.579   7.957  0.3434  0.3535 -0.9018
 8981SOL    HW227522   5.272   2.621   7.919 -0.1909 -0.6688 -0.1131
 8982SOL     OW27523   8.923   6.253   6.589 -0.2937  0.1608  0.1074
 8982SOL    HW127524   9.015   6.235   6.571 -0.0609  2.2169 -1.1102
 8982SOL    HW227525   8.891   6.299   6.511 -2.0725  0.4220  0.9259
 8983SOL     OW27526   1.225   9.142   0.286  0.0174 -0.7838  0.8602
 8983SOL    HW127527   1.244   9.108   0.198  0.8722 -0.3689  0.8704
 8983SOL    HW227528   1.153   9.203   0.273  1.1042  0.4055  0.1889
 8984SOL     OW27529   6.823   9.910   0.093 -0.4179 -0.1192 -0.0367
 8984SOL    HW127530   6.780   9.991   0.119 -0.9558 -0.1695 -0.7432
 8984SOL    HW227531   6.788   9.890   0.006  0.6795 -0.4146 -0.4350
 8985SOL     OW27532   2.198   9.853   0.288  0.0856  0.0023  0.8568
 8985SOL    HW127533   2.237   9.827   0.372  0.9503 -0.5662  0.2883
 8985SOL    HW227534   2.170   9.770   0.248  0.7613  0.1618  0.0545
 8986SOL     OW27535   9.261   3.138   8.367 -0.5274  0.3355  0.3306
 8986SOL    HW127536   9.307   3.078   8.308  0.2334  0.8079  0.4409
 8986SOL    HW227537   9.236   3.083   8.441  0.7007  0.2685  0.7145
 8987SOL     OW27538   3.108   3.707   5.469 -0.3287 -0.2807  0.5588
 8987SOL    HW127539   3.056   3.780   5.436  0.5910  0.4763  0.7395
 8987SOL    HW227540   3.178   3.697   5.404  1.4658  1.1830  2.1688
 8988SOL     OW27541   9.113   8.053   6.311 -0.5982  0.3902 -0.1472
 8988SOL    HW127542   9.020   8.072   6.297 -0.8894 -0.5978  0.3389
 8988SOL    HW227543   9.119   8.026   6.402  0.1244  0.2242 -0.2357
 8989SOL     OW27544   1.069   3.001   6.075  0.0561 -0.1120 -0.4274
 8989SOL    HW127545   1.087   3.014   6.168 -0.5329  1.2104 -0.4682
 8989SOL    HW227546   1.145   3.038   6.030 -0.2250  0.4243 -0.4793
 8990SOL     OW27547   7.123   8.212   7.960  0.1330  0.2224 -0.5732
 8990SOL    HW127548   7.029   8.232   7.960  0.1563  0.6868 -2.9442
 8990SOL    HW227549   7.166   8.296   7.944  1.0695  0.1834  1.4368
 8991SOL     OW27550   8.380   4.529   5.023  0.1587  0.5155  0.2524
 8991SOL    HW127551   8.425   4.596   4.972 -1.5401  0.9584 -0.7610
 8991SOL    HW227552   8.448   4.465   5.045  1.7855  2.4229  1.0523
 8992SOL     OW27553   2.191   2.946   7.054  0.2661  0.6746  0.6996
 8992SOL    HW127554   2.168   3.026   7.102  2.5761  1.8765 -0.0373
 8992SOL    HW227555   2.111   2.925   7.004 -1.4193  0.6682  3.2188
 8993SOL     OW27556   0.605   8.688   5.457 -0.0489 -0.2097  0.2806
 8993SOL    HW127557   0.542   8.627   5.418 -0.0960  1.5459 -2.6026
 8993SOL    HW227558   0.691   8.649   5.439 -0.1385 -0.4710  0.4056
 8994SOL     OW27559   1.370   2.876   8.121 -0.0269 -0.0062  0.2581
 8994SOL    HW127560   1.368   2.892   8.027  0.6347 -0.0017  0.2379
 8994SOL    HW227561   1.367   2.781   8.130  3.5301 -0.2850  0.0464
 8995SOL     OW27562   2.426   4.456   6.175  0.0063  0.2268  0.1805
 8995SOL    HW127563   2.358   4.390   6.160 -2.2584  2.7516 -1.5675
 8995SOL    HW227564   2.489   4.442   6.105 -0.0694 -0.4848  0.2481
 8996SOL     OW27565   3.583   8.185   1.141 -0.3341  0.0169 -0.7482
 8996SOL    HW127566   3.587   8.107   1.086  1.2217  0.5239 -1.4069
 8996SOL    HW227567   3.504   8.231   1.112 -0.1726 -0.3156 -1.7436
 8997SOL     OW27568   6.843   8.615   2.940  0.5558 -0.2690 -0.2896
 8997SOL    HW127569   6.906   8.678   2.905 -0.2620  1.2162  0.7645
 8997SOL    HW227570   6.785   8.596   2.866  0.6149  0.5055 -0.5446
 8998SOL     OW27571   6.868   8.481   0.707 -0.1000 -0.2592  0.1156
 8998SOL    HW127572   6.942   8.450   0.759 -1.1042 -1.5077  0.8642
 8998SOL    HW227573   6.855   8.413   0.640 -1.7187 -1.0520  1.1648
 8999SOL     OW27574   6.852   5.793   9.825 -0.7901  0.1464  0.1395
 8999SOL    HW127575   6.905   5.868   9.851 -0.9607 -0.1454  1.3841
 8999SOL    HW227576   6.877   5.723   9.886 -0.6025 -0.8324 -1.0210
 9000SOL     OW27577   0.943   2.167   5.103  0.3274  0.1542  0.0300
 9000SOL    HW127578   0.932   2.191   5.011  0.3807 -1.5499 -0.4418
 9000SOL    HW227579   0.862   2.194   5.145 -0.1314 -0.0193 -0.7329
 9001SOL     OW27580   1.878   8.409   7.071  0.0145 -0.4910 -0.0810
 9001SOL    HW127581   1.930   8.329   7.079  1.4400  0.2408 -1.6927
 9001SOL    HW227582   1.884   8.433   6.979 -1.3176  0.8818  0.1532
 9002SOL     OW27583   7.851   7.665   0.088  0.0121 -0.3119  0.0007
 9002SOL    HW127584   7.907   7.742   0.092  0.0094 -0.1618 -1.7246
 9002SOL    HW227585   7.911   7.590   0.086  0.0893 -0.2480 -0.0674
 9003SOL     OW27586   0.351   6.644   5.965 -0.2939 -0.2781  0.0842
 9003SOL    HW127587   0.309   6.633   6.050  1.9252 -0.5310  1.2377
 9003SOL    HW227588   0.388   6.557   5.945 -3.2487 -1.0847 -2.6525
 9004SOL     OW27589   5.251   7.477   5.467 -0.1133 -0.3620  0.4943
 9004SOL    HW127590   5.200   7.449   5.391 -0.6188 -0.1104  0.7399
 9004SOL    HW227591   5.300   7.399   5.493  0.1014 -0.4371 -0.1177
 9005SOL     OW27592   6.056   4.762   0.697  0.0040 -0.3781 -0.4728
 9005SOL    HW127593   6.059   4.719   0.782  0.1559 -2.1895 -1.3379
 9005SOL    HW227594   6.026   4.851   0.716  0.3923 -0.6148  1.4951
 9006SOL     OW27595   9.152   7.308   0.662  0.4799  0.2085 -0.2993
 9006SOL    HW127596   9.122   7.314   0.753 -0.8688  0.5248 -0.7464
 9006SOL    HW227597   9.232   7.361   0.659  0.5455  0.1790  0.7004
 9007SOL     OW27598   2.699   6.763   7.173 -0.6655  0.4237 -0.1011
 9007SOL    HW127599   2.732   6.735   7.087 -1.5157 -0.3096 -0.2045
 9007SOL    HW227600   2.732   6.852   7.183  0.4509  0.0948 -0.6537
 9008SOL     OW27601   6.326   7.615   7.515 -0.2244  0.3116  0.2256
 9008SOL    HW127602   6.266   7.556   7.562  0.5407 -1.0013 -0.4082
 9008SOL    HW227603   6.338   7.574   7.430 -1.3068  2.4717 -1.0570
 9009SOL     OW27604   3.469   0.273   7.178 -0.3841 -0.1167 -0.5857
 9009SOL    HW127605   3.535   0.333   7.213 -2.3663  1.7545  0.1052
 9009SOL    HW227606   3.453   0.303   7.089 -1.5732  0.5986 -0.1506
 9010SOL     OW27607   7.894   4.931   5.408  0.2352 -0.3937 -0.1763
 9010SOL    HW127608   7.983   4.966   5.417 -0.7128  1.8641  1.2405
 9010SOL    HW227609   7.898   4.843   5.445  1.7265 -0.0651  0.4829
 9011SOL     OW27610   9.632   5.085   7.205  0.1014 -0.0839 -0.0377
 9011SOL    HW127611   9.610   5.028   7.131 -1.9396  0.6009 -0.0452
 9011SOL    HW227612   9.641   5.026   7.280  0.0441 -0.5954 -0.4282
 9012SOL     OW27613   0.820   1.178   9.993  0.3926  0.5401 -0.0771
 9012SOL    HW127614   0.853   1.146   9.909 -0.3859 -1.5304  0.3365
 9012SOL    HW227615   0.725   1.184   9.980  0.0911 -1.1826  1.0182
 9013SOL     OW27616   3.760   1.981   8.295 -0.5226  0.1686  0.8446
 9013SOL    HW127617   3.766   1.983   8.391 -2.4656  1.9523  1.0150
 9013SOL    HW227618   3.669   1.956   8.278 -0.1998 -0.1268 -0.5561
 9014SOL     OW27619   6.388   5.900   5.800  0.6967 -0.2401  0.5305
 9014SOL    HW127620   6.293   5.903   5.800  0.4499 -3.6430  0.2152
 9014SOL    HW227621   6.412   5.890   5.893  0.6314 -0.5464  0.5168
 9015SOL     OW27622   1.865   0.398   4.008  0.3575 -0.0835  0.5213
 9015SOL    HW127623   1.853   0.319   4.062  3.0912 -0.6592  0.4453
 9015SOL    HW227624   1.869   0.470   4.070 -0.1621 -0.2707  0.7707
 9016SOL     OW27625   6.390   2.161   4.569 -0.3149 -0.2471  0.0638
 9016SOL    HW127626   6.470   2.207   4.592 -0.1516  1.1354 -2.7986
 9016SOL    HW227627   6.322   2.200   4.624  0.5864  0.1480  0.9126
 9017SOL     OW27628   9.050   8.550   6.699  0.3599  0.6529  0.3052
 9017SOL    HW127629   9.123   8.492   6.721 -0.5657 -0.3161  0.9370
 9017SOL    HW227630   8.973   8.505   6.732 -0.6222  1.2929 -1.0157
 9018SOL     OW27631   7.253   5.500   3.882 -0.3530 -0.1776  0.4631
 9018SOL    HW127632   7.217   5.535   3.963 -1.3710  0.6805 -0.3386
 9018SOL    HW227633   7.334   5.549   3.868 -1.7000  1.8668 -0.5860
 9019SOL     OW27634   0.734   2.540   5.498  0.2542  0.5600 -0.1130
 9019SOL    HW127635   0.746   2.460   5.446  3.2886  1.1155 -0.4885
 9019SOL    HW227636   0.733   2.510   5.589 -0.7265 -0.0716 -0.3286
 9020SOL     OW27637   5.427   0.283   6.468  0.2160  0.2134  0.3712
 9020SOL    HW127638   5.450   0.359   6.521 -0.5453 -0.1789  1.2929
 9020SOL    HW227639   5.506   0.264   6.417  1.8177 -0.8053  3.0376
 9021SOL     OW27640   6.125   6.166   7.417  0.3662  0.5039 -0.1913
 9021SOL    HW127641   6.150   6.130   7.502 -0.9115  0.1123  0.0419
 9021SOL    HW227642   6.056   6.107   7.386  0.0283  1.2980 -0.9736
 9022SOL     OW27643   1.858   7.016   6.033 -0.0740  0.0289  0.0505
 9022SOL    HW127644   1.853   7.111   6.030 -0.4108 -0.0055 -1.5371
 9022SOL    HW227645   1.785   6.986   5.978 -0.2949 -1.1637  0.9383
 9023SOL     OW27646   8.428   2.693   3.892 -0.0212  0.1662 -0.1776
 9023SOL    HW127647   8.386   2.728   3.970 -0.7640  0.2617 -0.6122
 9023SOL    HW227648   8.429   2.598   3.905  1.2589  0.2648  0.6318
 9024SOL     OW27649   5.129   7.876   0.924  0.4973  0.1778 -0.0816
 9024SOL    HW127650   5.058   7.830   0.967  0.3434 -2.0454 -2.4501
 9024SOL    HW227651   5.112   7.969   0.942 -1.6801 -0.4185  1.2973
 9025SOL     OW27652   0.980   1.839   6.834  0.1712 -0.4972 -0.2183
 9025SOL    HW127653   1.070   1.807   6.829 -0.0862 -1.1382 -0.7720
 9025SOL    HW227654   0.957   1.832   6.926  1.0020  0.5582  0.0954
 9026SOL     OW27655   7.793   5.338   6.840  0.2678 -0.3023  0.5107
 9026SOL    HW127656   7.874   5.357   6.794  0.8936  0.3121  1.8172
 9026SOL    HW227657   7.821   5.287   6.917 -0.7224 -1.1669  0.3204
 9027SOL     OW27658   5.565   5.483   9.281 -0.2685 -0.2535 -0.7830
 9027SOL    HW127659   5.573   5.472   9.186  0.3160 -2.4515 -0.5271
 9027SOL    HW227660   5.653   5.465   9.314 -0.8214 -1.0784  0.2833
 9028SOL     OW27661   5.687   6.785   1.020  0.3031  0.2782  0.4760
 9028SOL    HW127662   5.747   6.859   1.032  0.7891 -0.0177 -0.0772
 9028SOL    HW227663   5.718   6.719   1.082  0.1815  0.3466  0.6102
 9029SOL     OW27664   5.298   5.410   9.664 -0.1174 -0.3070 -0.3573
 9029SOL    HW127665   5.343   5.375   9.588 -0.2700 -0.0024 -0.5916
 9029SOL    HW227666   5.230   5.345   9.684 -0.0370 -0.4174 -0.4427
 9030SOL     OW27667   5.528   3.920   8.970 -0.2882 -0.1438  0.4334
 9030SOL    HW127668   5.461   3.851   8.972 -0.0310 -0.4588 -1.0227
 9030SOL    HW227669   5.478   4.001   8.960 -0.4624 -0.4876 -2.0996
 9031SOL     OW27670   1.898   0.459   8.099 -0.3026 -0.6772  0.0887
 9031SOL    HW127671   1.985   0.422   8.110  0.2267  0.7636  1.0653
 9031SOL    HW227672   1.913   0.553   8.087 -1.7447 -0.2645  1.1904
 9032SOL     OW27673   6.334   1.072   0.756  0.4577  0.2101 -0.3754
 9032SOL    HW127674   6.254   1.123   0.768  0.4563 -0.0233  0.6693
 9032SOL    HW227675   6.364   1.053   0.845  2.0937  0.9359 -0.7313
 9033SOL     OW27676   5.986   9.393   9.794 -0.2785  0.0596  0.5969
 9033SOL    HW127677   5.958   9.328   9.730  0.9723 -0.7646  0.8396
 9033SOL    HW227678   6.073   9.363   9.821  1.1784  2.8329 -0.6578
 9034SOL     OW27679   3.462   5.922   8.664 -0.4160  0.2947 -0.1809
 9034SOL    HW127680   3.440   5.836   8.699  0.9544 -0.3357 -0.8132
 9034SOL    HW227681   3.380   5.954   8.626 -0.9476 -0.7092  0.0827
 9035SOL     OW27682   8.028   7.326   4.509 -0.0843  0.5205  0.2136
 9035SOL    HW127683   7.982   7.410   4.500 -0.5845  0.3449  1.0507
 9035SOL    HW227684   8.010   7.281   4.426  3.3714  2.7081 -1.9720
 9036SOL     OW27685   8.694   8.010   3.379  0.3278 -0.1287 -0.1537
 9036SOL    HW127686   8.738   7.948   3.320  1.0580  0.4686 -0.2513
 9036SOL    HW227687   8.739   7.999   3.463 -0.0979 -0.3221  0.0518
 9037SOL     OW27688   5.345   3.744   3.606  0.2173  0.4271 -0.2295
 9037SOL    HW127689   5.298   3.811   3.555  0.9183  0.0940 -1.3635
 9037SOL    HW227690   5.344   3.667   3.550  2.3749  0.5055 -0.4452
 9038SOL     OW27691   9.404   9.124   6.923 -0.0371  0.2175  0.7036
 9038SOL    HW127692   9.377   9.036   6.898 -1.1291  0.9270 -0.7492
 9038SOL    HW227693   9.494   9.113   6.955  0.5438 -1.1652 -1.2289
 9039SOL     OW27694   3.387   7.783   3.545 -0.4042 -0.4502  0.4800
 9039SOL    HW127695   3.473   7.809   3.579  0.4009  0.5584 -2.0822
 9039SOL    HW227696   3.327   7.851   3.577  0.6041  1.3244 -1.2036
 9040SOL     OW27697   4.893   9.088   5.119  0.0168 -0.1463  0.3061
 9040SOL    HW127698   4.876   9.128   5.033 -1.2355  1.0751  1.0737
 9040SOL    HW227699   4.832   9.014   5.123 -0.0966 -0.0598  0.2236
 9041SOL     OW27700   7.043   5.125   6.265 -0.0592 -0.1571  0.5112
 9041SOL    HW127701   7.011   5.174   6.189 -0.6543 -0.1467  0.7610
 9041SOL    HW227702   7.134   5.104   6.243  0.5209  1.8742  0.7950
 9042SOL     OW27703   4.080   4.444   7.361 -0.1530  0.2095  0.5603
 9042SOL    HW127704   4.090   4.477   7.450 -1.8432  1.0324  0.4817
 9042SOL    HW227705   3.993   4.473   7.334 -0.1881 -1.1304 -0.9002
 9043SOL     OW27706   3.905   5.136   6.167  0.6459  0.0188  0.1778
 9043SOL    HW127707   3.939   5.055   6.129 -0.8097 -1.2945  1.4853
 9043SOL    HW227708   3.904   5.199   6.094  0.9635 -1.4081 -1.1061
 9044SOL     OW27709   7.983   5.959   2.590  0.2925  0.4297 -0.1874
 9044SOL    HW127710   8.016   5.880   2.632  0.4326  1.1193  1.0613
 9044SOL    HW227711   7.974   6.022   2.662 -1.1091  1.1258 -0.9306
 9045SOL     OW27712   7.378   2.330   3.928  0.7301 -0.0766  0.2950
 9045SOL    HW127713   7.332   2.318   4.011  1.4609  0.6652  0.8281
 9045SOL    HW227714   7.448   2.392   3.949  1.4307 -0.5163 -0.6899
 9046SOL     OW27715   5.357   4.362   4.094  0.5109 -0.0651 -0.7771
 9046SOL    HW127716   5.363   4.377   4.000 -1.7823 -0.5421 -1.0519
 9046SOL    HW227717   5.264   4.352   4.111  0.8571  0.1117  1.5815
 9047SOL     OW27718   3.448   9.566   3.883 -0.2823 -0.3563  0.1155
 9047SOL    HW127719   3.477   9.623   3.812 -2.7432 -1.6641 -2.1290
 9047SOL    HW227720   3.369   9.608   3.917 -0.5828 -1.0411  0.2908
 9048SOL     OW27721   7.916   8.648   4.574 -0.4332 -0.1249  0.3611
 9048SOL    HW127722   7.853   8.576   4.569 -0.5892  0.0906 -1.0502
 9048SOL    HW227723   7.953   8.641   4.662 -0.9266 -1.5121  0.4769
 9049SOL     OW27724   5.043   2.943   6.522  0.1669 -0.1158 -0.0916
 9049SOL    HW127725   4.974   2.997   6.483 -0.3211 -0.1039  0.7712
 9049SOL    HW227726   4.996   2.870   6.563  0.7914 -0.9988 -0.9123
 9050SOL     OW27727   7.600   5.153   4.577 -0.7815  0.1331 -0.0822
 9050SOL    HW127728   7.676   5.096   4.590  0.4215  1.3940 -1.3603
 9050SOL    HW227729   7.549   5.110   4.508  0.3066  0.7632 -1.2987
 9051SOL     OW27730   2.362   7.442   6.798  0.2762 -0.1853 -0.4073
 9051SOL    HW127731   2.417   7.519   6.813 -3.0313  2.2965  0.2135
 9051SOL    HW227732   2.285   7.477   6.753 -0.9557 -3.3708 -1.0229
 9052SOL     OW27733   8.555   9.516   8.581 -0.3694  0.1633  0.0006
 9052SOL    HW127734   8.521   9.432   8.551  1.9353 -0.8429 -0.0642
 9052SOL    HW227735   8.481   9.576   8.576 -2.0578 -1.8298 -0.0600
 9053SOL     OW27736   5.565   0.815   0.874  0.4151  0.2611 -0.3283
 9053SOL    HW127737   5.565   0.909   0.890  0.0905 -0.2253  3.6087
 9053SOL    HW227738   5.658   0.790   0.875  0.4359  0.3163  0.8998
 9054SOL     OW27739   2.519   8.933   0.933 -0.5921 -0.0578 -0.1256
 9054SOL    HW127740   2.493   8.846   0.905 -0.6850  0.3918 -1.5574
 9054SOL    HW227741   2.436   8.976   0.958 -0.9342  0.4466 -1.9551
 9055SOL     OW27742   5.568   1.087   9.024  0.8805  0.0280 -0.1679
 9055SOL    HW127743   5.523   1.171   9.017 -1.6117 -1.2366 -0.8981
 9055SOL    HW227744   5.610   1.088   9.109 -2.0936  0.7336  1.4442
 9056SOL     OW27745   7.336   8.016   2.522  0.3057 -0.4671  0.8564
 9056SOL    HW127746   7.274   7.958   2.565 -0.6234 -1.1824 -1.3395
 9056SOL    HW227747   7.421   7.993   2.560 -0.2770 -2.1177  1.2062
 9057SOL     OW27748   4.412   9.228   3.453  0.2808 -0.0595  0.2748
 9057SOL    HW127749   4.506   9.248   3.456 -0.1327  2.2323  0.2673
 9057SOL    HW227750   4.399   9.163   3.522  2.0420 -1.3436 -0.5339
 9058SOL     OW27751   6.398   1.348   5.601 -0.5869  0.1735  0.2534
 9058SOL    HW127752   6.470   1.305   5.647  0.0036 -0.0698 -0.8592
 9058SOL    HW227753   6.368   1.416   5.662 -0.1805 -0.4738  1.1975
 9059SOL     OW27754   9.887   8.114   4.417  0.5261  0.2290 -0.7402
 9059SOL    HW127755   9.893   8.101   4.322  0.3408  0.9124 -0.8481
 9059SOL    HW227756   9.800   8.152   4.430  1.0027  1.2593 -0.4323
 9060SOL     OW27757   5.941   0.438   1.333  1.3676  0.5276 -0.4042
 9060SOL    HW127758   5.859   0.407   1.295  0.1265  2.9182  0.1383
 9060SOL    HW227759   5.971   0.506   1.273  1.5740  1.4500  0.7136
 9061SOL     OW27760   6.744   4.357   6.002 -0.4883  0.8806 -0.2350
 9061SOL    HW127761   6.649   4.354   5.995 -0.4903  0.4282 -0.0656
 9061SOL    HW227762   6.774   4.386   5.915 -0.7352  0.0274 -0.6159
 9062SOL     OW27763   4.872   6.285   4.948  0.3537 -0.3583 -0.1459
 9062SOL    HW127764   4.783   6.310   4.974  0.8220  1.5062 -0.1978
 9062SOL    HW227765   4.884   6.327   4.863  0.7801 -1.8502 -0.8435
 9063SOL     OW27766   0.144   0.960   7.994 -0.3941  0.0921 -0.0983
 9063SOL    HW127767   0.186   0.958   8.080  2.4707  1.5145 -1.3290
 9063SOL    HW227768   0.186   1.033   7.949 -1.1956 -1.0996 -2.9958
 9064SOL     OW27769   3.144   2.382   8.894  0.0829 -0.1180 -0.2037
 9064SOL    HW127770   3.182   2.345   8.974 -0.0570  1.4558  0.6361
 9064SOL    HW227771   3.060   2.419   8.922 -0.5911 -0.7215 -1.3718
 9065SOL     OW27772   5.700   7.772   0.054  0.6053  0.2658 -0.6205
 9065SOL    HW127773   5.760   7.701   0.076 -0.8975 -1.0184 -0.4610
 9065SOL    HW227774   5.713   7.785  -0.040 -1.1322 -2.3416 -1.3534
 9066SOL     OW27775   6.183   4.145   1.563  0.6758  0.1174 -0.4358
 9066SOL    HW127776   6.115   4.078   1.560  1.2842 -0.5877  0.5974
 9066SOL    HW227777   6.263   4.099   1.536  1.2146  0.2276  0.8619
 9067SOL     OW27778   7.365   8.714   2.675  0.5636  0.2161  0.0780
 9067SOL    HW127779   7.458   8.705   2.696  0.4204 -1.0268  0.2878
 9067SOL    HW227780   7.338   8.626   2.649 -1.2155 -0.2164  2.8881
 9068SOL     OW27781   6.414   7.753   0.090  0.1475  0.2500 -0.1601
 9068SOL    HW127782   6.422   7.680   0.029 -2.1494 -1.8600  1.8403
 9068SOL    HW227783   6.360   7.817   0.043  0.7153 -0.0629 -1.2926
 9069SOL     OW27784   3.719   0.907   8.723 -0.0916  0.5376  0.0501
 9069SOL    HW127785   3.651   0.946   8.778  0.1479 -1.0368  1.5781
 9069SOL    HW227786   3.798   0.957   8.745 -0.6548  2.2184 -1.5580
 9070SOL     OW27787   9.619   4.930   7.435  0.0273  0.1583  0.5059
 9070SOL    HW127788   9.568   4.850   7.425 -0.8591  0.7585  0.0888
 9070SOL    HW227789   9.632   4.937   7.530  2.9524 -2.1648  0.4167
 9071SOL     OW27790   9.045   1.078   4.653  0.3559 -0.0583 -0.3442
 9071SOL    HW127791   9.000   1.078   4.738  0.2850  2.3697 -0.3023
 9071SOL    HW227792   8.980   1.112   4.591  1.2660  0.9029 -0.7994
 9072SOL     OW27793   2.769   5.883   7.776  0.0646 -0.0017  0.1632
 9072SOL    HW127794   2.707   5.954   7.760 -0.8783 -0.1716  2.5702
 9072SOL    HW227795   2.847   5.907   7.726  0.2680  3.4361  1.8609
 9073SOL     OW27796   5.008   1.690   8.779  0.4304 -0.0740 -0.3423
 9073SOL    HW127797   4.997   1.647   8.863 -0.2498  1.0843  0.1924
 9073SOL    HW227798   4.921   1.686   8.739  0.8958 -1.1971 -1.3062
 9074SOL     OW27799   8.999   5.112   6.949 -0.1265 -0.2985  0.0316
 9074SOL    HW127800   8.972   5.203   6.956 -2.8196 -0.9945 -0.2632
 9074SOL    HW227801   9.055   5.097   7.025 -1.5025  1.0136  1.3780
 9075SOL     OW27802   0.904   0.400   3.175  0.4585 -0.4972 -0.4234
 9075SOL    HW127803   0.923   0.493   3.183  0.0430 -0.4336 -0.1591
 9075SOL    HW227804   0.823   0.387   3.224  0.0415 -0.8411 -1.1866
 9076SOL     OW27805   5.718   4.950   8.847  0.0674  0.8244  0.1082
 9076SOL    HW127806   5.810   4.927   8.853 -0.1848  0.0722  1.5424
 9076SOL    HW227807   5.713   5.038   8.885  0.3987  1.5568 -1.4547
 9077SOL     OW27808   4.301   3.823   9.500  0.1354  0.2739  0.3284
 9077SOL    HW127809   4.262   3.743   9.536  1.5275 -0.2747  0.6523
 9077SOL    HW227810   4.270   3.826   9.409 -0.1343 -0.4962  0.3894
 9078SOL     OW27811   8.358   4.728   1.555 -0.3122  0.5434 -0.1942
 9078SOL    HW127812   8.394   4.816   1.560 -1.2857  0.9194  0.7733
 9078SOL    HW227813   8.375   4.690   1.642 -0.2674 -0.0642 -0.4627
 9079SOL     OW27814   5.407   4.201   6.623  0.7154  0.4042  0.0574
 9079SOL    HW127815   5.447   4.181   6.539  1.4789  1.6463  0.0996
 9079SOL    HW227816   5.335   4.138   6.631 -0.7342  1.6169 -2.4885
 9080SOL     OW27817   2.577   3.165   2.639  0.2884 -0.0105  0.0664
 9080SOL    HW127818   2.501   3.108   2.629  0.6286 -0.4197 -0.2195
 9080SOL    HW227819   2.642   3.111   2.684 -0.6525  1.3041  3.2516
 9081SOL     OW27820   6.225   9.676   9.365 -0.1479 -0.1571 -0.2181
 9081SOL    HW127821   6.252   9.749   9.311 -2.1355  2.2537  1.7869
 9081SOL    HW227822   6.129   9.678   9.362 -0.2862 -2.5714  0.1188
 9082SOL     OW27823   6.941   3.547   4.173  0.0876  0.4756  0.2098
 9082SOL    HW127824   6.889   3.544   4.253 -0.3593 -1.7016 -0.0878
 9082SOL    HW227825   7.028   3.520   4.200 -0.7811 -3.6233 -0.3918
 9083SOL     OW27826   1.598   5.974   2.741 -0.1998 -0.4779 -0.9142
 9083SOL    HW127827   1.536   6.046   2.747 -0.3959 -0.4901 -2.4498
 9083SOL    HW227828   1.542   5.896   2.733 -0.0451 -1.0775  2.3464
 9084SOL     OW27829   6.900   4.893   8.912 -0.3042 -0.8748 -0.0590
 9084SOL    HW127830   6.966   4.945   8.866 -0.0485 -1.6595 -0.6103
 9084SOL    HW227831   6.884   4.819   8.853 -0.5201 -1.5086  0.7892
 9085SOL     OW27832   6.066   3.193   5.603  0.0216 -0.2775  0.0912
 9085SOL    HW127833   6.051   3.147   5.686  0.1589 -1.3019 -0.4443
 9085SOL    HW227834   6.040   3.131   5.536  2.4820 -0.4946 -0.7525
 9086SOL     OW27835   2.948   6.063   6.836  0.3013 -0.2934 -0.4329
 9086SOL    HW127836   2.967   5.969   6.835  0.6176 -0.2901  1.3511
 9086SOL    HW227837   2.856   6.069   6.807  0.9822 -0.8786 -2.9662
 9087SOL     OW27838   2.138   6.231   8.943  0.5178  0.3078 -0.2600
 9087SOL    HW127839   2.068   6.182   8.899  1.7591 -1.0660 -0.8216
 9087SOL    HW227840   2.139   6.316   8.899 -1.2953  0.6601  0.3049
 9088SOL     OW27841   3.318   0.416   0.052  0.4558 -0.0749 -0.7971
 9088SOL    HW127842   3.344   0.344  -0.005 -2.0963 -1.2154 -0.6548
 9088SOL    HW227843   3.362   0.399   0.135  1.0134 -0.6560 -1.2081
 9089SOL     OW27844   1.891   4.042   7.489 -0.0793  0.0418  0.2155
 9089SOL    HW127845   1.911   3.985   7.564 -1.0969 -1.1563 -0.3788
 9089SOL    HW227846   1.911   3.989   7.412 -1.3857  0.3313 -0.3620
 9090SOL     OW27847   8.175   7.696   8.632 -0.2658 -0.2853 -0.0686
 9090SOL    HW127848   8.127   7.779   8.631 -0.1263 -0.2035 -0.7434
 9090SOL    HW227849   8.249   7.710   8.691 -1.6958 -0.7864  1.9718
 9091SOL     OW27850   9.004   0.344   4.076 -0.0655  0.1604  0.0254
 9091SOL    HW127851   8.960   0.272   4.122  1.1207 -0.4999  0.1453
 9091SOL    HW227852   8.998   0.418   4.137 -0.3979 -0.1075  0.3263
 9092SOL     OW27853   3.154   1.730   1.890  0.6933  0.8601  0.1037
 9092SOL    HW127854   3.078   1.676   1.868  0.4039  0.9772  0.8062
 9092SOL    HW227855   3.207   1.729   1.810  0.6310 -0.3516  0.0524
 9093SOL     OW27856   1.482   0.834   8.553  0.2442  0.0940  0.2345
 9093SOL    HW127857   1.525   0.915   8.581 -1.5277  1.6163 -1.2044
 9093SOL    HW227858   1.537   0.801   8.482  1.0572 -0.0740  0.9264
 9094SOL     OW27859   2.445   4.415   0.893  0.2162  0.3946 -0.4419
 9094SOL    HW127860   2.416   4.327   0.867 -0.6600  0.9307 -1.3342
 9094SOL    HW227861   2.540   4.407   0.901  0.0213 -0.9955  0.9703
 9095SOL     OW27862   4.849   4.990   2.362 -0.4515 -0.2159  0.4382
 9095SOL    HW127863   4.849   4.906   2.318 -1.6038  0.6743 -1.3543
 9095SOL    HW227864   4.761   4.998   2.399 -1.1520  1.1093 -1.3588
 9096SOL     OW27865   0.580   6.920   9.601  0.6542 -0.1994 -0.0427
 9096SOL    HW127866   0.624   6.840   9.570  0.9089  0.5969 -1.8294
 9096SOL    HW227867   0.580   6.911   9.697 -0.3109 -2.8530 -0.2010
 9097SOL     OW27868   0.955   8.755   6.588  0.1298 -0.4344 -0.2146
 9097SOL    HW127869   1.036   8.760   6.639 -0.2650  0.7383  0.3465
 9097SOL    HW227870   0.932   8.662   6.588  0.5283 -0.5636  1.1458
 9098SOL     OW27871   4.159   4.136   9.894 -0.5198  0.2497 -0.0305
 9098SOL    HW127872   4.164   4.123   9.799 -2.1977 -2.0318  0.1091
 9098SOL    HW227873   4.214   4.067   9.931  1.3684  2.0337  0.7305
 9099SOL     OW27874   8.788   0.238   7.716 -0.2821 -0.3837 -0.0671
 9099SOL    HW127875   8.770   0.328   7.689  0.2627 -0.0332  0.6906
 9099SOL    HW227876   8.808   0.245   7.809 -1.5665 -1.4744  0.3215
 9100SOL     OW27877   8.800   8.202   9.676  0.1543 -0.1281 -0.0194
 9100SOL    HW127878   8.875   8.162   9.720 -0.2591  0.2630  1.0735
 9100SOL    HW227879   8.832   8.223   9.588  1.9015  1.6276  0.9469
 9101SOL     OW27880   1.048   9.335   6.754 -0.8273 -0.3851 -0.1939
 9101SOL    HW127881   1.015   9.290   6.832 -0.6751  0.1335  0.1750
 9101SOL    HW227882   1.037   9.428   6.774  0.6213 -0.2032 -0.1696
 9102SOL     OW27883   8.883   5.008   4.774  0.3431 -0.4193 -0.5576
 9102SOL    HW127884   8.861   5.091   4.815 -1.0148 -0.3558 -1.3729
 9102SOL    HW227885   8.921   5.032   4.689  0.7158 -0.6169 -0.4512
 9103SOL     OW27886   7.775   6.848   2.054  0.1706 -0.4023 -0.4003
 9103SOL    HW127887   7.755   6.765   2.011 -1.2049 -0.5648  0.5146
 9103SOL    HW227888   7.697   6.901   2.043  1.4500  1.2822 -2.0189
 9104SOL     OW27889   1.091   8.202   5.066  1.0850 -0.2064  1.1776
 9104SOL    HW127890   0.998   8.199   5.088  1.3525  3.0412  3.4701
 9104SOL    HW227891   1.112   8.296   5.065  4.4776 -0.8327  1.3820
 9105SOL     OW27892   1.525   3.388   1.096  0.3946 -0.1618  0.1138
 9105SOL    HW127893   1.564   3.436   1.023 -1.0736 -0.2238 -0.7617
 9105SOL    HW227894   1.485   3.312   1.055  2.2145 -1.9063  1.4113
 9106SOL     OW27895   0.825   8.777   3.230 -0.1669 -0.1540 -0.2818
 9106SOL    HW127896   0.751   8.827   3.197 -0.8291  0.1974  1.6548
 9106SOL    HW227897   0.886   8.843   3.262  0.3429 -0.4956 -0.5289
 9107SOL     OW27898   3.396   2.735   6.982 -0.1890  0.1807 -0.3888
 9107SOL    HW127899   3.320   2.702   6.934  0.0889  1.2656 -1.6268
 9107SOL    HW227900   3.372   2.825   7.006  0.4503  0.3092 -0.2015
 9108SOL     OW27901   8.181   8.609   8.505  0.1296 -0.0676  0.3843
 9108SOL    HW127902   8.172   8.596   8.410 -0.9296  3.6620 -0.1767
 9108SOL    HW227903   8.270   8.579   8.525  0.4052 -0.8912 -1.7874
 9109SOL     OW27904   9.401   7.843   1.890  0.0035  0.3377 -0.1414
 9109SOL    HW127905   9.496   7.853   1.880  0.2781 -0.0479  1.6703
 9109SOL    HW227906   9.381   7.758   1.853  0.3682  0.4278 -0.5458
 9110SOL     OW27907   2.464   0.269   6.788 -0.0024  0.1165  0.1143
 9110SOL    HW127908   2.524   0.284   6.715 -0.1781  1.5339  0.2290
 9110SOL    HW227909   2.488   0.335   6.853 -1.6175  0.7017  0.1804
 9111SOL     OW27910   9.209   3.379   0.105 -0.5131  0.4383 -0.7908
 9111SOL    HW127911   9.220   3.469   0.074 -1.0297  0.9374  0.4100
 9111SOL    HW227912   9.134   3.383   0.164  0.1342 -0.5673  0.1289
 9112SOL     OW27913   1.625   7.374   5.601 -0.4424  0.4050  0.3985
 9112SOL    HW127914   1.686   7.442   5.629 -1.4683  1.7897 -0.6033
 9112SOL    HW227915   1.545   7.390   5.651  0.0327 -1.5929  1.9490
 9113SOL     OW27916   8.611   1.966   3.569  0.0167  0.0177  0.6242
 9113SOL    HW127917   8.642   1.990   3.656 -1.2552 -0.9146  1.3569
 9113SOL    HW227918   8.672   1.897   3.540  1.4329  1.4346  0.0441
 9114SOL     OW27919   8.451   0.828   3.716  0.5327  0.4242  0.0618
 9114SOL    HW127920   8.477   0.872   3.797  0.1555 -0.0524  0.4367
 9114SOL    HW227921   8.532   0.787   3.685  0.3021 -0.8891  1.1280
 9115SOL     OW27922   3.774   8.400   1.383 -0.3760  0.5922 -0.2496
 9115SOL    HW127923   3.848   8.390   1.443 -0.4250 -2.0237 -0.4899
 9115SOL    HW227924   3.811   8.441   1.305  1.1994 -1.8264 -0.8655
 9116SOL     OW27925   8.726   1.374   4.738  0.1853 -0.3794 -0.7559
 9116SOL    HW127926   8.692   1.303   4.793  1.9831 -0.4919  0.2877
 9116SOL    HW227927   8.663   1.445   4.749 -0.6703 -1.1720 -0.3577
 9117SOL     OW27928   6.864   1.826   8.041 -0.2567  0.0454  0.3048
 9117SOL    HW127929   6.776   1.827   8.006 -0.3630  1.0041  0.5472
 9117SOL    HW227930   6.903   1.746   8.008 -1.7942 -1.3275  1.6640
 9118SOL     OW27931   6.535   4.182   3.701  0.1013 -0.1144 -0.9604
 9118SOL    HW127932   6.523   4.087   3.696  0.5133 -0.1118 -2.4996
 9118SOL    HW227933   6.511   4.214   3.614 -0.1825  1.2179 -0.4133
 9119SOL     OW27934   6.763   1.291   6.316 -0.3159  0.9008  0.4671
 9119SOL    HW127935   6.792   1.321   6.229  0.7648 -0.7773  0.2039
 9119SOL    HW227936   6.843   1.264   6.360 -1.1333 -0.8081  0.9705
 9120SOL     OW27937   3.731   0.347   0.103  0.2712  1.0143 -0.4125
 9120SOL    HW127938   3.818   0.362   0.141  0.2073 -1.5385  0.9863
 9120SOL    HW227939   3.734   0.257   0.071 -1.3579  1.4299 -1.9102
 9121SOL     OW27940   3.418   2.951   9.703  0.3677  0.4146  0.1042
 9121SOL    HW127941   3.386   2.865   9.674  0.8711 -0.0013  0.7644
 9121SOL    HW227942   3.366   3.013   9.653  0.2067 -0.2766 -0.6188
 9122SOL     OW27943   6.921   8.416   1.205 -0.4782  0.1005 -0.7019
 9122SOL    HW127944   6.929   8.404   1.300 -0.6569  1.1973 -0.5262
 9122SOL    HW227945   6.831   8.447   1.193 -1.0102 -1.6006 -1.4287
 9123SOL     OW27946   7.067   0.889   7.376 -0.0569 -0.4721  0.0830
 9123SOL    HW127947   7.124   0.825   7.419  1.4953  1.3255  0.8526
 9123SOL    HW227948   7.119   0.922   7.303  0.9317  2.7203  2.0110
 9124SOL     OW27949   1.532   9.829   2.791  0.0150 -0.3645  0.4339
 9124SOL    HW127950   1.567   9.884   2.862 -0.5302 -0.1838  0.5704
 9124SOL    HW227951   1.451   9.794   2.827 -0.5792  0.2173 -0.3288
 9125SOL     OW27952   0.328   6.981   5.834  0.4047 -0.5077 -0.3342
 9125SOL    HW127953   0.273   6.964   5.910  1.5746  0.3287  0.7585
 9125SOL    HW227954   0.377   6.899   5.821  0.4639 -0.5428  0.0677
 9126SOL     OW27955   5.266   3.863   9.529 -0.1174  0.6043 -0.1844
 9126SOL    HW127956   5.212   3.942   9.523 -0.6183  0.2356 -0.6115
 9126SOL    HW227957   5.323   3.866   9.452  0.7887  1.2065  0.4802
 9127SOL     OW27958   0.430   1.766   4.324 -0.2936  0.0608 -0.5896
 9127SOL    HW127959   0.493   1.833   4.352  0.1001 -0.2389 -0.7396
 9127SOL    HW227960   0.476   1.718   4.255 -1.3889  1.0472 -2.0556
 9128SOL     OW27961   1.837   9.683   3.524  0.2751 -0.0295  0.5324
 9128SOL    HW127962   1.826   9.646   3.612  0.1443 -0.4996  0.3256
 9128SOL    HW227963   1.927   9.713   3.522 -0.5578  2.9245  1.9066
 9129SOL     OW27964   8.409   7.226   3.633 -0.1847 -0.4201  0.0228
 9129SOL    HW127965   8.346   7.226   3.560 -0.5909  0.4721  0.3562
 9129SOL    HW227966   8.467   7.300   3.615 -0.1088 -0.3705  0.4503
 9130SOL     OW27967   8.732   0.463   0.931 -0.3191 -0.0390 -0.4252
 9130SOL    HW127968   8.749   0.384   0.880 -2.3041  1.0142 -2.9644
 9130SOL    HW227969   8.742   0.534   0.867 -4.2535  1.2769  0.1527
 9131SOL     OW27970   8.018   0.943   5.226 -0.1703 -0.2228 -0.1558
 9131SOL    HW127971   7.998   0.992   5.305 -1.6600 -0.8179 -0.1210
 9131SOL    HW227972   7.933   0.934   5.182  0.2344 -1.8968 -0.6483
 9132SOL     OW27973   5.584   9.688   7.494 -0.0535 -0.5403  0.0032
 9132SOL    HW127974   5.650   9.618   7.500 -0.6116 -1.1292 -0.5613
 9132SOL    HW227975   5.532   9.679   7.574 -0.1236 -0.7766 -0.0673
 9133SOL     OW27976   0.547   9.964   9.195  0.5846 -0.1584  0.1398
 9133SOL    HW127977   0.605   9.901   9.150  3.0721  1.4426  0.8828
 9133SOL    HW227978   0.606  10.012   9.254 -1.8934  0.3290  2.3842
 9134SOL     OW27979   9.912   7.517   8.428  0.3237 -0.1809 -0.2577
 9134SOL    HW127980   9.987   7.576   8.422 -1.3690  1.9548 -3.8267
 9134SOL    HW227981   9.897   7.487   8.339 -2.4959 -1.2560  0.4686
 9135SOL     OW27982   1.333   4.026   9.927 -0.0453 -0.1307 -0.2412
 9135SOL    HW127983   1.283   3.965   9.981  0.8793  0.2145  1.0447
 9135SOL    HW227984   1.268   4.066   9.869 -1.0027 -0.7642  0.3739
 9136SOL     OW27985   9.161   1.478   4.589  0.0861  0.9702 -0.4241
 9136SOL    HW127986   9.131   1.504   4.502 -0.3251  0.9820 -0.2794
 9136SOL    HW227987   9.235   1.536   4.608  2.5107 -1.2624 -2.2357
 9137SOL     OW27988   7.665   3.190   7.220 -0.2007 -0.0658 -0.3671
 9137SOL    HW127989   7.660   3.184   7.316  0.5131  0.1672 -0.3129
 9137SOL    HW227990   7.618   3.113   7.189 -0.3754 -0.1800  0.1700
 9138SOL     OW27991   5.537   7.501   0.202 -0.1441  0.2693  0.2153
 9138SOL    HW127992   5.506   7.575   0.254  1.1359  0.4019  0.8374
 9138SOL    HW227993   5.624   7.528   0.173  0.5425 -1.1652  0.8533
 9139SOL     OW27994   0.864   2.542   8.712  0.1961  0.1268 -0.7586
 9139SOL    HW127995   0.849   2.452   8.683  1.5817 -0.5070  0.3884
 9139SOL    HW227996   0.946   2.568   8.668 -0.1792  0.8318 -1.0624
 9140SOL     OW27997   1.317   6.447   9.936  0.0497  0.0995  0.1773
 9140SOL    HW127998   1.265   6.367   9.942  1.1669 -0.7196 -0.6271
 9140SOL    HW227999   1.305   6.490  10.021  1.1072 -1.9957  1.4719
 9141SOL     OW28000   3.585   1.541   5.636 -0.0837 -0.2235  0.0816
 9141SOL    HW128001   3.562   1.599   5.564 -1.6043  0.4222  1.0288
 9141SOL    HW228002   3.525   1.467   5.628 -0.8274  0.2400  1.1106
 9142SOL     OW28003   6.811   1.396   1.467  0.2627  0.4439  0.2009
 9142SOL    HW128004   6.831   1.427   1.379  1.1725  1.2231  0.6720
 9142SOL    HW228005   6.724   1.431   1.486  0.1109  0.3666 -0.3374
 9143SOL     OW28006   9.978   4.692   9.801  0.8162  0.1429 -0.3197
 9143SOL    HW128007  10.034   4.631   9.754  1.2764  1.0581 -1.0032
 9143SOL    HW228008   9.930   4.739   9.732  0.3908  0.4702  0.1878
 9144SOL     OW28009   4.811   6.660   0.886  0.7388 -0.6074 -0.3132
 9144SOL    HW128010   4.775   6.580   0.848 -1.0051  0.7328 -1.6480
 9144SOL    HW228011   4.774   6.731   0.834  1.6855  1.1400  1.2398
 9145SOL     OW28012   4.646   5.415   5.889 -0.5213  0.4937  0.5368
 9145SOL    HW128013   4.716   5.464   5.846  0.5098 -0.3134  1.2384
 9145SOL    HW228014   4.574   5.414   5.826  0.4624  0.4859 -0.6065
 9146SOL     OW28015   0.086   6.383   7.696  0.6047 -0.2107  0.1729
 9146SOL    HW128016   0.083   6.323   7.770  2.0286  0.0463  0.4724
 9146SOL    HW228017   0.176   6.377   7.664  0.1985  0.1998 -1.1080
 9147SOL     OW28018   3.646   7.262   1.538 -0.4726  0.3257 -0.3548
 9147SOL    HW128019   3.684   7.310   1.612 -0.2714 -0.5933  0.1559
 9147SOL    HW228020   3.611   7.182   1.578  1.5160 -1.2188 -1.5371
 9148SOL     OW28021   3.707   1.219   1.406 -0.8126 -0.0671 -0.7201
 9148SOL    HW128022   3.709   1.243   1.498  3.0594 -0.3352 -0.5807
 9148SOL    HW228023   3.672   1.130   1.405 -0.8896 -0.0663  0.4914
 9149SOL     OW28024   8.705   0.302   0.116  0.1803  0.9356 -0.4527
 9149SOL    HW128025   8.613   0.292   0.138 -0.3489  3.8557 -0.9133
 9149SOL    HW228026   8.711   0.277   0.024 -0.0077  0.1277 -0.2504
 9150SOL     OW28027   1.725   4.992   0.098 -0.5087 -0.4847 -0.3419
 9150SOL    HW128028   1.741   5.084   0.120  1.0575 -0.7281 -0.3930
 9150SOL    HW228029   1.716   4.948   0.183 -1.1345 -0.3287 -0.3166
 9151SOL     OW28030   8.202   7.517   9.563 -0.1689 -0.4350  0.0730
 9151SOL    HW128031   8.187   7.423   9.565  0.5390 -0.5402  1.8182
 9151SOL    HW228032   8.163   7.550   9.643  1.0234  0.5147  0.3058
 9152SOL     OW28033   1.140   0.055   5.925 -0.2862 -0.5696 -0.1561
 9152SOL    HW128034   1.098   0.137   5.900  1.7738  0.7926  0.6403
 9152SOL    HW228035   1.105   0.036   6.012 -0.8271 -0.5766 -0.3739
 9153SOL     OW28036   9.131   0.077   2.578 -0.0304  0.4279 -0.2327
 9153SOL    HW128037   9.064   0.029   2.626  0.9276  0.0232  0.7431
 9153SOL    HW228038   9.204   0.015   2.571 -0.7361 -0.2571 -3.8792
 9154SOL     OW28039   2.623   0.666   9.732 -0.2331 -0.0408 -0.8243
 9154SOL    HW128040   2.568   0.650   9.809 -0.2877  0.1750 -0.8161
 9154SOL    HW228041   2.696   0.605   9.741  0.8631  1.3874  0.4805
 9155SOL     OW28042   5.356   5.925   6.733  0.0099 -0.3338  0.6516
 9155SOL    HW128043   5.408   5.845   6.736  0.4480 -0.1552 -0.9127
 9155SOL    HW228044   5.266   5.895   6.720  0.5251 -0.6607 -3.4309
 9156SOL     OW28045   9.368   8.222   7.627 -0.6681  0.1928  0.3639
 9156SOL    HW128046   9.304   8.154   7.606 -0.2931 -0.0014 -0.1651
 9156SOL    HW228047   9.452   8.177   7.626 -0.2516  0.9065 -1.3862
 9157SOL     OW28048   1.540   1.266   7.766  0.5744  0.2462  0.4594
 9157SOL    HW128049   1.537   1.330   7.838 -1.1337 -0.0244  0.6526
 9157SOL    HW228050   1.606   1.203   7.795 -0.8302 -0.4584  2.3478
 9158SOL     OW28051   2.767   1.038   0.470 -0.1537 -0.0345  0.1772
 9158SOL    HW128052   2.773   0.944   0.482 -0.6496  0.0403  1.0537
 9158SOL    HW228053   2.858   1.068   0.473  0.1428 -0.6306 -1.5589
 9159SOL     OW28054   9.786   4.932   1.624  0.2542 -0.3393  0.1245
 9159SOL    HW128055   9.835   4.885   1.691 -0.1451 -0.2277  0.5044
 9159SOL    HW228056   9.769   4.866   1.556  1.4012 -0.2361 -0.2755
 9160SOL     OW28057   4.025   7.358   7.549  0.0970 -0.0524 -0.1740
 9160SOL    HW128058   3.989   7.270   7.541  0.5494 -0.2195 -0.4209
 9160SOL    HW228059   4.115   7.344   7.580  0.0503  0.3410  0.1506
 9161SOL     OW28060   1.993   2.797   0.610 -0.6384  0.1599  0.0851
 9161SOL    HW128061   2.053   2.770   0.540 -0.9809  0.0782 -0.1820
 9161SOL    HW228062   1.906   2.793   0.569 -0.7877  0.6848  0.3424
 9162SOL     OW28063   5.879   2.104   4.071  0.2315 -0.0968 -0.5022
 9162SOL    HW128064   5.850   2.112   3.981  0.4483  1.5247 -0.4476
 9162SOL    HW228065   5.974   2.113   4.067  0.1264  1.4690  0.0192
 9163SOL     OW28066   8.068   7.393   2.204  0.3731  0.2269 -0.1956
 9163SOL    HW128067   8.012   7.328   2.163 -0.0611  0.5773 -0.1703
 9163SOL    HW228068   8.132   7.416   2.136 -1.0529  1.6635 -1.1212
 9164SOL     OW28069   4.437   3.177   7.560 -0.3350  0.0129 -0.1075
 9164SOL    HW128070   4.397   3.263   7.570 -0.6921  0.0203 -1.4047
 9164SOL    HW228071   4.366   3.115   7.575  0.1268 -0.1182  1.7882
 9165SOL     OW28072   4.509   7.186   1.876 -0.0226 -0.2571 -0.3081
 9165SOL    HW128073   4.542   7.098   1.858 -1.2167 -0.6543 -0.6452
 9165SOL    HW228074   4.463   7.211   1.796 -0.5358  0.2769  0.1456
 9166SOL     OW28075   9.983   8.222   6.972 -0.3034  0.0746 -0.3494
 9166SOL    HW128076   9.908   8.173   6.941 -0.5272  0.1478  0.0762
 9166SOL    HW228077  10.038   8.158   7.016  0.2088 -0.1089 -1.2241
 9167SOL     OW28078   6.416   3.630   9.988  0.3407 -0.0790 -0.1106
 9167SOL    HW128079   6.353   3.597   9.923 -1.1059 -1.0293  1.6967
 9167SOL    HW228080   6.484   3.563   9.993  0.8100  0.3027 -1.0689
 9168SOL     OW28081   8.920   2.729   4.329 -0.0869 -0.0386  1.0521
 9168SOL    HW128082   9.003   2.739   4.283  0.2083 -0.6703  1.4231
 9168SOL    HW228083   8.945   2.699   4.417 -0.7777 -2.5553  0.4764
 9169SOL     OW28084   0.014   5.755   6.087  0.5012  0.3357  1.0240
 9169SOL    HW128085  -0.069   5.762   6.132 -0.5342 -0.5848 -0.6339
 9169SOL    HW228086   0.078   5.795   6.147 -1.0100  0.5264  2.5780
 9170SOL     OW28087   0.244   8.689   2.515 -0.1546  0.1589 -0.3266
 9170SOL    HW128088   0.286   8.737   2.444 -1.1155  0.7209 -0.5339
 9170SOL    HW228089   0.225   8.603   2.478 -2.4769  1.0772 -1.4878
 9171SOL     OW28090   4.947   4.773   8.524  0.3613  0.0222 -1.1236
 9171SOL    HW128091   4.853   4.788   8.521  0.3668  0.1506 -0.6913
 9171SOL    HW228092   4.978   4.831   8.594  0.6601 -0.5360 -0.7911
 9172SOL     OW28093   0.727   7.230   7.916 -0.0660  0.4826 -0.4063
 9172SOL    HW128094   0.809   7.188   7.941 -2.1262 -3.7481  0.2977
 9172SOL    HW228095   0.710   7.293   7.986  0.9646 -1.0961  1.3658
 9173SOL     OW28096   3.897   1.113   8.818 -0.2965 -0.0509  0.1826
 9173SOL    HW128097   3.957   1.097   8.891  0.4216 -0.4074 -0.4678
 9173SOL    HW228098   3.949   1.164   8.756 -0.4916 -0.8063 -0.6162
 9174SOL     OW28099   4.893   4.547   8.752  0.0877 -0.0571 -0.0685
 9174SOL    HW128100   4.948   4.597   8.691  0.1504 -0.8383 -0.6588
 9174SOL    HW228101   4.843   4.614   8.799  0.9184  0.6228 -0.1250
 9175SOL     OW28102   6.253   5.948   3.180 -0.0189  0.0598 -0.6117
 9175SOL    HW128103   6.191   5.987   3.241 -1.2824 -2.7965  0.0969
 9175SOL    HW228104   6.315   5.900   3.235  0.0062 -0.9349 -1.4766
 9176SOL     OW28105   6.635   9.864   6.661  0.0241  0.0950 -0.3012
 9176SOL    HW128106   6.681   9.780   6.664 -0.1659  0.0057  0.2704
 9176SOL    HW228107   6.692   9.921   6.609  2.4229  0.9504  2.9109
 9177SOL     OW28108   6.296   1.553   6.536 -0.6419 -0.4160 -0.0254
 9177SOL    HW128109   6.233   1.506   6.591 -0.8325 -1.2709 -0.9451
 9177SOL    HW228110   6.381   1.530   6.573 -0.8464  1.8435  2.0906
 9178SOL     OW28111   5.074   2.545   5.536  0.3399 -0.3353 -0.1398
 9178SOL    HW128112   5.067   2.593   5.453  3.6048 -0.0054 -0.3632
 9178SOL    HW228113   5.120   2.464   5.513 -0.2276 -1.0401  1.1122
 9179SOL     OW28114   1.093   5.636   8.316  0.3994  0.0718  0.4938
 9179SOL    HW128115   1.032   5.707   8.293  0.3595 -0.0183  0.3225
 9179SOL    HW228116   1.090   5.632   8.411 -1.1602 -1.0735  0.4368
 9180SOL     OW28117   0.853   5.131   7.913 -0.4776 -0.2452 -0.0356
 9180SOL    HW128118   0.941   5.167   7.902 -0.6280 -0.1472 -0.9746
 9180SOL    HW228119   0.795   5.193   7.869 -1.1959  0.3877  1.7044
 9181SOL     OW28120   5.078   5.821   8.906  0.0151 -0.2149  0.3001
 9181SOL    HW128121   5.037   5.816   8.992  1.4283  1.5676  1.1485
 9181SOL    HW228122   5.119   5.908   8.904  1.6167 -0.9448 -1.4396
 9182SOL     OW28123   5.967   4.160   4.372  0.3433  0.2713 -0.4830
 9182SOL    HW128124   5.963   4.066   4.356  1.2019 -0.0615  1.0891
 9182SOL    HW228125   6.016   4.169   4.453 -0.9152  2.0062  0.1469
 9183SOL     OW28126   0.269   8.238   1.458 -0.1191  0.6356  0.1787
 9183SOL    HW128127   0.224   8.255   1.375  0.9784  0.3587 -0.5022
 9183SOL    HW228128   0.264   8.320   1.506 -1.2711  0.6300  0.0968
 9184SOL     OW28129   8.466   0.049   4.587  0.7741 -0.2195 -0.4614
 9184SOL    HW128130   8.444   0.142   4.587  1.0723 -0.1438 -0.8028
 9184SOL    HW228131   8.402   0.010   4.528  1.0203 -0.1284 -0.7996
 9185SOL     OW28132   3.847   0.991   6.170 -0.4743  0.0917 -0.1734
 9185SOL    HW128133   3.838   1.058   6.237  0.0473 -0.4108  0.4104
 9185SOL    HW228134   3.760   0.951   6.164 -0.4126 -0.1759  0.5521
 9186SOL     OW28135   8.986   8.192   6.660  0.4020 -0.0593 -0.4593
 9186SOL    HW128136   9.057   8.240   6.702 -0.4257 -0.0026  0.9568
 9186SOL    HW228137   9.029   8.123   6.610  1.4624  0.1107  0.1867
 9187SOL     OW28138   3.701   3.644   4.272  0.4730 -0.2489  0.1003
 9187SOL    HW128139   3.780   3.698   4.276 -0.0193  0.4816  0.2394
 9187SOL    HW228140   3.719   3.571   4.332  1.4706 -0.7053 -0.7192
 9188SOL     OW28141   4.521   1.260   7.476  0.4155 -0.9492 -0.5132
 9188SOL    HW128142   4.475   1.204   7.539  1.2716 -0.7749  0.2691
 9188SOL    HW228143   4.575   1.318   7.529 -1.9148  2.0681 -1.1476
 9189SOL     OW28144   9.607   6.339   9.940  0.0291  0.2193  0.2920
 9189SOL    HW128145   9.604   6.346  10.036  0.2637 -1.2945  0.4343
 9189SOL    HW228146   9.516   6.321   9.916 -0.5794  3.3356 -0.0710
 9190SOL     OW28147   3.202   6.358   9.836 -0.1877  0.5143 -0.1692
 9190SOL    HW128148   3.276   6.307   9.871 -1.0747  0.5358  1.9237
 9190SOL    HW228149   3.147   6.293   9.793 -0.0086  0.1405  0.1565
 9191SOL     OW28150   2.496   0.738   4.108  0.1635  0.5103  0.2091
 9191SOL    HW128151   2.455   0.668   4.159  0.7314 -0.0846 -0.1214
 9191SOL    HW228152   2.458   0.819   4.142 -0.2017  0.0645  0.8862
 9192SOL     OW28153   5.720   4.669   4.302 -0.0752  0.1951 -0.8787
 9192SOL    HW128154   5.783   4.659   4.231  0.2338 -1.1162 -0.4375
 9192SOL    HW228155   5.727   4.588   4.353 -0.8642  0.7670  0.1866
 9193SOL     OW28156   9.524   7.914   7.076  0.2535  0.1088 -0.1306
 9193SOL    HW128157   9.496   7.919   7.168  0.8779  0.5310  0.0440
 9193SOL    HW228158   9.442   7.911   7.026 -0.0955  0.4558  0.4096
 9194SOL     OW28159   6.046   2.518   0.519  0.0172 -0.0757  0.3233
 9194SOL    HW128160   6.091   2.576   0.457  1.3828  0.5551  1.8280
 9194SOL    HW228161   6.046   2.566   0.602 -1.6247 -0.9548  0.8819
 9195SOL     OW28162   3.398   7.079   9.275 -0.3105 -0.3082  0.1997
 9195SOL    HW128163   3.436   7.088   9.188  0.5356 -1.4214  0.4266
 9195SOL    HW228164   3.319   7.026   9.263 -0.2182 -0.4224  0.0989
 9196SOL     OW28165   9.861   7.430   9.452 -0.0431  0.0805 -0.0504
 9196SOL    HW128166   9.921   7.388   9.391  1.6182 -0.8655  2.0997
 9196SOL    HW228167   9.867   7.523   9.432  2.1903  0.0182  0.0837
 9197SOL     OW28168   9.429   1.303   5.538 -0.3136 -0.7851  0.1055
 9197SOL    HW128169   9.340   1.302   5.502 -0.5640  1.3123  0.5374
 9197SOL    HW228170   9.472   1.229   5.495 -2.1879 -1.7381 -0.2676
 9198SOL     OW28171   8.779   6.508   4.081 -0.2802 -0.0874 -0.2814
 9198SOL    HW128172   8.695   6.523   4.037  0.4849 -2.5835 -2.8968
 9198SOL    HW228173   8.777   6.568   4.156 -4.6687 -0.4966  0.2370
 9199SOL     OW28174   7.852   3.630   8.981  0.2284  0.1968 -0.1045
 9199SOL    HW128175   7.904   3.580   8.918  0.7779  0.0946  0.4262
 9199SOL    HW228176   7.831   3.567   9.050 -4.2114 -1.0376 -2.2142
 9200SOL     OW28177   2.749   0.904   1.060 -0.4169  0.2974  0.6948
 9200SOL    HW128178   2.711   0.840   1.120  0.4600 -0.4134  0.5144
 9200SOL    HW228179   2.675   0.957   1.032 -1.1342 -0.5129  1.0063
 9201SOL     OW28180   0.147   5.556   5.951  0.4262 -0.1503 -0.1705
 9201SOL    HW128181   0.239   5.564   5.973  0.4456  0.4797 -0.4424
 9201SOL    HW228182   0.102   5.612   6.014  0.2701 -0.1277 -0.2985
 9202SOL     OW28183   7.728   0.224   3.796  0.1152 -0.8816 -0.3991
 9202SOL    HW128184   7.795   0.169   3.837 -0.0659  0.2040  1.4537
 9202SOL    HW228185   7.645   0.187   3.825 -0.0402 -0.6963 -0.6054
 9203SOL     OW28186   2.501   7.227   3.455 -0.9661 -0.0422 -0.0884
 9203SOL    HW128187   2.543   7.175   3.387  0.5412 -0.9283  1.4465
 9203SOL    HW228188   2.517   7.318   3.431 -2.1420 -0.2656 -1.8956
 9204SOL     OW28189   5.781   6.447   1.640  0.3704 -0.6941  0.5982
 9204SOL    HW128190   5.775   6.371   1.697 -1.5653 -0.7087  0.4205
 9204SOL    HW228191   5.754   6.521   1.695  0.1113 -0.4659  0.1676
 9205SOL     OW28192   7.881   3.730   4.132  1.1510 -0.1925 -0.0069
 9205SOL    HW128193   7.905   3.640   4.107  0.5344 -0.1936 -0.6296
 9205SOL    HW228194   7.817   3.718   4.203 -0.7190 -0.3553 -1.6127
 9206SOL     OW28195   9.265   2.616   3.251 -0.2241  0.1331 -0.7701
 9206SOL    HW128196   9.195   2.627   3.186 -0.0337 -0.5177 -1.0875
 9206SOL    HW228197   9.297   2.527   3.238  0.2677  0.2219 -0.2247
 9207SOL     OW28198   7.490   4.353   2.049 -0.3619 -0.0061  0.1828
 9207SOL    HW128199   7.476   4.346   2.143 -0.1879  0.6218  0.2586
 9207SOL    HW228200   7.508   4.446   2.034 -1.6523  0.1401 -0.6456
 9208SOL     OW28201   1.002   9.425   7.396  0.3446 -0.2925 -0.1183
 9208SOL    HW128202   0.985   9.519   7.400 -0.5852 -0.4863  1.0679
 9208SOL    HW228203   0.991   9.395   7.486  0.5895 -1.5485 -0.4907
 9209SOL     OW28204   8.322   8.122   3.256 -0.0918  0.1463  0.4544
 9209SOL    HW128205   8.414   8.115   3.232  0.2032  0.5844  1.3925
 9209SOL    HW228206   8.303   8.040   3.302 -0.1616  0.0719  0.2923
 9210SOL     OW28207   8.481   5.417   0.870  0.0910 -0.8223  0.5698
 9210SOL    HW128208   8.549   5.473   0.909 -0.4570 -0.4512  1.0163
 9210SOL    HW228209   8.401   5.444   0.914 -0.1954 -1.9261  0.7432
 9211SOL     OW28210   6.153   7.747   3.622 -0.1500 -0.5460 -0.1212
 9211SOL    HW128211   6.148   7.791   3.707  0.8208 -1.6379  0.5195
 9211SOL    HW228212   6.245   7.725   3.612 -0.0741  0.4147 -1.9229
 9212SOL     OW28213   7.670   3.879   6.465 -0.3919 -0.6283  0.2973
 9212SOL    HW128214   7.732   3.903   6.395 -1.0278 -0.2485 -0.1485
 9212SOL    HW228215   7.659   3.784   6.456 -0.9053 -0.5017 -0.4959
 9213SOL     OW28216   3.448   5.058   0.937  0.4074  0.1147 -0.0910
 9213SOL    HW128217   3.443   5.105   0.854  0.0318  1.1560  0.4964
 9213SOL    HW228218   3.369   5.085   0.984  0.1053 -1.2295  0.2233
 9214SOL     OW28219   0.244   6.765   9.579  0.7919 -0.3057  0.0713
 9214SOL    HW128220   0.163   6.813   9.594  1.0964  1.1208 -2.2891
 9214SOL    HW228221   0.240   6.691   9.640 -1.9580  0.0585  0.4605
 9215SOL     OW28222   5.110   8.189   6.278 -0.5286  0.0035 -0.0657
 9215SOL    HW128223   5.137   8.247   6.349  0.6346 -0.7096  0.0981
 9215SOL    HW228224   5.035   8.141   6.314 -0.4805  0.2476  0.3657
 9216SOL     OW28225   2.383   2.718   6.413  0.4582 -0.0248 -1.0592
 9216SOL    HW128226   2.456   2.656   6.406  0.0916 -0.5475 -0.4074
 9216SOL    HW228227   2.393   2.776   6.338  1.4453 -0.1987 -1.0753
 9217SOL     OW28228   0.289   9.338   8.745 -0.0676  0.0277  0.2771
 9217SOL    HW128229   0.356   9.281   8.781 -1.7153 -1.5220  1.0516
 9217SOL    HW228230   0.257   9.388   8.820  0.2888  0.8775 -0.1164
 9218SOL     OW28231   8.638   8.294   8.168  0.0842  0.0068  0.0170
 9218SOL    HW128232   8.554   8.338   8.152 -0.3568 -0.6370  0.5290
 9218SOL    HW228233   8.616   8.221   8.225  0.4814 -2.0422 -2.2621
 9219SOL     OW28234   9.337   2.835   3.052  0.1240  0.2076  0.3918
 9219SOL    HW128235   9.411   2.864   3.106  0.7889 -1.3684  0.3838
 9219SOL    HW228236   9.301   2.761   3.100  1.4812 -2.0373 -1.8257
 9220SOL     OW28237   5.534   0.183   0.964 -0.1698  0.1920 -0.0846
 9220SOL    HW128238   5.453   0.177   1.013  0.5896  0.5989  1.2704
 9220SOL    HW228239   5.585   0.106   0.991 -0.2816 -0.3410 -1.3040
 9221SOL     OW28240   7.593   1.618   4.659 -0.7884  0.0085  0.2433
 9221SOL    HW128241   7.515   1.673   4.666 -1.6876 -1.0788 -0.9108
 9221SOL    HW228242   7.577   1.562   4.583  1.4323  0.2519 -0.4877
 9222SOL     OW28243   4.603   6.450   5.677  0.3706 -0.3489  0.2816
 9222SOL    HW128244   4.512   6.437   5.703 -0.0222 -0.1162 -0.9064
 9222SOL    HW228245   4.612   6.544   5.665  0.9699 -0.2996  1.0711
 9223SOL     OW28246   2.798   7.559   0.416  0.4572  0.4299  0.0118
 9223SOL    HW128247   2.832   7.648   0.407 -0.5491  0.6868 -1.5967
 9223SOL    HW228248   2.800   7.523   0.327 -0.6302 -0.5964  0.3807
 9224SOL     OW28249   8.915   5.727   2.549  0.1197  0.0042  0.3049
 9224SOL    HW128250   8.959   5.642   2.543  1.7995  0.8252  0.6659
 9224SOL    HW228251   8.876   5.727   2.636 -0.1658 -0.5115  0.1854
 9225SOL     OW28252   9.894   2.205   9.120  0.3781 -0.4010  0.4746
 9225SOL    HW128253   9.962   2.268   9.143  0.6859 -0.6201  0.1566
 9225SOL    HW228254   9.818   2.259   9.097  0.5646 -0.1544  0.4448
 9226SOL     OW28255   5.985   1.365   4.231  0.5568  0.1561 -0.6976
 9226SOL    HW128256   6.001   1.455   4.201 -2.3053  1.8575  2.2790
 9226SOL    HW228257   5.907   1.337   4.183 -0.0897  0.2990  0.2514
 9227SOL     OW28258   1.260   1.697   9.897 -0.1146 -0.7808  0.3332
 9227SOL    HW128259   1.213   1.766   9.944  0.5391  0.1090 -0.2744
 9227SOL    HW228260   1.192   1.640   9.864 -0.6570 -0.6086  1.1157
 9228SOL     OW28261   4.997   7.044   0.093  0.0568  0.3270 -0.3762
 9228SOL    HW128262   5.061   7.105   0.058 -0.5129  1.2495  0.1465
 9228SOL    HW228263   4.997   6.971   0.032  1.5491  0.3384 -0.4235
 9229SOL     OW28264   2.888   1.367   5.244  0.2921  0.1372  0.2585
 9229SOL    HW128265   2.874   1.432   5.175  0.3842 -1.4876 -1.3667
 9229SOL    HW228266   2.894   1.283   5.197  1.2644 -0.9252  2.1685
 9230SOL     OW28267   5.878   2.138   6.317 -0.0789 -0.4059  0.0604
 9230SOL    HW128268   5.921   2.131   6.231  1.9065 -1.6952  1.0743
 9230SOL    HW228269   5.785   2.125   6.299  0.3969 -1.5445 -1.7952
 9231SOL     OW28270   2.289   8.821   9.480 -0.3146 -0.5780 -0.0492
 9231SOL    HW128271   2.285   8.913   9.455 -0.7654 -0.8658 -1.0879
 9231SOL    HW228272   2.359   8.784   9.427  0.0047 -0.8000  0.5125
 9232SOL     OW28273   9.391   5.930   5.175  0.2217  0.1473 -0.0639
 9232SOL    HW128274   9.297   5.937   5.160  0.5134  0.8757 -1.9309
 9232SOL    HW228275   9.411   5.838   5.161 -0.4246 -0.3984  2.1642
 9233SOL     OW28276   6.724   2.897   0.613  0.0669 -0.0969 -0.1454
 9233SOL    HW128277   6.774   2.827   0.570  0.3912 -0.5326  0.8858
 9233SOL    HW228278   6.773   2.915   0.694  0.3333  1.7772 -0.6764
 9234SOL     OW28279   5.891   4.830   3.012 -0.4369 -0.3126  0.0469
 9234SOL    HW128280   5.883   4.845   3.106 -0.5015 -0.0776  0.0052
 9234SOL    HW228281   5.834   4.755   2.995 -0.2091 -0.5313  0.2385
 9235SOL     OW28282   2.743   6.601   7.397 -0.2581 -0.1478 -0.0462
 9235SOL    HW128283   2.688   6.526   7.377 -0.1121 -0.5764  1.1081
 9235SOL    HW228284   2.717   6.668   7.333 -1.2771 -0.7427 -0.2624
 9236SOL     OW28285   9.045   6.822   6.383 -0.3037 -0.4531 -0.2644
 9236SOL    HW128286   9.060   6.891   6.448 -0.3427 -0.1595 -0.5662
 9236SOL    HW228287   8.956   6.837   6.353 -0.5913 -1.1114  0.2293
 9237SOL     OW28288   5.291   7.348   4.787  0.0555 -1.0663  0.4109
 9237SOL    HW128289   5.338   7.408   4.844  1.3680 -2.8816  1.3033
 9237SOL    HW228290   5.288   7.393   4.702  1.3493  0.0786  0.9482
 9238SOL     OW28291   4.282   2.596   2.811  0.0559 -0.2343 -0.0295
 9238SOL    HW128292   4.280   2.683   2.850  0.6477 -0.3703  0.3168
 9238SOL    HW228293   4.200   2.590   2.761  1.6203  1.9356 -3.1668
 9239SOL     OW28294   7.584   3.187   1.716 -0.6255 -0.1873 -0.2030
 9239SOL    HW128295   7.664   3.184   1.664 -0.4000 -0.2282  0.1410
 9239SOL    HW228296   7.535   3.110   1.688 -1.1698  0.5639 -1.3854
 9240SOL     OW28297   6.082   4.565   2.110  0.3373 -0.3001  0.1907
 9240SOL    HW128298   6.053   4.617   2.185 -3.2803 -0.4017 -0.9259
 9240SOL    HW228299   6.040   4.480   2.122  0.4508 -0.6304 -1.4538
 9241SOL     OW28300   8.153   3.306   6.536 -0.4594 -0.8402 -0.1364
 9241SOL    HW128301   8.163   3.342   6.447  2.5460 -2.0210 -0.3841
 9241SOL    HW228302   8.068   3.340   6.566 -0.6206  1.2941 -2.6499
 9242SOL     OW28303   8.250   0.910   3.403 -0.4611  0.1753  0.4367
 9242SOL    HW128304   8.237   0.846   3.334  1.5580 -0.0140  0.1894
 9242SOL    HW228305   8.217   0.867   3.482 -0.5602 -0.5474  0.0122
 9243SOL     OW28306   4.320   9.487   0.769 -0.2199 -0.9043  0.2386
 9243SOL    HW128307   4.300   9.487   0.862  1.9434  0.3169  0.7935
 9243SOL    HW228308   4.393   9.426   0.760  0.7325  0.2604 -0.3100
 9244SOL     OW28309   8.917   7.414   5.553  0.5355 -0.7265  0.1927
 9244SOL    HW128310   8.915   7.341   5.492 -0.7780 -0.6196  0.0929
 9244SOL    HW228311   8.849   7.474   5.523  0.2769 -0.3759  1.3925
 9245SOL     OW28312   6.368   0.617   1.783 -0.0121 -0.0782  0.3564
 9245SOL    HW128313   6.371   0.701   1.829  0.2342 -0.1575  0.4829
 9245SOL    HW228314   6.322   0.637   1.701  0.0825  0.1866  0.3668
 9246SOL     OW28315   9.906   6.778   7.508  0.6882  0.0841  0.0557
 9246SOL    HW128316   9.853   6.734   7.442  0.3710  1.2535 -0.4845
 9246SOL    HW228317   9.977   6.716   7.527  0.8369 -0.2372 -1.4450
 9247SOL     OW28318   4.213   3.066   7.753  0.2172  0.3855 -0.1290
 9247SOL    HW128319   4.177   2.998   7.697  2.2415 -1.0111  0.1638
 9247SOL    HW228320   4.138   3.119   7.778 -1.2511 -1.0605 -1.2831
 9248SOL     OW28321   7.770   9.125   1.412 -0.2636 -0.0521 -0.1955
 9248SOL    HW128322   7.698   9.095   1.467 -0.0896  0.8325  0.5297
 9248SOL    HW228323   7.826   9.048   1.401 -0.6806 -0.4199  0.2460
 9249SOL     OW28324   7.810   5.200   1.708 -0.6082  0.2437 -0.0329
 9249SOL    HW128325   7.820   5.267   1.776  2.5517 -0.1123  0.0128
 9249SOL    HW228326   7.787   5.121   1.756  0.5218  0.2406  0.5382
 9250SOL     OW28327   0.565   9.502   9.925 -0.0824  0.1250  0.5802
 9250SOL    HW128328   0.470   9.496   9.927 -0.1119  0.7028  1.5078
 9250SOL    HW228329   0.595   9.428   9.978  0.1264 -1.8877 -2.1011
 9251SOL     OW28330   8.226   5.376   4.826 -0.0313 -0.3585  0.7032
 9251SOL    HW128331   8.137   5.389   4.794  0.3966  0.6624 -0.1260
 9251SOL    HW228332   8.221   5.299   4.883 -1.3097 -0.6829  0.1636
 9252SOL     OW28333   6.167   3.526   6.799 -0.2848  1.0243 -0.7880
 9252SOL    HW128334   6.241   3.554   6.744  1.6305 -1.9677  0.0240
 9252SOL    HW228335   6.150   3.436   6.772 -1.1317  0.3979  1.6204
 9253SOL     OW28336   0.967   8.909   5.341 -0.5301 -0.0403 -0.3999
 9253SOL    HW128337   1.040   8.875   5.288 -0.0515 -1.7994  1.2759
 9253SOL    HW228338   0.889   8.873   5.299 -0.3403  0.3957 -1.1612
 9254SOL     OW28339   4.048   4.432   6.102  0.1747 -0.2779  0.1141
 9254SOL    HW128340   4.131   4.390   6.125 -0.5684 -1.5760  0.5289
 9254SOL    HW228341   4.032   4.403   6.012 -0.6358 -1.4333  0.6046
 9255SOL     OW28342   3.583   5.805   4.977  0.0860  0.6996  0.3353
 9255SOL    HW128343   3.590   5.880   4.918  2.1092 -0.4125 -0.9450
 9255SOL    HW228344   3.609   5.839   5.062 -0.1838  1.7099  0.0305
 9256SOL     OW28345   7.430   4.577   4.530  0.1426 -0.2774  0.2363
 9256SOL    HW128346   7.409   4.491   4.565 -1.5196 -0.3906 -0.9100
 9256SOL    HW228347   7.379   4.638   4.584 -0.3715 -0.2182 -0.3090
 9257SOL     OW28348   8.765   6.416   0.646  0.1664  0.7660  0.0039
 9257SOL    HW128349   8.860   6.432   0.644  0.3718 -0.3845 -0.4095
 9257SOL    HW228350   8.731   6.480   0.708  1.3328  0.6267  0.8144
 9258SOL     OW28351   0.404   7.319   0.523 -0.2019  0.1347  0.1471
 9258SOL    HW128352   0.326   7.347   0.476  0.0042  1.3386  0.4633
 9258SOL    HW228353   0.390   7.227   0.543 -1.7075  0.4247  0.5301
 9259SOL     OW28354   9.621   5.710   7.275  0.2262  0.0011  0.3416
 9259SOL    HW128355   9.650   5.619   7.271  0.5428  0.1313 -1.8835
 9259SOL    HW228356   9.538   5.707   7.322  0.3138 -1.4142  0.4332
 9260SOL     OW28357   2.894   6.716   0.658 -0.6739  0.2872 -0.0169
 9260SOL    HW128358   2.805   6.680   0.656 -0.1850 -1.0136  0.7661
 9260SOL    HW228359   2.924   6.710   0.567 -0.8125 -0.7950 -0.0087
 9261SOL     OW28360   3.536   7.959   5.139 -0.0411  0.1423 -0.1368
 9261SOL    HW128361   3.493   8.039   5.107 -1.5382 -0.9742 -1.0452
 9261SOL    HW228362   3.612   7.949   5.081 -1.0559 -0.2249 -1.4576
 9262SOL     OW28363   8.560   6.503   8.842  0.1333 -0.2011  0.5202
 9262SOL    HW128364   8.611   6.574   8.880 -0.1379  1.1740 -1.5340
 9262SOL    HW228365   8.519   6.460   8.917  0.1381  1.9389  1.8139
 9263SOL     OW28366   6.909   3.209   7.786  0.3970 -0.2379  0.4581
 9263SOL    HW128367   6.813   3.214   7.786  0.3421 -0.1567 -1.9955
 9263SOL    HW228368   6.936   3.276   7.724  2.0423 -0.5139  0.8406
 9264SOL     OW28369   9.394   4.044   4.811  0.5241 -0.1558 -0.0052
 9264SOL    HW128370   9.308   4.073   4.781 -0.1814 -1.7055  0.4191
 9264SOL    HW228371   9.456   4.093   4.757 -0.6242  0.6471 -0.6363
 9265SOL     OW28372   0.551   1.619   2.545 -0.7740  0.5333 -0.0739
 9265SOL    HW128373   0.638   1.583   2.533 -0.3104  1.1915  1.1767
 9265SOL    HW228374   0.553   1.660   2.631 -1.8062  2.0059 -0.6987
 9266SOL     OW28375   2.841   9.032   0.603  0.2571  0.1079  0.4070
 9266SOL    HW128376   2.832   9.071   0.515  0.9307 -0.1825  0.2043
 9266SOL    HW228377   2.788   9.089   0.659  0.5999  0.8777 -0.0182
 9267SOL     OW28378   0.450   3.262   4.348  0.3114  0.6250 -0.1485
 9267SOL    HW128379   0.413   3.334   4.295  0.2249  0.7534  0.0853
 9267SOL    HW228380   0.374   3.208   4.370  0.1675  1.2177  0.8404
 9268SOL     OW28381   3.020   2.401   6.148 -0.1327 -0.1319  0.2220
 9268SOL    HW128382   3.007   2.458   6.073  0.1957 -0.3559 -0.0091
 9268SOL    HW228383   2.933   2.369   6.169 -0.2172 -0.1274 -0.1133
 9269SOL     OW28384   1.654   5.110   2.774 -0.0906  0.2008 -0.6116
 9269SOL    HW128385   1.690   5.180   2.718 -3.3387  0.4722 -2.5894
 9269SOL    HW228386   1.615   5.048   2.713  1.5819 -2.8373  1.1595
 9270SOL     OW28387   2.280   6.131   7.505  0.3616  0.1704  0.1484
 9270SOL    HW128388   2.186   6.121   7.486  0.3474 -0.2096  0.4085
 9270SOL    HW228389   2.322   6.122   7.420  0.1404  0.6811 -0.0223
 9271SOL     OW28390   1.226   5.877   9.739 -0.4576 -0.1390 -0.5107
 9271SOL    HW128391   1.267   5.925   9.666 -1.3795 -0.5136 -1.2906
 9271SOL    HW228392   1.216   5.788   9.706 -0.1583 -0.5093  0.3790
 9272SOL     OW28393   1.920   1.921   0.048  0.5429 -0.3885  0.3283
 9272SOL    HW128394   1.944   2.014   0.038 -0.4457 -0.0681  0.8229
 9272SOL    HW228395   1.834   1.923   0.091  0.5158 -1.5396  0.3479
 9273SOL     OW28396   6.740   5.584   1.303  0.2755 -0.3274  0.6052
 9273SOL    HW128397   6.655   5.627   1.318  0.2859  0.9317 -2.2744
 9273SOL    HW228398   6.748   5.581   1.208  2.6239 -2.2281  0.7798
 9274SOL     OW28399   9.496   9.316   0.236  0.0801 -0.1077 -0.4684
 9274SOL    HW128400   9.467   9.360   0.316  0.8441  3.2741 -1.8459
 9274SOL    HW228401   9.449   9.233   0.235 -2.3953  1.1042  1.8923
 9275SOL     OW28402   0.954   3.669   5.336  0.2257  0.4984  0.3067
 9275SOL    HW128403   0.887   3.659   5.268  0.8190 -0.4064 -0.1737
 9275SOL    HW228404   0.924   3.743   5.389 -1.6974 -0.5026  0.7203
 9276SOL     OW28405   8.843   1.535   1.201  0.6761 -0.3305  0.6817
 9276SOL    HW128406   8.835   1.619   1.245 -0.8760 -1.6344  3.1302
 9276SOL    HW228407   8.913   1.548   1.136 -0.9073  3.3811 -0.5656
 9277SOL     OW28408   9.572   6.068   7.918  0.0982  0.6626  0.5678
 9277SOL    HW128409   9.566   6.143   7.976  2.5956  1.5763 -0.2186
 9277SOL    HW228410   9.570   5.992   7.976  0.1395  1.4398  1.6088
 9278SOL     OW28411   5.245   7.764   4.032 -0.3436 -0.2510  0.1919
 9278SOL    HW128412   5.226   7.826   3.961 -0.8464 -1.8505 -1.1370
 9278SOL    HW228413   5.221   7.679   3.996  0.7897 -1.2961  1.7871
 9279SOL     OW28414   8.707   3.871   9.205  0.3025  0.2607  0.5787
 9279SOL    HW128415   8.639   3.937   9.190 -0.3469 -0.6364 -0.6051
 9279SOL    HW228416   8.786   3.922   9.223  0.1516  1.4438 -1.7501
 9280SOL     OW28417   8.448   3.733   1.250 -0.5990 -0.2785  0.6708
 9280SOL    HW128418   8.470   3.672   1.180  0.3608 -0.6536  1.2715
 9280SOL    HW228419   8.352   3.731   1.254 -0.5984 -1.9333  0.8135
 9281SOL     OW28420   1.683   7.525   4.697 -0.6491  0.6514 -0.1901
 9281SOL    HW128421   1.733   7.529   4.779  0.1171  0.0407 -0.6111
 9281SOL    HW228422   1.722   7.594   4.642  0.6176 -0.6528 -0.9828
 9282SOL     OW28423   1.581   4.210   6.062  0.3754  0.1681 -0.4023
 9282SOL    HW128424   1.653   4.241   6.006  1.2637  0.8103  1.0188
 9282SOL    HW228425   1.504   4.256   6.029  1.3250  2.5106  0.4144
 9283SOL     OW28426   1.533   2.841   2.578 -0.4823  0.1791 -0.3216
 9283SOL    HW128427   1.445   2.811   2.600 -0.0816 -1.2739 -0.5724
 9283SOL    HW228428   1.583   2.834   2.659 -0.5948  1.0267 -0.1722
 9284SOL     OW28429   3.441   5.852   0.110  0.2250 -0.2970  0.2298
 9284SOL    HW128430   3.477   5.765   0.122  0.5583 -0.6919 -2.8628
 9284SOL    HW228431   3.486   5.887   0.033 -1.8471  1.5004 -0.2730
 9285SOL     OW28432   5.856   0.804   2.646  0.4586 -0.0516  0.3509
 9285SOL    HW128433   5.824   0.789   2.557  1.1668 -0.7668  0.2059
 9285SOL    HW228434   5.803   0.746   2.700 -1.9312  2.3711  0.8353
 9286SOL     OW28435   7.883   9.140   9.634  0.0003 -0.5517  0.0988
 9286SOL    HW128436   7.923   9.123   9.548 -0.1487 -0.2790 -0.0278
 9286SOL    HW228437   7.911   9.229   9.655 -1.2459 -0.0298 -0.3875
 9287SOL     OW28438   7.147   5.606   7.032  0.0179 -0.0889  0.1826
 9287SOL    HW128439   7.120   5.606   6.940  0.2632  0.5823  0.1056
 9287SOL    HW228440   7.070   5.575   7.079  0.2354 -1.5082 -0.3336
 9288SOL     OW28441   8.624   0.801   0.885  0.1276 -0.6331 -0.1591
 9288SOL    HW128442   8.683   0.812   0.959  0.5543  0.0151 -0.5809
 9288SOL    HW228443   8.681   0.772   0.813  0.0140  0.3188 -0.6597
 9289SOL     OW28444   1.022   1.099   9.785 -0.4528  0.2292  0.2603
 9289SOL    HW128445   1.112   1.112   9.815 -1.1086 -0.7424  2.9505
 9289SOL    HW228446   1.027   1.026   9.723  0.4124 -1.3619  2.0800
 9290SOL     OW28447   2.894   3.999   3.422 -0.1847  0.5929 -0.5739
 9290SOL    HW128448   2.853   4.084   3.435 -1.9455 -0.1760 -0.8909
 9290SOL    HW228449   2.841   3.957   3.354  0.7821 -0.6876 -0.5691
 9291SOL     OW28450   2.587   1.198   3.418  0.8505 -0.1616  0.0781
 9291SOL    HW128451   2.670   1.242   3.436  0.4611  0.2701  0.9288
 9291SOL    HW228452   2.610   1.123   3.364  1.4160  1.7051 -2.4453
 9292SOL     OW28453   1.686   6.279   8.867 -0.1348 -0.0114 -0.0172
 9292SOL    HW128454   1.694   6.364   8.911  1.9040  0.1186 -0.5391
 9292SOL    HW228455   1.705   6.215   8.935  3.0825  0.1927 -0.5391
 9293SOL     OW28456   2.059   3.840   6.149 -0.2159 -0.1727 -0.3623
 9293SOL    HW128457   2.145   3.828   6.109  0.1046 -1.0780  0.5460
 9293SOL    HW228458   2.078   3.861   6.241 -0.9491 -1.8668  0.2229
 9294SOL     OW28459   4.367   9.559   6.498 -0.2212 -0.0672 -0.2909
 9294SOL    HW128460   4.333   9.627   6.556  2.0607  1.8070 -0.9914
 9294SOL    HW228461   4.461   9.576   6.492  0.1894 -2.2810 -1.8567
 9295SOL     OW28462   7.291   3.456   0.285  0.3128  0.2460  0.2603
 9295SOL    HW128463   7.347   3.424   0.356  0.9961  1.6092  0.3706
 9295SOL    HW228464   7.351   3.502   0.226 -0.2228 -0.9293 -1.2851
 9296SOL     OW28465   5.470   2.331   9.151 -0.3476 -0.1392 -0.7451
 9296SOL    HW128466   5.439   2.243   9.130 -0.3069  0.1277 -2.0581
 9296SOL    HW228467   5.391   2.384   9.156 -0.2826  0.0673 -1.6726
 9297SOL     OW28468   5.602   9.442   2.270 -0.2089 -0.5541  0.3368
 9297SOL    HW128469   5.539   9.434   2.199  1.8356  0.3296 -1.7209
 9297SOL    HW228470   5.550   9.464   2.347 -2.2737  1.9714 -1.5993
 9298SOL     OW28471   5.255   1.062   0.772  0.0084 -0.1681 -0.4069
 9298SOL    HW128472   5.196   1.025   0.838  1.1129  1.1350  1.4360
 9298SOL    HW228473   5.231   1.154   0.768  0.3015 -0.1303 -1.4953
 9299SOL     OW28474   5.573   2.964   2.980 -0.1437  0.1678  0.1725
 9299SOL    HW128475   5.519   2.953   3.058  0.9196 -1.1607  0.7730
 9299SOL    HW228476   5.656   2.997   3.013  1.6706 -3.8311  0.2508
 9300SOL     OW28477   4.705   8.176   2.991  0.3515 -0.0450  0.3310
 9300SOL    HW128478   4.788   8.132   2.973 -0.7655 -1.6630 -1.2058
 9300SOL    HW228479   4.662   8.184   2.905 -0.9098  1.1711  1.0158
 9301SOL     OW28480   2.797   4.060   5.781  0.2072  0.3126  0.2595
 9301SOL    HW128481   2.705   4.081   5.801 -0.9410 -2.2958 -1.6918
 9301SOL    HW228482   2.811   4.098   5.694  1.2616  1.3039  0.8396
 9302SOL     OW28483   4.060   8.578   7.495  0.6095  0.0744  0.1088
 9302SOL    HW128484   4.060   8.497   7.444  0.0848  0.1446 -0.0078
 9302SOL    HW228485   4.150   8.587   7.526  1.4241  1.0015 -2.3151
 9303SOL     OW28486   5.705   6.665   1.792  0.3589  0.3056  0.0636
 9303SOL    HW128487   5.722   6.599   1.858  1.6719  0.8108  0.2533
 9303SOL    HW228488   5.646   6.727   1.836 -0.6041 -0.5317 -0.0078
 9304SOL     OW28489   6.625   6.005   3.507  0.6462  0.4784 -0.4053
 9304SOL    HW128490   6.670   6.060   3.443 -0.6101 -2.5599 -4.3610
 9304SOL    HW228491   6.690   5.939   3.532  0.7962  1.0054  0.6425
 9305SOL     OW28492   8.881   5.253   0.228  0.0681 -0.5645 -0.0661
 9305SOL    HW128493   8.892   5.347   0.242  0.5806 -0.4716 -1.0476
 9305SOL    HW228494   8.947   5.212   0.284 -1.4521 -0.4751  1.9449
 9306SOL     OW28495   6.049   6.766   0.794  0.1242  0.3582  0.3208
 9306SOL    HW128496   6.090   6.679   0.791  3.3824  1.7747  0.3293
 9306SOL    HW228497   6.014   6.772   0.883 -2.1236 -1.6579 -0.2984
 9307SOL     OW28498   0.288   9.920   7.735 -0.4873  0.2757  0.4454
 9307SOL    HW128499   0.284   9.993   7.797  0.4822 -0.3270  1.2385
 9307SOL    HW228500   0.217   9.862   7.761 -0.0081 -0.0331  1.0725
 9308SOL     OW28501   4.533   3.837   1.444  0.0917 -0.7642 -0.5568
 9308SOL    HW128502   4.515   3.777   1.372  0.6707 -0.7119 -0.7549
 9308SOL    HW228503   4.495   3.920   1.416  0.2777 -0.7551 -0.7861
 9309SOL     OW28504   4.606   5.188   3.009 -0.1296  0.1259 -0.0226
 9309SOL    HW128505   4.693   5.166   2.975  0.5845  1.3999  0.9012
 9309SOL    HW228506   4.623   5.224   3.096 -1.4629  1.6761 -0.3682
 9310SOL     OW28507   5.443   4.814   1.220 -0.8277 -0.0101  0.4916
 9310SOL    HW128508   5.517   4.875   1.218 -0.2382 -0.6947  0.6855
 9310SOL    HW228509   5.371   4.864   1.258 -0.4181  0.6234  0.4528
 9311SOL     OW28510   3.248   3.047   1.300 -0.1860  0.1143 -0.7883
 9311SOL    HW128511   3.249   3.127   1.354 -1.3283 -0.2139 -0.2425
 9311SOL    HW228512   3.329   3.002   1.323 -0.3562  0.2853  0.2244
 9312SOL     OW28513   9.481   0.923   7.151 -0.0663 -0.0758 -0.1968
 9312SOL    HW128514   9.503   1.014   7.172  2.0635 -0.7081  0.6288
 9312SOL    HW228515   9.541   0.900   7.079  0.1218 -1.0982  0.2684
 9313SOL     OW28516   8.780   9.805   9.456  0.2564 -0.3881  0.0628
 9313SOL    HW128517   8.829   9.733   9.417 -0.0568 -0.7956  0.3943
 9313SOL    HW228518   8.846   9.869   9.483  0.6673 -1.1756  1.0042
 9314SOL     OW28519   3.565   8.225   3.944  0.1639  0.2171 -0.0994
 9314SOL    HW128520   3.535   8.138   3.971  1.4716 -0.6896 -1.4099
 9314SOL    HW228521   3.524   8.240   3.860  0.4642  0.5746 -0.1856
 9315SOL     OW28522   6.734   1.088   3.297 -0.1851 -0.0165 -0.7038
 9315SOL    HW128523   6.745   1.109   3.390  1.0329  1.0342 -1.0565
 9315SOL    HW228524   6.718   0.994   3.296  2.6732 -0.6223  0.4158
 9316SOL     OW28525   3.212   5.652   2.670 -0.0520 -0.5980  0.2130
 9316SOL    HW128526   3.167   5.569   2.685 -0.2774 -0.9826 -2.1046
 9316SOL    HW228527   3.269   5.634   2.595 -0.5406  1.4728 -0.7103
 9317SOL     OW28528   3.080   0.546   6.378 -0.3379 -0.7238 -0.5161
 9317SOL    HW128529   3.159   0.545   6.432 -1.0972  0.1793  0.6577
 9317SOL    HW228530   3.008   0.562   6.440 -1.1122  1.8130 -1.9305
 9318SOL     OW28531   0.359   6.310   7.626 -0.2872  0.4257 -0.2954
 9318SOL    HW128532   0.433   6.267   7.584 -0.4389  0.0165 -0.1501
 9318SOL    HW228533   0.368   6.402   7.602  0.5178  0.4542  0.0802
 9319SOL     OW28534   7.678   6.405   3.471 -0.2481 -0.6495 -0.1538
 9319SOL    HW128535   7.632   6.445   3.544 -0.9492  1.3081 -1.5773
 9319SOL    HW228536   7.608   6.379   3.411  0.3711 -0.4294 -0.9915
 9320SOL     OW28537   2.652   4.096   3.723  0.5971 -0.0706 -0.1223
 9320SOL    HW128538   2.647   4.136   3.636  0.2949  0.7650  0.2710
 9320SOL    HW228539   2.644   4.170   3.784 -2.6546 -0.9036  0.6809
 9321SOL     OW28540   3.491   0.600   6.208  0.4664  0.0531  0.7879
 9321SOL    HW128541   3.431   0.626   6.277 -1.6886 -0.1510 -0.8933
 9321SOL    HW228542   3.435   0.566   6.139  2.3421  1.7310 -1.7629
 9322SOL     OW28543   2.230   7.319   3.925 -0.4513 -0.1713  0.0119
 9322SOL    HW128544   2.318   7.324   3.887  0.2196  2.1831  1.6516
 9322SOL    HW228545   2.177   7.277   3.857  1.3750  0.7487 -2.1072
 9323SOL     OW28546   9.099   2.083   2.357  0.3873 -0.2163  0.3444
 9323SOL    HW128547   9.106   2.124   2.271 -0.5770 -3.5379 -1.4658
 9323SOL    HW228548   9.061   2.151   2.413 -0.6499  1.5085 -2.2772
 9324SOL     OW28549   3.135   4.935   7.464  0.0453 -0.6161  0.6160
 9324SOL    HW128550   3.045   4.965   7.458  0.3086  0.4825  1.8133
 9324SOL    HW228551   3.140   4.861   7.403 -0.4412  2.1542 -3.1604
 9325SOL     OW28552   5.436   4.952   1.842  0.1007 -0.3724 -0.5297
 9325SOL    HW128553   5.354   4.908   1.863  0.6693 -1.1571  0.1379
 9325SOL    HW228554   5.491   4.882   1.806  1.6671 -0.6761  2.2261
 9326SOL     OW28555   8.240   5.438   7.403 -0.4049  0.2302  0.1209
 9326SOL    HW128556   8.262   5.518   7.451 -1.9344  0.4231  0.5711
 9326SOL    HW228557   8.277   5.367   7.455  1.2197  0.6288 -0.4299
 9327SOL     OW28558   2.286   9.519   6.250 -0.7273  0.0823 -0.6927
 9327SOL    HW128559   2.264   9.442   6.304 -0.5293 -0.2177 -1.0385
 9327SOL    HW228560   2.201   9.556   6.227 -0.8090  0.6265  0.4086
 9328SOL     OW28561   8.125   8.003   8.203 -0.1049 -0.5074  0.6869
 9328SOL    HW128562   8.067   7.965   8.269  1.1542  0.3702  2.3879
 9328SOL    HW228563   8.212   7.999   8.242  0.5691  0.8365 -0.5555
 9329SOL     OW28564   4.444   1.146   8.825  0.6862 -0.7023 -0.0846
 9329SOL    HW128565   4.525   1.148   8.877  0.0985 -1.0435  0.8801
 9329SOL    HW228566   4.468   1.103   8.744  1.6484 -0.1262 -0.1218
 9330SOL     OW28567   0.470   6.021   0.352 -0.2269 -0.0971  0.4139
 9330SOL    HW128568   0.527   6.027   0.428  0.9998  1.6895 -0.5524
 9330SOL    HW228569   0.410   5.949   0.371  3.1868 -3.0866  0.9201
 9331SOL     OW28570   7.993   4.476   3.506  0.1310 -0.4346  0.4635
 9331SOL    HW128571   7.958   4.562   3.482 -1.3539 -1.3336 -0.7532
 9331SOL    HW228572   8.063   4.496   3.568  0.0123  1.6629  0.0123
 9332SOL     OW28573   4.569   8.258   7.651 -0.2728 -0.0569  0.2420
 9332SOL    HW128574   4.618   8.227   7.574  0.3216 -0.2815  0.7089
 9332SOL    HW228575   4.632   8.308   7.701 -0.4868 -0.4432  0.9127
 9333SOL     OW28576   4.255   3.637   7.476  0.5487 -0.0477 -0.0849
 9333SOL    HW128577   4.297   3.712   7.432 -0.3100  0.6724  0.2859
 9333SOL    HW228578   4.162   3.646   7.455 -0.0025  0.6904  2.3376
 9334SOL     OW28579   5.113   5.991   2.703 -0.2891  0.0761 -0.4868
 9334SOL    HW128580   5.075   5.997   2.791 -2.4225  0.8895 -1.3764
 9334SOL    HW228581   5.090   5.904   2.673  0.0427 -0.0383 -0.4110
 9335SOL     OW28582   7.445   0.900   9.482  0.7185  0.0121 -0.8273
 9335SOL    HW128583   7.517   0.961   9.467  1.0873 -0.5257 -1.2790
 9335SOL    HW228584   7.368   0.945   9.447  0.4960  1.3119  1.1736
 9336SOL     OW28585   4.003   7.185   9.016  0.7467  0.2361  0.0109
 9336SOL    HW128586   3.975   7.094   9.005 -0.3078  0.5339  0.1273
 9336SOL    HW228587   4.042   7.187   9.103 -0.5678  0.1949  0.6289
 9337SOL     OW28588   1.439   4.234   4.435 -0.5816  0.2393 -0.6890
 9337SOL    HW128589   1.377   4.281   4.380 -0.9854  0.5347 -0.0049
 9337SOL    HW228590   1.409   4.252   4.525  0.8635  0.9285 -0.3145
 9338SOL     OW28591   7.970   8.670   1.586  0.5429 -0.8416 -0.1604
 9338SOL    HW128592   8.028   8.658   1.661 -0.8414 -1.0228  0.9235
 9338SOL    HW228593   7.915   8.592   1.586  0.1520 -0.5780 -1.0325
 9339SOL     OW28594   4.226   3.808   6.730  0.1779 -0.2955 -0.0362
 9339SOL    HW128595   4.206   3.723   6.690  0.5179 -0.4771  0.1778
 9339SOL    HW228596   4.201   3.872   6.663 -1.0409 -0.5087  0.1789
 9340SOL     OW28597   8.561   1.630   7.588  0.2396 -0.7261 -0.2090
 9340SOL    HW128598   8.583   1.565   7.655 -0.8836 -1.9830 -1.0243
 9340SOL    HW228599   8.543   1.579   7.509 -1.0736  0.5327 -0.7626
 9341SOL     OW28600   5.316   7.172   7.369 -0.5337  0.1175  0.2177
 9341SOL    HW128601   5.385   7.233   7.395  0.8569 -0.7213 -1.2968
 9341SOL    HW228602   5.360   7.088   7.360 -1.5987 -0.3165 -1.4383
 9342SOL     OW28603   5.857   9.724   7.656  0.1369 -0.2558 -0.5847
 9342SOL    HW128604   5.792   9.793   7.669 -0.1720 -0.5641 -0.4641
 9342SOL    HW228605   5.805   9.644   7.645  0.5133 -0.8709  1.6440
 9343SOL     OW28606   3.817   7.079   3.314  0.1168 -0.1078  0.6313
 9343SOL    HW128607   3.875   7.011   3.348 -1.0170 -0.2673  2.3355
 9343SOL    HW228608   3.750   7.090   3.381 -0.5079  1.7378 -0.2200
 9344SOL     OW28609   6.626   7.258   2.300 -0.1412  0.0707  0.5044
 9344SOL    HW128610   6.691   7.327   2.308  0.2472 -0.2083 -0.1354
 9344SOL    HW228611   6.639   7.223   2.212 -1.2252  0.0806  0.3217
 9345SOL     OW28612   3.994   3.856   7.270  0.0339  0.1774 -0.2279
 9345SOL    HW128613   4.087   3.863   7.292 -0.1787  0.5263  0.6081
 9345SOL    HW228614   3.992   3.815   7.184  0.9098 -1.5040  0.5103
 9346SOL     OW28615   4.612   1.450   1.626  0.0932 -0.4778 -0.5303
 9346SOL    HW128616   4.666   1.387   1.578  1.8666  0.1771  0.5167
 9346SOL    HW228617   4.661   1.468   1.706 -1.0287  1.2013 -0.1614
 9347SOL     OW28618   2.870   5.007   1.686 -0.6564 -0.4153 -0.1475
 9347SOL    HW128619   2.842   4.942   1.750  2.7940 -1.0840  0.8547
 9347SOL    HW228620   2.939   5.057   1.730  0.5399  0.3728 -2.7016
 9348SOL     OW28621   0.434   5.264   9.200 -0.0759  0.2676  0.0877
 9348SOL    HW128622   0.484   5.195   9.157 -0.5237  0.1994 -0.3269
 9348SOL    HW228623   0.380   5.218   9.264  0.9763  0.4195  1.1097
 9349SOL     OW28624   6.635   1.289   9.481  0.0662  0.2889 -0.1194
 9349SOL    HW128625   6.558   1.232   9.491 -0.4371  0.5643 -2.1253
 9349SOL    HW228626   6.710   1.231   9.500 -0.5663  0.2590  2.8739
 9350SOL     OW28627   1.139   5.769   8.586  0.4369  0.4453 -0.1051
 9350SOL    HW128628   1.147   5.712   8.663  0.8148 -0.5751 -0.8813
 9350SOL    HW228629   1.049   5.802   8.590  0.3911  0.2501  0.6603
 9351SOL     OW28630   8.148   8.528   7.985 -0.2921 -0.0071 -0.2240
 9351SOL    HW128631   8.222   8.586   7.970 -1.8544  1.8947 -1.1055
 9351SOL    HW228632   8.173   8.445   7.945  1.4258  0.5091 -0.2876
 9352SOL     OW28633   2.175   2.652   0.432  0.4742 -0.1567 -0.3424
 9352SOL    HW128634   2.173   2.601   0.513 -0.4387  0.1794 -0.1463
 9352SOL    HW228635   2.164   2.586   0.363  2.6122 -0.6191 -0.3086
 9353SOL     OW28636   8.561   1.059   6.762 -0.2359 -0.4443  0.2315
 9353SOL    HW128637   8.468   1.070   6.741  0.0075  0.6771 -0.3359
 9353SOL    HW228638   8.594   1.001   6.693 -0.2639  0.1230 -0.2644
 9354SOL     OW28639   4.748   8.172   6.999  0.2423 -0.2008  0.0024
 9354SOL    HW128640   4.827   8.147   6.950  0.0166 -1.2691  0.1415
 9354SOL    HW228641   4.780   8.228   7.070  1.1180 -1.7893  0.9435
 9355SOL     OW28642   3.806   6.442   5.990  0.5149  0.0567 -0.1284
 9355SOL    HW128643   3.796   6.429   5.895 -2.4937 -0.6392  0.1653
 9355SOL    HW228644   3.829   6.534   6.000 -0.8220  0.5902 -1.5271
 9356SOL     OW28645   0.258   4.944   0.792 -0.3140  0.1105  0.1029
 9356SOL    HW128646   0.233   4.933   0.883  0.5498  0.2506  0.3651
 9356SOL    HW228647   0.264   4.855   0.757 -0.0792  0.0281  0.3488
 9357SOL     OW28648   6.805   8.938   3.972  0.2151 -0.2235 -0.6114
 9357SOL    HW128649   6.779   8.948   3.881 -1.3444 -1.2452 -0.3221
 9357SOL    HW228650   6.814   8.844   3.985  1.7101 -0.0213 -0.0273
 9358SOL     OW28651   0.010   2.066   7.547  0.1492 -0.1058 -0.0125
 9358SOL    HW128652   0.027   2.159   7.534 -1.0176  0.5044  2.4048
 9358SOL    HW228653   0.080   2.036   7.606  0.6014 -0.8513 -0.8796
 9359SOL     OW28654   7.112   2.769   6.831  0.6202  0.2214  0.0892
 9359SOL    HW128655   7.052   2.838   6.858 -0.3213 -0.6018  0.1220
 9359SOL    HW228656   7.113   2.775   6.735  0.1720 -0.0261  0.0685
 9360SOL     OW28657   1.834   1.677   5.343  0.2198 -0.7599  0.5882
 9360SOL    HW128658   1.752   1.630   5.333 -0.8510  0.5112  2.5995
 9360SOL    HW228659   1.809   1.769   5.346  1.8612 -0.2580  0.0581
 9361SOL     OW28660   9.036   0.237   5.164  0.4936 -0.7617  0.5134
 9361SOL    HW128661   9.034   0.219   5.258 -1.0605 -0.0003  0.6667
 9361SOL    HW228662   9.120   0.202   5.134  0.6883 -1.6791  2.0419
 9362SOL     OW28663   1.776   0.847   1.671 -0.3198  0.2880 -0.3068
 9362SOL    HW128664   1.734   0.806   1.746 -0.7967  0.5003 -0.4510
 9362SOL    HW228665   1.704   0.869   1.612 -0.1391  1.6610 -0.0691
 9363SOL     OW28666   7.723   0.523   9.840 -0.3583  0.6011 -0.1446
 9363SOL    HW128667   7.707   0.484   9.926  0.4360  0.6206  0.0185
 9363SOL    HW228668   7.702   0.616   9.851 -0.9769  0.4715 -0.1803
 9364SOL     OW28669   9.890   4.007   1.839  0.6562  0.1648 -0.6294
 9364SOL    HW128670   9.933   4.082   1.880  0.5816 -0.1595  0.0488
 9364SOL    HW228671   9.922   3.931   1.888 -1.9898  0.0339  1.0494
 9365SOL     OW28672   9.605   3.779   5.654 -0.0183  0.0418 -0.3855
 9365SOL    HW128673   9.650   3.702   5.619  0.4071  1.0596 -2.1692
 9365SOL    HW228674   9.529   3.743   5.699  1.3771 -1.5683  0.8142
 9366SOL     OW28675   6.764   7.909   6.350  0.0366 -0.0549 -0.3275
 9366SOL    HW128676   6.776   7.909   6.445  0.3801  1.4966 -0.3424
 9366SOL    HW228677   6.769   7.816   6.325 -2.5178 -0.7557  1.4284
 9367SOL     OW28678   4.317   4.468   0.741  0.4093  0.8461 -0.7456
 9367SOL    HW128679   4.327   4.498   0.651 -2.5922  1.4791 -0.9690
 9367SOL    HW228680   4.355   4.380   0.742  2.6559  1.7281 -1.9597
 9368SOL     OW28681   4.656   5.590  10.011  0.2612  0.0078  0.1306
 9368SOL    HW128682   4.708   5.668   9.993  0.6823 -0.3859 -0.4013
 9368SOL    HW228683   4.604   5.577   9.931 -0.8486  0.5366  0.7495
 9369SOL     OW28684   2.306   8.253   3.810  0.1060  0.1683 -0.4127
 9369SOL    HW128685   2.381   8.225   3.758  0.2137  0.8361 -0.6170
 9369SOL    HW228686   2.258   8.171   3.828  1.7555 -0.5306  1.1481
 9370SOL     OW28687   0.495   2.880   0.428  0.3261  0.1053 -0.6352
 9370SOL    HW128688   0.481   2.870   0.522  0.2644 -0.5636 -0.7109
 9370SOL    HW228689   0.477   2.973   0.411 -0.3245  0.0866 -0.0988
 9371SOL     OW28690   6.455   8.087   6.862  0.9079  0.5355  0.5081
 9371SOL    HW128691   6.498   8.039   6.791  0.3416  0.8278 -0.0501
 9371SOL    HW228692   6.384   8.029   6.891 -0.3121  1.3242 -0.7342
 9372SOL     OW28693   1.256   4.426   2.176  0.5535  0.1913  0.3003
 9372SOL    HW128694   1.260   4.449   2.268  1.0703 -1.0667  0.6166
 9372SOL    HW228695   1.347   4.434   2.145  0.7524 -1.2413  0.4133
 9373SOL     OW28696   6.247   7.638   7.096 -0.5555  0.6495 -0.2207
 9373SOL    HW128697   6.166   7.664   7.141 -0.2647  0.5954  0.3412
 9373SOL    HW228698   6.291   7.580   7.158  0.0376  0.8819 -0.4244
 9374SOL     OW28699   6.418   1.791   9.955  0.1302 -0.2645  0.2896
 9374SOL    HW128700   6.412   1.740  10.036  0.0953 -2.9949 -1.2959
 9374SOL    HW228701   6.341   1.763   9.904  1.3022 -0.3329 -1.5349
 9375SOL     OW28702   4.315   6.877   2.767 -0.8027 -0.0651 -0.9760
 9375SOL    HW128703   4.257   6.811   2.729 -1.5539 -0.9757  1.5181
 9375SOL    HW228704   4.380   6.827   2.816 -0.5684  1.0220 -0.1234
 9376SOL     OW28705   2.624   1.793   2.606  0.0256  0.1567  0.0955
 9376SOL    HW128706   2.610   1.729   2.536  1.4400 -0.9683  0.8014
 9376SOL    HW228707   2.550   1.781   2.665  0.1181 -0.6001  0.0596
 9377SOL     OW28708   8.421   6.597   6.386 -0.0383 -0.2354  0.1318
 9377SOL    HW128709   8.361   6.672   6.393  1.6555  1.1058  1.4195
 9377SOL    HW228710   8.377   6.526   6.433 -0.9245  0.4860  0.4206
 9378SOL     OW28711   2.885   9.835   2.621 -0.1318  0.1865 -0.0118
 9378SOL    HW128712   2.859   9.750   2.655  2.6866 -0.5268  0.6347
 9378SOL    HW228713   2.837   9.898   2.674 -0.8095 -0.9681  0.7977
 9379SOL     OW28714   8.465   5.778   4.156 -0.3203  0.0623  0.5134
 9379SOL    HW128715   8.376   5.740   4.153 -0.4779  0.4556  0.2461
 9379SOL    HW228716   8.469   5.836   4.081  1.0823 -1.9321 -1.0572
 9380SOL     OW28717   0.622   8.293   4.273  0.8402 -0.4077  0.1432
 9380SOL    HW128718   0.560   8.306   4.202 -0.5920 -0.7675  1.2852
 9380SOL    HW228719   0.675   8.218   4.245 -0.5473 -1.3664 -0.0142
 9381SOL     OW28720   3.714   2.416   0.170 -0.7055  0.5540 -0.1683
 9381SOL    HW128721   3.636   2.472   0.175 -0.2148  1.1455  1.0674
 9381SOL    HW228722   3.786   2.477   0.156 -0.2607  0.1477  0.3599
 9382SOL     OW28723   1.402   3.999   6.670  0.1391  0.3128 -0.1081
 9382SOL    HW128724   1.399   3.944   6.749 -1.8540  1.9002  1.0412
 9382SOL    HW228725   1.386   3.938   6.598  0.2936 -0.9427  0.8756
 9383SOL     OW28726   8.681   8.482   5.691 -0.0783  0.2603  0.1235
 9383SOL    HW128727   8.617   8.507   5.758 -0.4624  0.6769 -0.3943
 9383SOL    HW228728   8.657   8.393   5.667  0.4085 -0.0998  0.9408
 9384SOL     OW28729   8.898   5.186   6.151 -0.4935 -0.0195  0.4567
 9384SOL    HW128730   8.943   5.133   6.217  1.7873  0.3249 -0.7253
 9384SOL    HW228731   8.880   5.125   6.079 -1.7416 -0.0902  0.8033
 9385SOL     OW28732   1.703   4.200   2.836 -0.3867  0.1580  0.4489
 9385SOL    HW128733   1.736   4.114   2.864 -1.7966 -0.2900  0.8367
 9385SOL    HW228734   1.649   4.230   2.908 -3.5372 -0.7013 -1.3540
 9386SOL     OW28735   6.228   1.676   1.110 -0.3862  0.0787 -0.2389
 9386SOL    HW128736   6.150   1.732   1.107 -1.3366 -1.0672  1.3749
 9386SOL    HW228737   6.301   1.737   1.113 -1.3176  1.2241  0.0945
 9387SOL     OW28738   7.134   5.384   9.764 -0.3199  0.0418  0.1571
 9387SOL    HW128739   7.145   5.290   9.748  0.6016  0.4017 -1.4658
 9387SOL    HW228740   7.222   5.416   9.780 -0.5570  0.7381  0.1073
 9388SOL     OW28741   2.809   2.724   9.669  0.5145  0.5919 -0.2458
 9388SOL    HW128742   2.803   2.798   9.609 -0.8893  0.1184 -0.7516
 9388SOL    HW228743   2.751   2.747   9.742 -1.9555 -0.9532 -1.5658
 9389SOL     OW28744   7.050   2.728   8.636 -0.3087 -0.3174 -0.9489
 9389SOL    HW128745   7.111   2.766   8.573  1.2102  0.5199  0.8967
 9389SOL    HW228746   7.015   2.650   8.593  2.7122 -1.3195 -1.8382
 9390SOL     OW28747   8.452   7.043   3.196 -0.5901  0.5378  0.0234
 9390SOL    HW128748   8.410   6.971   3.149 -1.8963  1.7920 -0.7912
 9390SOL    HW228749   8.442   7.019   3.289  1.8043 -1.8345 -0.1920
 9391SOL     OW28750   3.790   5.367   7.169 -0.0852 -0.6265  0.1550
 9391SOL    HW128751   3.786   5.309   7.093  3.4425  1.5200 -1.9623
 9391SOL    HW228752   3.847   5.322   7.231 -1.1541 -1.4008  0.5971
 9392SOL     OW28753   0.806   9.153   0.994  0.0193  0.1577  0.1751
 9392SOL    HW128754   0.828   9.092   0.923  2.1519  0.2849  0.6681
 9392SOL    HW228755   0.803   9.239   0.952 -2.9123 -0.1697 -0.5059
 9393SOL     OW28756   5.669   9.812   3.461  0.3318 -0.2059  0.2523
 9393SOL    HW128757   5.622   9.846   3.385  0.7580 -0.0242  0.0665
 9393SOL    HW228758   5.691   9.722   3.438 -0.9929 -0.7162  0.8329
 9394SOL     OW28759   5.362   5.962   8.945 -0.2001  0.1685 -0.1365
 9394SOL    HW128760   5.435   5.965   8.882  0.4253  0.0199  0.5713
 9394SOL    HW228761   5.342   5.868   8.953 -0.2706  0.1872 -0.0947
 9395SOL     OW28762   8.117   0.379   2.841  0.0352 -0.1477  0.0292
 9395SOL    HW128763   8.152   0.369   2.752 -0.2188 -0.4927 -0.0335
 9395SOL    HW228764   8.022   0.365   2.831 -0.3700  2.2337 -0.0571
 9396SOL     OW28765   1.399   7.987   7.701 -0.0587 -0.1521 -0.0919
 9396SOL    HW128766   1.353   7.926   7.759 -0.4236 -0.4428 -0.6805
 9396SOL    HW228767   1.475   7.938   7.671 -0.2557 -0.2584 -0.4230
 9397SOL     OW28768   6.801   1.681   7.634  0.4644  0.2448  0.2505
 9397SOL    HW128769   6.827   1.608   7.690  0.4779 -0.3234 -0.4805
 9397SOL    HW228770   6.752   1.640   7.563  0.2768  0.9763 -0.0477
 9398SOL     OW28771   3.704   7.418   3.528  0.0220 -0.1398 -0.2663
 9398SOL    HW128772   3.762   7.419   3.453 -0.1866  0.2675 -0.4265
 9398SOL    HW228773   3.709   7.329   3.562 -0.0349 -0.3722 -0.8770
 9399SOL     OW28774   0.397   6.119   0.069  0.3745 -0.2313  0.1590
 9399SOL    HW128775   0.384   6.045   0.009  1.3990  0.0357 -0.4203
 9399SOL    HW228776   0.433   6.079   0.148 -0.5217 -0.5282  0.4267
 9400SOL     OW28777   7.880   1.317   9.566  0.3267  0.1209 -0.1619
 9400SOL    HW128778   7.920   1.329   9.480 -0.0539 -0.0099 -0.3591
 9400SOL    HW228779   7.847   1.227   9.565  1.1678 -0.2051  0.4784
 9401SOL     OW28780   0.789   2.083   0.758 -0.0021 -0.2342 -0.8701
 9401SOL    HW128781   0.695   2.064   0.757  0.2809 -1.8992 -0.2726
 9401SOL    HW228782   0.819   2.050   0.843  0.9264  1.4338 -0.5076
 9402SOL     OW28783   3.024   7.349   3.619 -0.2725  0.4397  0.2009
 9402SOL    HW128784   3.100   7.356   3.676  0.2203  0.3378 -0.4349
 9402SOL    HW228785   2.955   7.313   3.675  0.5496 -0.8455  0.4130
 9403SOL     OW28786   6.440   4.968   3.258 -0.1096 -0.1544  0.0791
 9403SOL    HW128787   6.383   4.900   3.223  0.0128  0.1962 -0.8425
 9403SOL    HW228788   6.432   4.961   3.353 -1.3102 -0.4140 -0.0344
 9404SOL     OW28789   5.690   9.340   3.151 -0.1081 -0.6836 -0.3864
 9404SOL    HW128790   5.724   9.377   3.069  1.7876  0.9907  1.0772
 9404SOL    HW228791   5.748   9.267   3.170 -0.9608 -1.4996 -0.8366
 9405SOL     OW28792   2.521   3.104   6.709  0.3582  0.6478 -0.8317
 9405SOL    HW128793   2.481   3.060   6.784 -1.1271 -0.4308 -2.1732
 9405SOL    HW228794   2.465   3.180   6.694  0.0811  0.3417 -1.3915
 9406SOL     OW28795   6.948   5.963   9.561 -0.2157  0.3907  0.2792
 9406SOL    HW128796   7.005   5.893   9.530 -1.5526 -0.8671  0.5607
 9406SOL    HW228797   6.972   5.975   9.653  0.5741  0.9127  0.0227
 9407SOL     OW28798   7.770   3.462   1.728  0.2126 -0.0262 -0.6254
 9407SOL    HW128799   7.690   3.447   1.778  0.0281 -0.5365 -1.0604
 9407SOL    HW228800   7.834   3.403   1.767  0.5702  0.8442  0.1418
 9408SOL     OW28801   1.060   5.872   4.357  0.0181 -0.0497  0.5606
 9408SOL    HW128802   1.107   5.931   4.416  1.5941  0.8063 -1.4423
 9408SOL    HW228803   0.988   5.925   4.323  0.5956  0.2833 -0.1623
 9409SOL     OW28804   9.051   9.497   4.089  0.6326  0.0072  0.2510
 9409SOL    HW128805   9.005   9.570   4.130  0.6698  0.1608  0.0212
 9409SOL    HW228806   9.131   9.488   4.141  0.6560  0.1672  0.2456
 9410SOL     OW28807   1.732   5.511   1.429 -0.5864  0.2424  0.4469
 9410SOL    HW128808   1.651   5.525   1.478  0.2874 -0.3109  2.1192
 9410SOL    HW228809   1.717   5.555   1.346 -1.5188  2.6911  1.8167
 9411SOL     OW28810   3.625   4.936   4.993 -0.1768  0.8571  0.0081
 9411SOL    HW128811   3.543   4.888   5.000  0.5863 -0.3029  1.3333
 9411SOL    HW228812   3.659   4.914   4.906 -0.3710 -0.1377  0.1770
 9412SOL     OW28813   6.049   2.383   7.819  0.7171 -0.1885  0.4266
 9412SOL    HW128814   5.970   2.410   7.772  1.1621  0.9373  0.2947
 9412SOL    HW228815   6.106   2.347   7.751  0.7002 -0.0991  0.3653
 9413SOL     OW28816   3.887   4.011   2.837 -0.2367 -0.8734 -0.2341
 9413SOL    HW128817   3.965   4.051   2.877  0.2944 -0.5915 -1.5191
 9413SOL    HW228818   3.883   3.924   2.878  0.7601 -0.8988 -0.1486
 9414SOL     OW28819   3.594   7.944   8.692 -0.1747  0.1848  0.0494
 9414SOL    HW128820   3.639   7.907   8.768 -1.9635 -0.4140  0.8710
 9414SOL    HW228821   3.539   8.014   8.728 -0.3303  0.5336 -0.8400
 9415SOL     OW28822   5.553   1.606   1.035 -0.2656 -0.5637  0.0130
 9415SOL    HW128823   5.645   1.585   1.051 -0.3546 -1.0871 -0.1320
 9415SOL    HW228824   5.550   1.702   1.036  0.2311 -0.5443  0.2830
 9416SOL     OW28825   5.563   7.291   7.439  0.0127  0.2832 -0.8212
 9416SOL    HW128826   5.582   7.379   7.473 -3.4427  1.8491 -2.4579
 9416SOL    HW228827   5.609   7.287   7.355  0.0446  0.5787 -0.8174
 9417SOL     OW28828   1.058   5.841   3.515  0.9295  0.3506 -0.3979
 9417SOL    HW128829   1.117   5.786   3.462  0.8034 -1.5865  1.3441
 9417SOL    HW228830   1.101   5.845   3.601 -0.3660  0.8065  0.2431
 9418SOL     OW28831   6.961   1.225   3.793  0.4018  0.3267 -0.1353
 9418SOL    HW128832   6.948   1.171   3.870  1.2946  1.0262  0.5287
 9418SOL    HW228833   7.044   1.270   3.809  0.9927 -0.0732 -1.8312
 9419SOL     OW28834   7.289   5.501   1.096  0.0388 -0.4066 -0.2053
 9419SOL    HW128835   7.288   5.583   1.046 -0.6895 -1.6198 -2.2980
 9419SOL    HW228836   7.317   5.527   1.183  1.7359  1.8047 -1.3012
 9420SOL     OW28837   3.362   8.156   3.276 -0.1573  0.5463  0.0930
 9420SOL    HW128838   3.446   8.114   3.256 -0.6328 -0.6771  0.5664
 9420SOL    HW228839   3.344   8.212   3.201  0.2143 -0.5820 -0.8607
 9421SOL     OW28840   8.706   4.801   0.469  0.4850  0.4212  0.3291
 9421SOL    HW128841   8.673   4.838   0.552  0.0743 -3.2807  2.0179
 9421SOL    HW228842   8.798   4.827   0.467  0.6512  0.1842  2.2906
 9422SOL     OW28843   4.162   0.079   1.444  0.2582 -0.8862 -0.1911
 9422SOL    HW128844   4.209   0.161   1.457  1.1231 -0.9852 -2.2771
 9422SOL    HW228845   4.226   0.011   1.462 -0.1835 -1.1108  0.5917
 9423SOL     OW28846   9.931   3.806   7.246 -0.2784  0.8623  0.2032
 9423SOL    HW128847   9.904   3.714   7.256  0.4666  0.6473  0.3123
 9423SOL    HW228848   9.990   3.822   7.320  0.2123  1.1916 -0.2463
 9424SOL     OW28849   9.873   5.927   3.672 -0.0838  0.0462  0.2046
 9424SOL    HW128850   9.889   5.833   3.682  0.2969 -0.0110 -0.8484
 9424SOL    HW228851   9.802   5.946   3.734  1.6103 -0.3956  2.3913
 9425SOL     OW28852   4.404   7.245   2.988 -0.5095  0.5978  0.3031
 9425SOL    HW128853   4.457   7.169   3.013 -1.8226 -1.1703 -2.0092
 9425SOL    HW228854   4.444   7.276   2.907 -1.2785  1.0585  0.0975
 9426SOL     OW28855   4.860   7.295   1.002 -0.5385 -0.5335  0.6527
 9426SOL    HW128856   4.936   7.344   0.970 -0.9722  1.0500  1.8992
 9426SOL    HW228857   4.892   7.206   1.015  1.2385  0.1894  1.5661
 9427SOL     OW28858   0.582   9.843   7.792 -0.3673  0.0720 -0.0527
 9427SOL    HW128859   0.620   9.921   7.833  0.8362 -1.5090  2.0133
 9427SOL    HW228860   0.492   9.868   7.773  0.4837  2.5948 -1.3277
 9428SOL     OW28861   5.706   8.166   2.521  0.0020  0.0848  0.2636
 9428SOL    HW128862   5.738   8.133   2.437  1.2848  0.2925  0.6513
 9428SOL    HW228863   5.785   8.193   2.568 -0.6760 -0.1878  1.6123
 9429SOL     OW28864   0.199   9.146   4.307  0.2777  0.3146 -0.4777
 9429SOL    HW128865   0.225   9.150   4.215  1.6711 -0.7647 -0.1619
 9429SOL    HW228866   0.239   9.065   4.340 -1.7815 -0.3553  0.5980
 9430SOL     OW28867   4.082   6.341   1.843 -0.0553 -0.0126 -0.1174
 9430SOL    HW128868   4.115   6.428   1.869 -0.7990  0.0860  0.5292
 9430SOL    HW228869   3.997   6.358   1.802  0.1153 -0.3791 -0.6374
 9431SOL     OW28870   5.107   8.206   9.035 -0.3356  0.8321 -0.4302
 9431SOL    HW128871   5.074   8.126   8.994 -1.9411  1.7571 -1.0228
 9431SOL    HW228872   5.103   8.188   9.129  1.5965 -0.6211 -0.5761
 9432SOL     OW28873   9.367   8.005   4.900  0.5835 -0.4083 -0.1275
 9432SOL    HW128874   9.333   7.934   4.954  0.4625 -1.1193 -1.1104
 9432SOL    HW228875   9.436   8.045   4.953 -0.9355  0.2913  1.4162
 9433SOL     OW28876   4.780   8.218   1.056  0.1742  0.4491 -0.2521
 9433SOL    HW128877   4.791   8.231   1.150  0.0861 -0.1090 -0.1642
 9433SOL    HW228878   4.688   8.195   1.046  0.3761 -0.3194 -0.3822
 9434SOL     OW28879   0.088   7.131   6.472  0.3315 -0.4544  0.0546
 9434SOL    HW128880   0.074   7.202   6.409 -0.1406 -1.2463 -0.7518
 9434SOL    HW228881   0.029   7.061   6.443 -1.7026 -0.0288  2.7178
 9435SOL     OW28882   7.887   3.344   4.643 -0.0655 -0.2114 -0.5786
 9435SOL    HW128883   7.954   3.277   4.627 -0.5670 -0.6640 -0.7939
 9435SOL    HW228884   7.900   3.407   4.573  0.5333  0.0263 -0.2662
 9436SOL     OW28885   5.907   4.659   6.842 -0.4782  0.1028 -0.0290
 9436SOL    HW128886   5.843   4.727   6.820 -0.5361 -0.3665 -1.4521
 9436SOL    HW228887   5.992   4.698   6.823 -0.3547  0.4900  1.2122
 9437SOL     OW28888   8.747   8.245   5.180 -0.6857 -0.0485 -0.2733
 9437SOL    HW128889   8.822   8.259   5.123  0.0400  0.6105  0.8118
 9437SOL    HW228890   8.712   8.159   5.154  0.2394 -0.2093 -1.0127
 9438SOL     OW28891   9.312   4.366   6.765  0.5532 -0.7485 -0.1018
 9438SOL    HW128892   9.247   4.437   6.769  0.7098 -0.6446  3.5410
 9438SOL    HW228893   9.260   4.287   6.749 -0.1096 -0.3027 -0.1927
 9439SOL     OW28894   2.373   6.909   0.169  0.1647 -0.5122  0.5613
 9439SOL    HW128895   2.371   6.978   0.235  0.1951 -0.3574  0.3995
 9439SOL    HW228896   2.436   6.940   0.103 -0.2788 -0.4120  0.1793
 9440SOL     OW28897   1.588   1.763   7.430  0.1491 -0.6503 -0.2850
 9440SOL    HW128898   1.614   1.731   7.517  1.2450  1.5092  0.2856
 9440SOL    HW228899   1.495   1.744   7.424 -0.1671 -0.0632  1.7897
 9441SOL     OW28900   2.547   7.428   4.250  0.8187  0.1986  0.0886
 9441SOL    HW128901   2.615   7.360   4.242  0.3379 -0.4972  1.5330
 9441SOL    HW228902   2.530   7.433   4.344 -1.8819 -0.4074 -0.2891
 9442SOL     OW28903   1.586   6.580   4.002  0.1802 -0.3109 -0.0647
 9442SOL    HW128904   1.656   6.526   4.039 -1.1266 -1.3186  1.0882
 9442SOL    HW228905   1.588   6.660   4.054  1.5374  0.3894 -1.1646
 9443SOL     OW28906   6.593   4.177   7.476  0.4873  0.0516  0.4509
 9443SOL    HW128907   6.641   4.256   7.452  0.9753  0.0259  1.2814
 9443SOL    HW228908   6.542   4.155   7.399  1.3432  0.4407 -0.2423
 9444SOL     OW28909   1.781   2.068   3.196  0.3864  0.1997 -0.6767
 9444SOL    HW128910   1.814   2.135   3.257 -0.0370 -0.6778  0.5597
 9444SOL    HW228911   1.737   2.118   3.127  0.2377  1.2054  0.1164
 9445SOL     OW28912   0.750   7.375   7.676 -0.3041 -0.5053  0.2389
 9445SOL    HW128913   0.754   7.343   7.766 -0.5224  0.9570  0.8101
 9445SOL    HW228914   0.775   7.468   7.683 -1.2347 -0.1255 -1.0624
 9446SOL     OW28915   1.689   8.314   4.132  0.1711 -1.0244 -0.1050
 9446SOL    HW128916   1.732   8.383   4.081 -1.0842  0.3341  0.5851
 9446SOL    HW228917   1.725   8.323   4.220 -1.5249  0.2479  0.5288
 9447SOL     OW28918   6.620   5.154   6.182  0.3284 -0.7037 -0.9680
 9447SOL    HW128919   6.711   5.182   6.169  0.0501  0.2309 -1.0201
 9447SOL    HW228920   6.573   5.193   6.109 -0.3509  0.0456 -0.1500
 9448SOL     OW28921   8.847   0.939   6.276  1.0262  0.3137  0.7422
 9448SOL    HW128922   8.803   1.010   6.229  1.1162  0.9956  1.6546
 9448SOL    HW228923   8.938   0.968   6.283  1.1852 -0.1580  0.6166
 9449SOL     OW28924   6.178   7.747   0.742  0.0116 -0.6458 -0.5360
 9449SOL    HW128925   6.250   7.701   0.699  0.3771 -0.4927 -0.0982
 9449SOL    HW228926   6.107   7.684   0.744  0.1774 -0.8448 -0.8570
 9450SOL     OW28927   7.058   9.699   1.763  0.7291  0.7366 -0.3219
 9450SOL    HW128928   7.037   9.701   1.669 -3.7245  0.0202  0.4442
 9450SOL    HW228929   7.106   9.617   1.775 -1.0034 -0.5708 -1.6911
 9451SOL     OW28930   7.229   7.309   2.057 -0.2417  0.1183 -0.3225
 9451SOL    HW128931   7.286   7.232   2.058  0.0197  0.3046 -0.4788
 9451SOL    HW228932   7.185   7.306   1.972  0.0931  0.3673 -0.5109
 9452SOL     OW28933   4.628   2.793   0.848 -0.0645 -0.4474 -0.4861
 9452SOL    HW128934   4.581   2.780   0.930  0.5783 -1.3104 -0.2265
 9452SOL    HW228935   4.561   2.813   0.784 -0.7807 -1.5694 -0.1104
 9453SOL     OW28936   8.662   4.100   0.817  0.2181 -0.3082  0.0089
 9453SOL    HW128937   8.697   4.169   0.761 -0.5763  0.6113  0.6086
 9453SOL    HW228938   8.618   4.147   0.888 -1.7181 -1.3962 -0.4036
 9454SOL     OW28939   1.722   6.941   5.087  0.3244  0.2823  0.3890
 9454SOL    HW128940   1.799   6.886   5.100 -1.1514 -2.0839 -0.1906
 9454SOL    HW228941   1.673   6.898   5.017 -2.0158  1.0902  1.4083
 9455SOL     OW28942   0.333   0.998   0.033 -0.3864 -0.1485 -0.0680
 9455SOL    HW128943   0.240   0.989   0.052 -1.1466  2.5739 -1.8300
 9455SOL    HW228944   0.338   0.994  -0.063  1.2088  0.3392 -0.0375
 9456SOL     OW28945   4.948   8.858   6.167 -0.3077 -0.4260 -0.2196
 9456SOL    HW128946   4.964   8.911   6.089  0.8898 -0.7183 -0.1917
 9456SOL    HW228947   4.885   8.910   6.218  0.6461  0.8748 -0.2991
 9457SOL     OW28948   1.910   5.767   3.383 -0.1410  0.4555 -0.0801
 9457SOL    HW128949   1.971   5.703   3.419  0.0205  0.3151 -0.5914
 9457SOL    HW228950   1.832   5.717   3.361  0.0229  0.4028 -0.5760
 9458SOL     OW28951   3.037   6.846   6.223  0.6741 -0.3255 -0.0234
 9458SOL    HW128952   3.115   6.812   6.180  0.9580 -1.0932  1.0558
 9458SOL    HW228953   3.029   6.794   6.303 -0.3414  0.4585  0.4102
 9459SOL     OW28954   2.486   8.352   1.002 -0.4295 -0.0848 -0.1078
 9459SOL    HW128955   2.520   8.338   0.914  1.5676 -0.3477  0.6516
 9459SOL    HW228956   2.391   8.344   0.992 -0.3084  0.5013 -2.3245
 9460SOL     OW28957   8.199   5.067   5.404  0.0387 -0.4074 -0.0572
 9460SOL    HW128958   8.230   4.978   5.385 -1.3515 -1.1373  0.9437
 9460SOL    HW228959   8.219   5.116   5.325 -1.2656 -2.1785 -1.5710
 9461SOL     OW28960   5.211   2.991   8.561  0.7165  0.0193 -0.0238
 9461SOL    HW128961   5.272   2.994   8.635 -0.4089 -2.8078  1.1637
 9461SOL    HW228962   5.267   2.977   8.485  1.6888 -0.4385  0.7465
 9462SOL     OW28963   8.827   6.055   3.167 -0.4915  0.4389  0.6936
 9462SOL    HW128964   8.799   6.143   3.194 -0.0015  0.6916  0.3806
 9462SOL    HW228965   8.895   6.070   3.102 -0.8166 -0.1780  0.2050
 9463SOL     OW28966   0.443   1.632   5.166 -0.5459 -0.3285  0.3591
 9463SOL    HW128967   0.465   1.602   5.254  1.0944 -0.4205 -0.0380
 9463SOL    HW228968   0.356   1.671   5.174  0.0500  0.7373  2.2800
 9464SOL     OW28969   0.234   2.101   1.723  0.0875  0.3261  0.3261
 9464SOL    HW128970   0.247   2.008   1.706  0.1771  0.5522 -0.9534
 9464SOL    HW228971   0.140   2.110   1.737  0.2069 -0.0996  1.5078
 9465SOL     OW28972   7.037   8.330   4.638 -0.0228  0.2272 -0.2034
 9465SOL    HW128973   6.984   8.295   4.566  0.0284 -0.4577  0.0831
 9465SOL    HW228974   7.056   8.254   4.692 -0.3254  0.7941  0.7116
 9466SOL     OW28975   8.693   6.954   4.414 -0.3403 -0.3671 -0.4293
 9466SOL    HW128976   8.657   7.042   4.407 -0.5924 -0.3342  0.9626
 9466SOL    HW228977   8.616   6.897   4.418 -0.1865 -0.5936 -0.6365
 9467SOL     OW28978   7.735   4.812   1.136  0.5012 -0.0930  0.2329
 9467SOL    HW128979   7.762   4.838   1.048  0.1065 -1.5828 -0.3628
 9467SOL    HW228980   7.796   4.856   1.195 -0.0462  1.9906 -0.6871
 9468SOL     OW28981   8.332   8.120   6.761  0.1554 -0.4534 -0.2268
 9468SOL    HW128982   8.330   8.031   6.726  1.8253 -1.1600  1.2810
 9468SOL    HW228983   8.256   8.163   6.723 -0.4470 -2.3899 -1.3434
 9469SOL     OW28984   0.827   2.400   2.156  0.3503 -0.6572  0.2872
 9469SOL    HW128985   0.823   2.342   2.081  0.2517  0.6727 -0.7693
 9469SOL    HW228986   0.767   2.471   2.136 -0.3605 -0.7014  2.0302
 9470SOL     OW28987   9.320   6.303   0.889  0.1707  0.0065 -0.3563
 9470SOL    HW128988   9.277   6.297   0.974 -0.8558 -1.4810 -0.9250
 9470SOL    HW228989   9.254   6.343   0.832  0.0155 -1.0418 -0.9345
 9471SOL     OW28990   7.152   6.882   1.127 -0.1960 -0.0102 -0.0767
 9471SOL    HW128991   7.086   6.842   1.184 -0.6649 -0.0149 -0.6200
 9471SOL    HW228992   7.201   6.808   1.091 -0.1668 -0.0260 -0.0056
 9472SOL     OW28993   6.606   6.441   4.686 -0.1360  0.2092  0.0653
 9472SOL    HW128994   6.551   6.518   4.701 -0.6515 -0.1984  0.2733
 9472SOL    HW228995   6.648   6.459   4.602 -0.3429  0.6680  0.0539
 9473SOL     OW28996   7.409   6.182   4.761 -0.0476 -0.2695 -0.0620
 9473SOL    HW128997   7.460   6.248   4.714 -2.0356  0.0134 -1.9434
 9473SOL    HW228998   7.351   6.233   4.818  0.0832 -0.4975  0.2776
 9474SOL     OW28999   6.174   4.402   3.023  0.3038 -0.4815  0.2225
 9474SOL    HW129000   6.187   4.473   2.961 -2.2505  0.9734  1.1764
 9474SOL    HW229001   6.151   4.326   2.969 -0.9297  0.5161 -0.7124
 9475SOL     OW29002   4.106   5.900   7.816 -0.6971 -0.2028 -0.6290
 9475SOL    HW129003   4.122   5.934   7.728 -0.0184  0.1133 -0.3889
 9475SOL    HW229004   4.169   5.829   7.827 -1.5923 -1.0584 -0.8371
 9476SOL     OW29005   6.979   0.160   5.276  0.2892 -0.4694  0.3837
 9476SOL    HW129006   6.903   0.116   5.238  0.4520 -0.7613  0.3888
 9476SOL    HW229007   6.943   0.234   5.325 -0.1005 -1.3395  1.4423
 9477SOL     OW29008   4.605   4.459   9.415  0.3375 -0.5973 -0.5920
 9477SOL    HW129009   4.559   4.387   9.457  0.5377 -0.9847 -1.0182
 9477SOL    HW229010   4.631   4.517   9.486  0.9406 -1.3942 -0.1460
 9478SOL     OW29011   0.350   6.419   9.691 -0.1260  0.4099 -0.1332
 9478SOL    HW129012   0.409   6.348   9.667  0.6251  1.1657 -0.6104
 9478SOL    HW229013   0.279   6.414   9.627  0.3330  0.5681 -0.6688
 9479SOL     OW29014   0.013   3.519   3.002  0.0559  0.4523 -0.7270
 9479SOL    HW129015  -0.019   3.457   3.068  0.3131  1.9012  0.8289
 9479SOL    HW229016   0.106   3.500   2.995  0.5083  1.7699  1.0851
 9480SOL     OW29017   9.700   1.947   5.268  0.3730 -0.1986 -0.3161
 9480SOL    HW129018   9.664   1.876   5.321  2.5762  0.1571  1.8548
 9480SOL    HW229019   9.787   1.962   5.305  1.3291  1.3357 -2.9501
 9481SOL     OW29020   7.323   3.321   8.941  0.5000  0.5614  0.2914
 9481SOL    HW129021   7.400   3.366   8.976  0.7205  0.9892 -0.7016
 9481SOL    HW229022   7.319   3.349   8.850 -1.2483  1.1288  0.4979
 9482SOL     OW29023   0.142   4.415   9.218 -0.1936 -0.4535 -0.2922
 9482SOL    HW129024   0.178   4.345   9.163 -0.1088  0.7504 -1.8226
 9482SOL    HW229025   0.198   4.416   9.296  1.2848 -0.5225 -1.3306
 9483SOL     OW29026   5.337   0.703   9.304 -0.3037 -0.0547  0.2299
 9483SOL    HW129027   5.319   0.788   9.345  3.3123  0.9118  0.1264
 9483SOL    HW229028   5.400   0.661   9.363  0.6932 -1.0853 -1.4997
 9484SOL     OW29029   0.064   5.354   9.307 -0.0401 -0.3016  0.2842
 9484SOL    HW129030  -0.020   5.400   9.308  0.1367  0.0310  0.2818
 9484SOL    HW229031   0.128   5.423   9.287  0.7145  0.2908  4.0130
 9485SOL     OW29032   3.325   5.165   5.467  0.1282 -0.1873 -0.2656
 9485SOL    HW129033   3.339   5.076   5.498  1.0377  0.3318  0.9088
 9485SOL    HW229034   3.373   5.169   5.384 -1.5959 -1.3390 -1.3897
 9486SOL     OW29035   2.966   3.491   3.383 -0.7043 -0.1954 -0.2567
 9486SOL    HW129036   2.982   3.574   3.338 -0.8537 -0.1515 -0.2300
 9486SOL    HW229037   3.021   3.495   3.461 -0.8755 -0.0268 -0.1418
 9487SOL     OW29038   3.052   5.799   6.597 -1.0853 -0.0206  0.0111
 9487SOL    HW129039   2.962   5.803   6.565 -1.0696  0.2999  0.0028
 9487SOL    HW229040   3.102   5.853   6.536 -1.0034  0.3516  0.4045
 9488SOL     OW29041   5.476   0.916   7.000  0.1471 -0.1729 -0.7620
 9488SOL    HW129042   5.440   0.939   7.085 -1.4534 -0.6850 -1.2592
 9488SOL    HW229043   5.399   0.891   6.948  1.0592  0.3185 -2.4099
 9489SOL     OW29044   2.335   1.907   8.048  0.3172  0.1544 -0.1478
 9489SOL    HW129045   2.317   1.994   8.010 -0.4395 -0.2802 -0.8380
 9489SOL    HW229046   2.310   1.915   8.140 -0.5652  0.4533 -0.3951
 9490SOL     OW29047   0.173   8.524   8.137 -0.5155  0.1764  0.3803
 9490SOL    HW129048   0.213   8.599   8.182 -1.8673  0.5544  1.0103
 9490SOL    HW229049   0.225   8.449   8.164 -0.3495  0.6204  1.3591
 9491SOL     OW29050   1.685   3.792   6.686 -0.2485  0.5186  0.4537
 9491SOL    HW129051   1.716   3.762   6.772  1.3459  0.2148 -0.1927
 9491SOL    HW229052   1.760   3.837   6.648 -0.8868  0.5436 -0.8361
 9492SOL     OW29053   4.687   2.022   8.377 -0.2484  0.2117 -0.2373
 9492SOL    HW129054   4.737   2.069   8.311 -1.8819  0.6988 -1.1902
 9492SOL    HW229055   4.751   1.967   8.422  0.8604 -0.4303 -2.4906
 9493SOL     OW29056   8.281   4.440   9.535 -0.6497  0.0751  0.2518
 9493SOL    HW129057   8.258   4.522   9.491 -0.2775  0.1389  0.1707
 9493SOL    HW229058   8.204   4.385   9.524 -0.0629 -0.4297 -1.7278
 9494SOL     OW29059   0.358   2.449   3.803  0.0534 -0.1145 -0.4038
 9494SOL    HW129060   0.316   2.374   3.845 -0.9965 -0.1418 -1.4573
 9494SOL    HW229061   0.332   2.524   3.856 -0.2319 -0.3022 -0.2753
 9495SOL     OW29062   1.671   5.672   8.159 -0.0461 -0.0272 -0.2052
 9495SOL    HW129063   1.714   5.757   8.144  1.1091 -0.8435 -1.8165
 9495SOL    HW229064   1.636   5.679   8.248  1.2244  1.6324  0.2295
 9496SOL     OW29065   3.270   8.983   4.565 -0.2935 -0.1901 -0.4432
 9496SOL    HW129066   3.181   8.982   4.601 -0.7708  1.4999 -1.4596
 9496SOL    HW229067   3.259   9.003   4.472  1.1956  2.2736 -0.2001
 9497SOL     OW29068   5.112   1.654   7.475 -0.2109  0.0248 -0.1171
 9497SOL    HW129069   5.017   1.656   7.458 -0.5626 -2.7333  0.9947
 9497SOL    HW229070   5.151   1.643   7.388 -0.8370  1.5505 -0.6258
 9498SOL     OW29071   8.938   8.231   7.382 -0.3518  0.2644  0.3529
 9498SOL    HW129072   8.894   8.147   7.368  1.0007 -0.0491 -3.2265
 9498SOL    HW229073   8.867   8.295   7.385 -1.3644 -0.8645  2.4967
 9499SOL     OW29074   1.347   4.444   7.103 -0.9611 -0.2521 -0.2478
 9499SOL    HW129075   1.356   4.391   7.181 -1.9566  1.6167  1.2307
 9499SOL    HW229076   1.430   4.433   7.056 -0.3239 -1.3694  1.0790
 9500SOL     OW29077   2.039   5.907   1.880  0.0256  0.0143 -0.3588
 9500SOL    HW129078   2.031   5.813   1.863  0.8699 -0.2484  0.6127
 9500SOL    HW229079   1.964   5.928   1.935  1.0085 -0.5734  1.2663
 9501SOL     OW29080   6.773   5.897   0.356  0.4933 -0.2667 -0.3934
 9501SOL    HW129081   6.815   5.909   0.271  0.6448  0.2621 -0.2534
 9501SOL    HW229082   6.777   5.803   0.372 -0.3662 -0.4853 -1.3835
 9502SOL     OW29083   6.140   0.964   7.297  0.0783 -0.0964 -0.2764
 9502SOL    HW129084   6.230   0.985   7.323 -0.0768  0.1908  0.0381
 9502SOL    HW229085   6.125   0.877   7.334 -0.0880  0.2446  0.4875
 9503SOL     OW29086   7.151   8.299   1.127 -0.0787 -0.2240  0.0408
 9503SOL    HW129087   7.068   8.344   1.141 -0.6529 -1.4816  0.9835
 9503SOL    HW229088   7.217   8.356   1.168 -0.5941  0.3891  0.0220
 9504SOL     OW29089   6.116   4.131   6.566 -0.0778 -0.2413 -0.1778
 9504SOL    HW129090   6.047   4.190   6.596 -1.0641 -0.9888 -0.8906
 9504SOL    HW229091   6.114   4.058   6.629 -0.6808 -0.7692 -0.7847
 9505SOL     OW29092   1.834   6.346   6.066  0.1405  0.1855 -0.5712
 9505SOL    HW129093   1.841   6.255   6.097 -0.0486 -0.7162 -2.9726
 9505SOL    HW229094   1.883   6.347   5.984 -2.7026  1.3137 -2.4281
 9506SOL     OW29095   1.318   5.711   3.462  0.0878 -0.3971  0.6358
 9506SOL    HW129096   1.287   5.641   3.404 -0.1026  0.7539 -0.7148
 9506SOL    HW229097   1.352   5.666   3.539  2.5811 -2.1819 -1.3737
 9507SOL     OW29098   5.177   1.534   7.905  0.2153  0.1788  0.0823
 9507SOL    HW129099   5.206   1.446   7.930  2.7631  0.9633  0.2418
 9507SOL    HW229100   5.177   1.583   7.987 -1.6503  0.2613  0.0717
 9508SOL     OW29101   5.285   5.237   9.003 -0.2218 -0.0383 -0.5338
 9508SOL    HW129102   5.340   5.185   8.945  1.5073 -0.0638  1.0025
 9508SOL    HW229103   5.343   5.305   9.036 -1.5408  0.8531  0.0444
 9509SOL     OW29104   4.940   1.657   8.376 -0.1924  0.6985 -0.3557
 9509SOL    HW129105   5.024   1.694   8.404 -0.5919  0.7711  0.7639
 9509SOL    HW229106   4.876   1.692   8.437 -0.7539 -0.9780  0.0806
 9510SOL     OW29107   6.661   1.279   9.930  0.1059  0.2876  0.1541
 9510SOL    HW129108   6.749   1.255   9.901  0.9636  1.8202  1.3472
 9510SOL    HW229109   6.603   1.234   9.868  1.7338  0.1890 -1.3966
 9511SOL     OW29110   8.296   9.209   0.686  0.0183 -0.3651 -0.0349
 9511SOL    HW129111   8.310   9.289   0.635  0.5354  1.3199  2.5480
 9511SOL    HW229112   8.205   9.213   0.713 -0.3528 -1.4351 -1.0234
 9512SOL     OW29113   7.689   5.734   7.975 -0.2808  0.0469 -0.4556
 9512SOL    HW129114   7.716   5.642   7.978  0.3416  0.2396 -0.0858
 9512SOL    HW229115   7.768   5.783   7.997 -0.7767  0.6463  0.0178
 9513SOL     OW29116   6.790   4.475   6.277  0.1374 -0.1945 -0.0921
 9513SOL    HW129117   6.805   4.565   6.247 -0.5080 -0.3941 -1.0635
 9513SOL    HW229118   6.768   4.427   6.197  1.1395 -1.3663  0.3116
 9514SOL     OW29119   3.835   5.293   1.603  0.5356  0.2114 -0.2221
 9514SOL    HW129120   3.908   5.239   1.574  0.1707 -0.2507 -0.3008
 9514SOL    HW229121   3.866   5.332   1.685 -0.1196 -2.2476  1.3172
 9515SOL     OW29122   8.520   7.660   7.180 -0.1201  0.2003 -0.0887
 9515SOL    HW129123   8.438   7.615   7.200  0.0020 -0.0661 -0.1889
 9515SOL    HW229124   8.588   7.603   7.215  0.0554  0.1107 -0.5710
 9516SOL     OW29125   1.895   8.268   5.188 -0.3574  0.1040 -0.2481
 9516SOL    HW129126   1.987   8.252   5.165 -0.3022  0.0460  0.0002
 9516SOL    HW229127   1.893   8.360   5.216 -1.0398  1.1964 -3.4603
 9517SOL     OW29128   7.512   5.701   6.267 -0.0717  0.3520  0.0572
 9517SOL    HW129129   7.557   5.767   6.320  2.0753 -0.0545 -1.1430
 9517SOL    HW229130   7.425   5.696   6.305  0.8005  1.3359  2.4023
 9518SOL     OW29131   1.894   0.611   1.501 -0.4375 -0.3184 -0.3912
 9518SOL    HW129132   1.837   0.543   1.538  0.1716 -0.0563  1.0794
 9518SOL    HW229133   1.836   0.685   1.485 -0.8824 -0.7586 -0.8962
 9519SOL     OW29134   4.574   1.050   2.102 -0.8271  0.0661  0.8244
 9519SOL    HW129135   4.540   0.966   2.070 -2.0587  0.6246  0.5996
 9519SOL    HW229136   4.586   1.103   2.024  3.3858 -0.9911  0.5402
 9520SOL     OW29137   4.577   6.417   1.476  0.5499  0.1092  0.6922
 9520SOL    HW129138   4.590   6.507   1.446  0.8988 -0.2978 -0.4151
 9520SOL    HW229139   4.482   6.408   1.486  0.4916  0.5083  0.5115
 9521SOL     OW29140   4.245   3.832   2.733  0.1852 -0.4724  0.1360
 9521SOL    HW129141   4.202   3.901   2.682 -0.3135  0.1124  1.3183
 9521SOL    HW229142   4.324   3.811   2.682 -0.3754 -0.0309 -0.9569
 9522SOL     OW29143   0.263   5.663   8.136  0.2301 -0.3765 -0.2653
 9522SOL    HW129144   0.353   5.649   8.163  0.2632  0.5842  0.1457
 9522SOL    HW229145   0.216   5.682   8.218 -0.2774 -0.5212 -0.5166
 9523SOL     OW29146   8.345   4.360   6.656  0.0290  0.7787  0.0105
 9523SOL    HW129147   8.359   4.421   6.584  0.7873  0.4986 -0.0876
 9523SOL    HW229148   8.433   4.333   6.683 -0.2389  0.8355  1.0028
 9524SOL     OW29149   3.830   2.474   3.079  0.5681 -0.2943 -0.0056
 9524SOL    HW129150   3.819   2.492   3.172  1.8881  0.4451  0.0282
 9524SOL    HW229151   3.781   2.392   3.064 -0.6745  0.2206  1.0580
 9525SOL     OW29152   8.912   1.518   6.061  0.0238 -0.1041 -0.8093
 9525SOL    HW129153   8.933   1.450   6.124 -0.5197  0.3700 -0.0885
 9525SOL    HW229154   8.832   1.558   6.095  0.0231  0.5212 -1.5105
 9526SOL     OW29155   7.472   7.065   4.841 -0.3478  0.3394  0.1125
 9526SOL    HW129156   7.546   7.090   4.786  0.7524 -0.1604  1.3113
 9526SOL    HW229157   7.430   6.993   4.793  1.3472 -0.9625  0.4565
 9527SOL     OW29158   0.043   4.167   8.643 -0.6464 -0.4516  0.5298
 9527SOL    HW129159   0.086   4.084   8.620  1.7543  0.7771  0.2183
 9527SOL    HW229160   0.054   4.175   8.737 -0.7722 -0.4419  0.5438
 9528SOL     OW29161   4.098   0.989   1.817 -0.2763 -0.0486  0.4534
 9528SOL    HW129162   4.137   1.068   1.781 -0.0434 -0.7786 -0.9936
 9528SOL    HW229163   4.123   0.920   1.755  0.6149 -1.5026  2.3210
 9529SOL     OW29164   7.454   5.234   8.826 -0.0145 -0.3606 -0.3202
 9529SOL    HW129165   7.451   5.204   8.736  1.5736  1.5561 -1.0784
 9529SOL    HW229166   7.465   5.154   8.878 -0.4202 -1.4390 -1.8311
 9530SOL     OW29167   9.044   3.369   6.388  0.0513 -0.7886  0.2433
 9530SOL    HW129168   9.095   3.450   6.402  0.3287 -0.8961 -0.1144
 9530SOL    HW229169   9.095   3.301   6.432 -0.7574 -0.5925  1.5138
 9531SOL     OW29170   1.461   3.404   0.252 -0.7189  0.2627  0.0154
 9531SOL    HW129171   1.391   3.466   0.232 -0.9475  0.0765  0.2277
 9531SOL    HW229172   1.529   3.421   0.186 -0.5748  1.0536  0.3646
 9532SOL     OW29173   6.202   1.288   4.395  0.2498 -0.2146  0.0593
 9532SOL    HW129174   6.140   1.308   4.325 -2.6051 -3.0860  1.5369
 9532SOL    HW229175   6.250   1.212   4.363  0.0465 -0.5694  0.5930
 9533SOL     OW29176   5.669   2.937   4.253 -0.0034  0.0077  0.1110
 9533SOL    HW129177   5.747   2.895   4.289  1.4744  1.6138 -1.0552
 9533SOL    HW229178   5.635   2.990   4.325 -0.1995 -0.8978  0.7037
 9534SOL     OW29179   7.840   2.673   9.436  0.2251  0.3298  0.3074
 9534SOL    HW129180   7.871   2.688   9.525  0.1732  0.5482  0.2906
 9534SOL    HW229181   7.851   2.580   9.422 -1.9446 -0.1782  1.3976
 9535SOL     OW29182   8.196   9.641   2.805  0.6528  0.8046 -0.5838
 9535SOL    HW129183   8.187   9.734   2.785  1.6978  1.3514  1.2689
 9535SOL    HW229184   8.285   9.633   2.840  1.0389 -1.1385 -1.8685
 9536SOL     OW29185   5.321   4.287   6.078  0.1035 -0.1421 -0.3800
 9536SOL    HW129186   5.241   4.337   6.060  0.8303  1.2881  0.1948
 9536SOL    HW229187   5.392   4.351   6.066  1.0006 -0.7199  1.5358
 9537SOL     OW29188   1.236   9.540   1.514 -0.1505 -0.0252  0.0318
 9537SOL    HW129189   1.165   9.550   1.450 -0.1716  0.1515  0.0828
 9537SOL    HW229190   1.245   9.626   1.554 -0.9670 -0.4280  1.1423
 9538SOL     OW29191   6.074   3.244   0.523 -0.1483 -0.3081  0.5559
 9538SOL    HW129192   5.989   3.209   0.550  0.0896 -1.2726  0.0877
 9538SOL    HW229193   6.068   3.249   0.427  0.6253 -1.1777  0.4615
 9539SOL     OW29194   8.826   4.992   7.181  0.0616  0.6207  0.4831
 9539SOL    HW129195   8.818   5.077   7.224  0.3449  0.8116  0.1615
 9539SOL    HW229196   8.860   5.012   7.093 -0.9068  0.2771  0.0112
 9540SOL     OW29197   9.355   1.882   9.506 -0.0324  0.2806  0.4272
 9540SOL    HW129198   9.446   1.907   9.520  0.0767  0.3875 -0.4537
 9540SOL    HW229199   9.311   1.905   9.588  0.9694 -0.9465  1.3481
 9541SOL     OW29200   3.677   7.457   8.888 -0.2340  0.5989 -0.4425
 9541SOL    HW129201   3.727   7.494   8.961 -4.7723  0.4223  3.1803
 9541SOL    HW229202   3.705   7.366   8.883  1.6372  1.1287 -0.4531
 9542SOL     OW29203   8.079   2.713   5.140  0.2083  0.2702  1.0092
 9542SOL    HW129204   8.164   2.757   5.137 -0.6825  2.0277 -1.0992
 9542SOL    HW229205   8.015   2.784   5.137 -1.4353 -0.9434  3.2622
 9543SOL     OW29206   1.088   6.183   9.403  0.1773 -0.1661  0.1364
 9543SOL    HW129207   1.137   6.110   9.366  0.8005 -0.0885  0.7665
 9543SOL    HW229208   1.150   6.256   9.402 -0.0344  0.0266  0.6333
 9544SOL     OW29209   2.873   4.628   2.748 -0.5790  0.1174 -0.0840
 9544SOL    HW129210   2.962   4.592   2.738 -0.3200  0.9065 -0.6950
 9544SOL    HW229211   2.835   4.577   2.819  0.3189 -0.3219  0.0991
 9545SOL     OW29212   1.160   5.670   6.627  0.4618  0.4318  0.1386
 9545SOL    HW129213   1.094   5.603   6.644 -0.0961  0.7240 -0.8020
 9545SOL    HW229214   1.138   5.703   6.540  1.2373  1.2511  0.2472
 9546SOL     OW29215   1.123   2.423   8.464  0.4600 -0.1924 -0.2027
 9546SOL    HW129216   1.163   2.344   8.502  0.6841 -0.9018 -1.7992
 9546SOL    HW229217   1.167   2.433   8.379  0.1190  1.4120 -0.2204
 9547SOL     OW29218   2.524   1.241   0.060  0.2035  0.5345 -0.0335
 9547SOL    HW129219   2.597   1.204   0.111 -0.1374 -1.0521 -0.6226
 9547SOL    HW229220   2.564   1.313   0.012  2.2708 -2.0785 -2.6410
 9548SOL     OW29221   1.245   6.876   9.611  0.2212 -0.1616  0.8482
 9548SOL    HW129222   1.277   6.801   9.661  3.1055  2.0803  2.7516
 9548SOL    HW229223   1.203   6.932   9.676 -3.3139 -0.6651 -0.7929
 9549SOL     OW29224   3.369   5.940   0.400 -0.2147  0.4073  0.0989
 9549SOL    HW129225   3.409   5.922   0.485 -1.4611 -0.3601  0.5543
 9549SOL    HW229226   3.440   5.926   0.337  0.2509 -0.9292  0.8717
 9550SOL     OW29227   8.815   1.205   4.568 -0.4257 -0.1969  0.6673
 9550SOL    HW129228   8.733   1.166   4.537 -0.0798 -0.2723 -0.1563
 9550SOL    HW229229   8.786   1.277   4.625 -1.0651 -0.3294  0.5221
 9551SOL     OW29230   9.075   3.929   3.890  0.4470 -0.9488  0.1096
 9551SOL    HW129231   9.104   3.868   3.957 -0.3677 -2.4165 -0.8060
 9551SOL    HW229232   9.102   3.888   3.807 -1.9144 -1.1792 -0.6473
 9552SOL     OW29233   1.391   4.386   9.231  0.1865 -0.0810  0.9206
 9552SOL    HW129234   1.418   4.466   9.276  0.5632  0.0366  0.4893
 9552SOL    HW229235   1.472   4.341   9.211  0.0943  0.3440 -0.5079
 9553SOL     OW29236   2.955   4.111   7.296  0.0147 -0.3485 -0.0438
 9553SOL    HW129237   2.901   4.094   7.373  0.7384  2.0129  1.0957
 9553SOL    HW229238   2.893   4.121   7.224 -0.9526  0.5495  0.8795
 9554SOL     OW29239   4.047   2.399   0.781  0.0402 -0.0250  0.7499
 9554SOL    HW129240   4.108   2.343   0.829  0.4884  0.7526  1.1213
 9554SOL    HW229241   4.101   2.438   0.711 -0.6719 -1.3705 -0.5897
 9555SOL     OW29242   6.217   8.830   0.127  0.0910 -0.1873  0.0847
 9555SOL    HW129243   6.195   8.823   0.220 -2.2284 -0.6606 -0.4268
 9555SOL    HW229244   6.180   8.915   0.100  1.3268  0.2487 -0.2850
 9556SOL     OW29245   0.464   2.081   8.082 -0.0439 -0.1212  0.1250
 9556SOL    HW129246   0.477   2.082   8.176  0.5143  1.2549  0.0514
 9556SOL    HW229247   0.400   2.011   8.067 -1.3978  0.7064  1.6991
 9557SOL     OW29248   0.198   6.881   7.721 -0.2128 -0.1688 -0.2433
 9557SOL    HW129249   0.149   6.810   7.680  0.7099 -1.0641  0.1515
 9557SOL    HW229250   0.289   6.865   7.695 -0.0573  1.1724 -0.5658
 9558SOL     OW29251   4.832   2.233   5.529 -0.0662  0.0640 -0.0030
 9558SOL    HW129252   4.840   2.313   5.580 -2.5824  1.4424 -1.5716
 9558SOL    HW229253   4.825   2.263   5.438  0.9704 -2.1013 -0.8698
 9559SOL     OW29254   1.701   1.084   6.356  0.2488  0.4585  0.3029
 9559SOL    HW129255   1.782   1.081   6.304  0.3397  0.2149  0.4580
 9559SOL    HW229256   1.670   0.994   6.358  0.5483  0.3570  1.1390
 9560SOL     OW29257   8.699   7.078   5.608  0.4944  0.1509 -0.4318
 9560SOL    HW129258   8.775   7.123   5.573 -0.7219  2.2704 -0.4851
 9560SOL    HW229259   8.694   6.996   5.558  1.9694  0.5537 -1.2904
 9561SOL     OW29260   8.325   5.640   7.002 -0.0290 -0.4491 -0.2205
 9561SOL    HW129261   8.275   5.573   7.049 -2.0583  1.2585  0.2135
 9561SOL    HW229262   8.317   5.616   6.910 -2.3288  0.1500 -0.2233
 9562SOL     OW29263   9.464   0.699   0.549 -0.5838  0.1481  0.0194
 9562SOL    HW129264   9.404   0.625   0.537 -1.3921  0.7668  0.1574
 9562SOL    HW229265   9.547   0.668   0.513 -1.0660 -0.6162 -0.4778
 9563SOL     OW29266   8.468   7.535   9.661  0.1058  0.3715  0.0631
 9563SOL    HW129267   8.469   7.594   9.736 -2.3087  0.6549 -0.0420
 9563SOL    HW229268   8.384   7.551   9.619 -1.2419 -3.8585  0.6499
 9564SOL     OW29269   4.032   5.213   7.652 -0.3216  0.4000 -0.2607
 9564SOL    HW129270   4.085   5.266   7.592 -0.1000 -0.8063 -1.1628
 9564SOL    HW229271   3.949   5.200   7.605 -0.0103 -0.8624 -0.5020
 9565SOL     OW29272   7.346   9.295   8.724 -0.7295  0.0761  0.1431
 9565SOL    HW129273   7.300   9.309   8.806  0.9519 -1.0352  1.3336
 9565SOL    HW229274   7.307   9.215   8.687 -0.5066 -0.2534  0.6100
 9566SOL     OW29275   6.059   0.078   2.100 -0.0234 -0.3121 -0.0744
 9566SOL    HW129276   6.144   0.083   2.144  0.4963 -0.8679 -0.9970
 9566SOL    HW229277   6.004   0.140   2.148  1.1507  0.7274 -0.0066
 9567SOL     OW29278   9.454   3.883   1.178  0.2265 -0.2053 -0.1779
 9567SOL    HW129279   9.389   3.813   1.177  0.8522 -0.7934 -0.4061
 9567SOL    HW229280   9.420   3.948   1.117 -0.5973 -0.0782  0.3942
 9568SOL     OW29281   9.248   9.947   9.031 -0.0786  0.2412  0.2560
 9568SOL    HW129282   9.229  10.040   9.019  0.8152  0.2056 -1.5813
 9568SOL    HW229283   9.169   9.903   8.999 -0.5495  0.3297  1.2330
 9569SOL     OW29284   7.987   7.503   4.913  0.1739  0.3359  0.0811
 9569SOL    HW129285   7.960   7.506   5.005 -0.7409  1.2988 -0.2005
 9569SOL    HW229286   8.083   7.498   4.916  0.1443  0.3015  1.0927
 9570SOL     OW29287   8.019   0.916   8.067 -0.0386 -0.0547 -0.2003
 9570SOL    HW129288   8.006   0.852   7.997 -0.8688  1.1093 -1.1632
 9570SOL    HW229289   8.061   0.991   8.023 -0.7488  0.7741  0.4941
 9571SOL     OW29290   8.600   5.389   8.927 -0.2848 -0.6319 -0.3273
 9571SOL    HW129291   8.589   5.321   8.860  2.5047 -1.3899 -0.1281
 9571SOL    HW229292   8.625   5.341   9.006 -0.8722  0.4761  0.5598
 9572SOL     OW29293   9.277   5.624   1.765 -0.0130 -0.3493  0.3495
 9572SOL    HW129294   9.266   5.547   1.821  0.0836 -0.5496  0.0936
 9572SOL    HW229295   9.191   5.666   1.766 -0.0676 -0.4607  0.4881
 9573SOL     OW29296   7.696   1.784   3.088  0.2933 -0.0632  0.2795
 9573SOL    HW129297   7.693   1.857   3.027  1.6726  0.4735  0.8295
 9573SOL    HW229298   7.619   1.797   3.144  0.9497  1.4273  0.8802
 9574SOL     OW29299   5.943  -0.000   7.397  0.3639  0.2419  0.8338
 9574SOL    HW129300   5.913   0.024   7.485 -1.7264  1.3600 -0.1133
 9574SOL    HW229301   5.910   0.070   7.341 -0.3192 -1.5768 -1.1614
 9575SOL     OW29302   8.298   6.294   6.712 -0.0790 -0.0140  0.6326
 9575SOL    HW129303   8.367   6.358   6.698 -0.8056  0.5676 -0.4397
 9575SOL    HW229304   8.266   6.313   6.801  1.2462 -0.4265  1.2170
 9576SOL     OW29305   6.806   5.756   9.111  0.1437 -0.2842 -0.2773
 9576SOL    HW129306   6.863   5.704   9.169 -0.6703 -0.5359  0.3188
 9576SOL    HW229307   6.867   5.801   9.053  0.8915 -2.1064 -0.9949
 9577SOL     OW29308   6.885   5.508   4.346 -0.0285 -0.5572  0.2095
 9577SOL    HW129309   6.977   5.493   4.322 -0.3004 -3.6447  0.6661
 9577SOL    HW229310   6.837   5.496   4.265 -0.2909 -3.2373  0.6623
 9578SOL     OW29311   8.320   8.513   1.595 -0.2591  0.2481 -0.4974
 9578SOL    HW129312   8.282   8.597   1.571  0.0153  0.7884  0.9071
 9578SOL    HW229313   8.249   8.466   1.638 -0.4395 -0.2924 -1.3647
 9579SOL     OW29314   2.327   6.983   5.710 -0.2928  0.1193  0.6634
 9579SOL    HW129315   2.312   6.990   5.616 -1.0653 -0.1354  0.7655
 9579SOL    HW229316   2.256   6.928   5.742  0.1615 -0.0840  1.3472
 9580SOL     OW29317   9.351   4.990   9.463 -0.0032  0.2831  0.5159
 9580SOL    HW129318   9.338   5.047   9.539  4.2537  1.1438  0.8686
 9580SOL    HW229319   9.359   5.050   9.389 -0.9992 -0.3428 -0.1248
 9581SOL     OW29320   0.160   7.936   9.031  0.7228 -0.0734 -0.1832
 9581SOL    HW129321   0.151   8.025   8.998  1.0499 -0.8455 -2.5690
 9581SOL    HW229322   0.077   7.894   9.009 -0.0613 -0.0183  2.3341
 9582SOL     OW29323   0.831   3.282   5.134  0.2272  0.2029 -0.3569
 9582SOL    HW129324   0.778   3.217   5.179  0.3165  0.3448 -0.0405
 9582SOL    HW229325   0.828   3.257   5.041 -3.1492  2.1118 -0.9048
 9583SOL     OW29326   4.206   8.583   5.380  0.0517  0.5567 -0.3637
 9583SOL    HW129327   4.186   8.669   5.341 -0.2945  0.9127  0.5689
 9583SOL    HW229328   4.262   8.604   5.455  0.8016 -0.1286 -0.7226
 9584SOL     OW29329   6.741   5.179   4.722 -0.8575 -0.0211  0.3140
 9584SOL    HW129330   6.813   5.229   4.759 -2.0122  2.2706 -0.3714
 9584SOL    HW229331   6.684   5.159   4.796  0.4196 -1.9279  0.8779
 9585SOL     OW29332   1.796   2.531   1.222  0.0368  0.6266  0.0236
 9585SOL    HW129333   1.847   2.583   1.285 -0.0604 -2.4186  2.9225
 9585SOL    HW229334   1.862   2.487   1.169  0.2250  1.1266 -0.1623
 9586SOL     OW29335   0.913   7.868   6.618 -0.2846  0.6731  0.0638
 9586SOL    HW129336   0.883   7.935   6.679  0.7900  1.3440 -0.1124
 9586SOL    HW229337   0.841   7.804   6.615 -0.9061  1.2980  1.0002
 9587SOL     OW29338   5.388   7.885   7.287  0.4621 -0.3265 -0.1100
 9587SOL    HW129339   5.312   7.936   7.314  0.0594 -1.3724  0.8513
 9587SOL    HW229340   5.461   7.920   7.338  0.3365 -0.2216 -0.0038
 9588SOL     OW29341   2.475   8.652   9.932 -0.0714 -0.8602 -0.4756
 9588SOL    HW129342   2.429   8.706   9.868  1.0197  1.0797  0.2947
 9588SOL    HW229343   2.406   8.613   9.984 -0.9094 -0.1656 -1.0316
 9589SOL     OW29344   8.155   1.505   4.499  0.4674  0.5964 -0.3950
 9589SOL    HW129345   8.102   1.439   4.454 -0.8634 -0.5682  2.6209
 9589SOL    HW229346   8.112   1.588   4.478 -0.9627 -0.0505 -0.1696
 9590SOL     OW29347   4.243   8.493   6.413 -0.4962 -0.8667  0.0582
 9590SOL    HW129348   4.152   8.505   6.440 -0.3380  0.0232  0.2346
 9590SOL    HW229349   4.242   8.416   6.357 -1.6300  0.0348 -1.2037
 9591SOL     OW29350   7.574   2.303   4.294  0.0751 -0.7424 -0.1673
 9591SOL    HW129351   7.655   2.334   4.253  0.3362 -1.2602 -0.0576
 9591SOL    HW229352   7.598   2.289   4.386 -0.8805  1.8526  0.5688
 9592SOL     OW29353   3.937   1.581   0.981 -0.1485  0.1958  0.2440
 9592SOL    HW129354   4.013   1.633   0.953 -1.5347  1.2190 -1.9541
 9592SOL    HW229355   3.902   1.628   1.056  0.1973  0.8996 -0.0241
 9593SOL     OW29356   1.275   9.330   5.972  0.0930 -0.3116  0.6432
 9593SOL    HW129357   1.243   9.379   5.896  0.1968 -1.9898 -0.5228
 9593SOL    HW229358   1.206   9.341   6.038 -0.6168  0.0847 -0.1394
 9594SOL     OW29359   7.904   0.894   1.738  0.3532 -0.3057  0.5401
 9594SOL    HW129360   7.893   0.852   1.653 -2.7318  0.9580  0.1633
 9594SOL    HW229361   7.979   0.952   1.727  0.4573 -0.7050 -1.0932
 9595SOL     OW29362   6.651   9.469   0.709  0.3951 -0.2036  0.3485
 9595SOL    HW129363   6.733   9.450   0.754 -0.0843 -0.9011  0.9656
 9595SOL    HW229364   6.638   9.563   0.720 -0.2609 -0.4985  2.7019
 9596SOL     OW29365   0.991   3.155   3.985  0.1455 -0.0558  0.3796
 9596SOL    HW129366   1.080   3.159   3.949  1.2983  0.3753  3.0747
 9596SOL    HW229367   0.970   3.245   4.009 -1.0038 -0.1774 -0.0865
 9597SOL     OW29368   2.258   6.621   2.004  0.0517 -0.3427 -0.0858
 9597SOL    HW129369   2.214   6.696   1.965 -0.3647 -0.9151 -0.7448
 9597SOL    HW229370   2.327   6.659   2.058 -0.7819  0.5465  0.3843
 9598SOL     OW29371   5.835   6.885   9.834 -0.4821 -0.1286 -0.4143
 9598SOL    HW129372   5.920   6.842   9.845 -1.0492 -1.6913 -1.7508
 9598SOL    HW229373   5.853   6.959   9.775  0.2479  0.6718  0.7724
 9599SOL     OW29374   7.862   4.750   1.724 -0.4529 -0.1744  0.2247
 9599SOL    HW129375   7.777   4.737   1.683 -1.3352  1.6738  1.3524
 9599SOL    HW229376   7.924   4.748   1.652 -1.7976  1.4927 -1.0489
 9600SOL     OW29377   2.008   9.212   3.110  0.9839  0.0544 -0.1383
 9600SOL    HW129378   2.096   9.175   3.113  1.1100  0.3066 -0.6291
 9600SOL    HW229379   1.973   9.186   3.024  1.2063  1.3465 -0.6476
 9601SOL     OW29380   7.019   9.014   3.506 -0.2453  0.1632 -0.2533
 9601SOL    HW129381   6.956   8.943   3.492 -1.8300  1.8129 -2.0133
 9601SOL    HW229382   7.059   9.028   3.420  0.7728  0.7701  0.2980
 9602SOL     OW29383   4.457   7.366   5.404 -0.0810  0.1698 -0.1011
 9602SOL    HW129384   4.387   7.312   5.367  0.3539 -0.0319 -0.6443
 9602SOL    HW229385   4.421   7.400   5.486 -0.4876 -0.6668  0.0765
 9603SOL     OW29386   9.360   5.243   8.755 -0.0366  0.4974 -0.2924
 9603SOL    HW129387   9.300   5.177   8.790 -1.3978  1.4406 -0.7812
 9603SOL    HW229388   9.416   5.194   8.694 -0.3143 -0.3971  0.1568
 9604SOL     OW29389   9.074   7.217   7.915  0.2479  0.0362  0.0657
 9604SOL    HW129390   9.085   7.307   7.944  1.1462  0.0380 -0.2462
 9604SOL    HW229391   9.158   7.175   7.933  0.0957 -0.5327 -0.5045
 9605SOL     OW29392   8.445   8.740   2.156  0.1375 -0.2799 -0.0678
 9605SOL    HW129393   8.448   8.647   2.133 -0.5894 -0.0090 -1.3512
 9605SOL    HW229394   8.354   8.756   2.181  0.4941 -0.1323  1.2138
 9606SOL     OW29395   1.747   7.649   7.226 -0.3469 -0.0026 -0.1544
 9606SOL    HW129396   1.688   7.613   7.159  0.6000 -0.7768 -0.6019
 9606SOL    HW229397   1.826   7.595   7.219 -0.3008 -0.2469  1.7497
 9607SOL     OW29398   9.350   7.741   1.049  0.1034 -0.6947  0.0584
 9607SOL    HW129399   9.403   7.788   0.985  1.1015 -0.6932  0.8507
 9607SOL    HW229400   9.412   7.716   1.118 -0.8364 -1.1513  0.7694
 9608SOL     OW29401   0.991   9.455   4.295  0.4288 -0.0311 -0.2589
 9608SOL    HW129402   1.019   9.388   4.358  0.2115  1.8545  1.9630
 9608SOL    HW229403   1.071   9.503   4.274  0.2628  0.1902 -0.3895
 9609SOL     OW29404   5.526   8.835   5.809 -0.1726  0.0454 -0.4152
 9609SOL    HW129405   5.590   8.826   5.738 -0.8685 -1.1997 -0.8976
 9609SOL    HW229406   5.540   8.758   5.864  0.5320  1.1192  0.9882
 9610SOL     OW29407   7.827   9.627   2.905  0.2863 -0.2774  0.1526
 9610SOL    HW129408   7.830   9.540   2.866 -0.8556 -0.6354  0.8222
 9610SOL    HW229409   7.916   9.644   2.933  0.1862 -2.0565  1.7454
 9611SOL     OW29410   8.344   5.982   8.136  0.1402  0.0607  0.2775
 9611SOL    HW129411   8.408   6.050   8.115  0.6930 -0.0004  1.6156
 9611SOL    HW229412   8.290   5.974   8.058  1.5052  0.4187 -0.7377
 9612SOL     OW29413   8.700   6.503   9.791  0.2696  0.4847 -0.3212
 9612SOL    HW129414   8.671   6.448   9.864  0.1677  1.6883  0.5702
 9612SOL    HW229415   8.734   6.441   9.727  0.5207 -0.6001  0.8192
 9613SOL     OW29416   2.507   9.183   5.741  0.3880 -0.1757  0.3906
 9613SOL    HW129417   2.554   9.152   5.664  2.0785  1.0906  0.8484
 9613SOL    HW229418   2.504   9.107   5.800 -2.2601 -1.6145 -1.4199
 9614SOL     OW29419   3.552   7.165   4.971 -0.3682  0.3280 -0.2917
 9614SOL    HW129420   3.537   7.082   4.925 -0.9850  0.2376  0.0527
 9614SOL    HW229421   3.634   7.152   5.018 -0.8401 -0.3798  0.3680
 9615SOL     OW29422   7.763   7.828   4.285  0.0670  0.6462 -0.5187
 9615SOL    HW129423   7.741   7.875   4.366  2.2114 -1.3232  1.3721
 9615SOL    HW229424   7.857   7.844   4.273  0.6411 -2.1209 -0.3928
 9616SOL     OW29425   4.309   1.424   0.315  0.2291 -0.7287  0.2806
 9616SOL    HW129426   4.322   1.510   0.354  1.9065 -0.2069 -1.3143
 9616SOL    HW229427   4.230   1.390   0.358  1.4201  0.1540  3.4270
 9617SOL     OW29428   6.883   5.728   5.551 -0.1517 -0.0815 -0.0233
 9617SOL    HW129429   6.951   5.785   5.585 -0.6511  0.2675  0.4185
 9617SOL    HW229430   6.805   5.751   5.603  0.0385 -2.3929  1.4197
 9618SOL     OW29431   6.898   6.022   6.959 -0.4971  0.5615 -0.0381
 9618SOL    HW129432   6.900   5.926   6.953 -3.2646  0.5085 -1.9906
 9618SOL    HW229433   6.987   6.049   6.940  0.2566 -1.6022  0.1272
 9619SOL     OW29434   7.053   5.899   2.702  0.8792  0.0185  0.0279
 9619SOL    HW129435   6.983   5.882   2.639  0.2894 -1.5048  1.0447
 9619SOL    HW229436   7.031   5.845   2.778  2.0562  1.1019  1.1985
 9620SOL     OW29437   5.973   6.349   0.852 -0.3765  0.5335 -0.3162
 9620SOL    HW129438   5.988   6.309   0.767  2.4370 -3.3036  1.6618
 9620SOL    HW229439   6.056   6.393   0.873  0.3773 -1.6667  1.7591
 9621SOL     OW29440   9.800   9.979   5.024  0.3276  0.3649  0.1839
 9621SOL    HW129441   9.882  10.014   5.059  0.4478 -1.2580  1.6606
 9621SOL    HW229442   9.777   9.908   5.084 -1.7851  0.3053 -0.6283
 9622SOL     OW29443   6.059   1.482   7.733  0.6238 -0.4154  0.2688
 9622SOL    HW129444   6.095   1.547   7.672 -4.1683  1.7618 -0.7215
 9622SOL    HW229445   6.054   1.402   7.681 -0.1300  0.4733 -1.1182
 9623SOL     OW29446   4.269   7.907   6.491 -0.2880  0.4769  0.3082
 9623SOL    HW129447   4.201   7.909   6.424  0.0881  2.8254 -0.0860
 9623SOL    HW229448   4.252   7.984   6.545  0.4722 -0.3966  1.8744
 9624SOL     OW29449   7.023   8.132   2.267 -0.7160 -0.8797 -0.0333
 9624SOL    HW129450   6.975   8.053   2.289 -0.1122 -1.2360  0.0235
 9624SOL    HW229451   7.090   8.104   2.204 -0.5561 -0.4034 -0.0848
 9625SOL     OW29452   8.288   7.255   2.329  0.5158  0.1074 -0.4769
 9625SOL    HW129453   8.240   7.194   2.386  0.2444 -0.7320 -1.5787
 9625SOL    HW229454   8.257   7.342   2.356  0.9077 -0.2043  1.1222
 9626SOL     OW29455   8.415   0.284   6.119  0.9230 -0.1484 -0.1621
 9626SOL    HW129456   8.500   0.323   6.141  0.9607 -0.7865  0.9405
 9626SOL    HW229457   8.437   0.204   6.071  0.8650  0.7888 -1.8062
 9627SOL     OW29458   0.799   1.918   7.471  0.0809  0.2724 -0.2880
 9627SOL    HW129459   0.833   1.873   7.549 -1.4800  0.3676  0.4780
 9627SOL    HW229460   0.727   1.972   7.503 -2.3843 -1.6770 -2.1297
 9628SOL     OW29461   3.086   2.883   9.198 -0.3275  0.1735 -0.1104
 9628SOL    HW129462   3.124   2.971   9.206  0.4517 -0.1228 -0.4593
 9628SOL    HW229463   2.996   2.898   9.169 -1.0329  0.9671  2.2680
 9629SOL     OW29464   3.396   0.049   4.834  0.0206 -0.5675  0.7269
 9629SOL    HW129465   3.332  -0.003   4.884 -0.6095  1.8446  2.6084
 9629SOL    HW229466   3.481   0.024   4.872 -0.4336  1.0886  3.0308
 9630SOL     OW29467   1.723   3.237   4.389  0.6675 -0.0128  0.4678
 9630SOL    HW129468   1.806   3.281   4.372  1.8114 -2.4986 -1.0795
 9630SOL    HW229469   1.720   3.225   4.484  1.8354  0.5694  0.5916
 9631SOL     OW29470   6.117   8.900   3.098 -0.3384 -0.6358  0.0890
 9631SOL    HW129471   6.072   8.825   3.059  1.4365 -1.9820  0.4765
 9631SOL    HW229472   6.143   8.954   3.023 -1.0046 -0.7689 -0.2441
 9632SOL     OW29473   6.494   3.840   7.351  0.3524 -0.3727 -0.4618
 9632SOL    HW129474   6.462   3.799   7.431  1.8774  0.3979  0.5894
 9632SOL    HW229475   6.440   3.920   7.342  1.2522  0.3990  0.7362
 9633SOL     OW29476   4.905   9.483   9.488  0.3256  0.0989  0.7259
 9633SOL    HW129477   4.918   9.574   9.515 -0.1310  1.0922 -2.0838
 9633SOL    HW229478   4.838   9.488   9.420 -0.7946 -2.5550  1.5009
 9634SOL     OW29479   1.633   3.778   6.245  0.4704  0.0803  0.2809
 9634SOL    HW129480   1.565   3.844   6.255  0.2421  0.0917 -1.1915
 9634SOL    HW229481   1.590   3.696   6.267  0.3089  0.2236  0.5077
 9635SOL     OW29482   4.178   0.640   7.642 -0.4132  0.0008  0.3398
 9635SOL    HW129483   4.127   0.683   7.711 -0.8180 -0.2383  0.1908
 9635SOL    HW229484   4.184   0.706   7.573 -1.9224 -0.5088 -0.3258
 9636SOL     OW29485   5.767   0.493   3.221  0.0144 -0.6700 -0.1163
 9636SOL    HW129486   5.861   0.481   3.230  0.4406  0.5044 -2.3356
 9636SOL    HW229487   5.753   0.509   3.128 -2.6845 -3.0495 -0.2664
 9637SOL     OW29488   2.789   0.249   0.765 -0.1618  0.0492 -0.1365
 9637SOL    HW129489   2.743   0.232   0.847 -0.5575 -1.0952 -0.5821
 9637SOL    HW229490   2.749   0.331   0.733 -1.5479 -0.6353 -0.2480
 9638SOL     OW29491   3.361   8.822   3.953  0.6695 -0.3478  0.5371
 9638SOL    HW129492   3.431   8.771   3.993 -0.9248 -1.9610  1.4061
 9638SOL    HW229493   3.308   8.758   3.905 -0.6400  0.6868  0.5335
 9639SOL     OW29494   1.839   5.051   1.180  0.0490 -0.4720  0.0154
 9639SOL    HW129495   1.850   4.975   1.238 -0.6990 -0.2081  0.5221
 9639SOL    HW229496   1.926   5.089   1.173  0.1945 -0.6353  0.8074
 9640SOL     OW29497   2.802   9.503   2.956  0.3820 -0.4577  0.0596
 9640SOL    HW129498   2.889   9.468   2.936  0.2322 -0.8623  0.1132
 9640SOL    HW229499   2.792   9.577   2.897  0.6876 -0.5301 -0.0828
 9641SOL     OW29500   4.239   5.134   2.021 -0.0265 -0.2926  0.3193
 9641SOL    HW129501   4.154   5.092   2.011  0.0278 -0.4585  0.5419
 9641SOL    HW229502   4.227   5.221   1.984 -0.0048 -0.6624 -0.5960
 9642SOL     OW29503   1.782   0.623   8.445  0.0454 -0.9036 -0.1505
 9642SOL    HW129504   1.731   0.561   8.392 -0.9491  1.0044 -1.5800
 9642SOL    HW229505   1.843   0.663   8.383  2.1394 -1.8600  1.1762
 9643SOL     OW29506   3.014   8.323   0.378  0.1999 -0.5176 -0.2762
 9643SOL    HW129507   2.974   8.237   0.389  0.1696 -1.0276 -3.5657
 9643SOL    HW229508   2.943   8.385   0.394 -0.0792 -1.1063  0.8984
 9644SOL     OW29509   1.222   3.590   1.890 -0.3964  0.1310 -0.1961
 9644SOL    HW129510   1.292   3.602   1.954 -0.5536  0.9480 -0.1660
 9644SOL    HW229511   1.147   3.638   1.926 -1.0363 -0.8630 -0.1512
 9645SOL     OW29512   1.341   0.731   5.919  0.4711  0.4315 -0.6386
 9645SOL    HW129513   1.305   0.783   5.990 -0.0397 -0.3664 -0.2961
 9645SOL    HW229514   1.266   0.683   5.884  0.8512  0.2549 -1.2282
 9646SOL     OW29515   5.692   3.644   6.205  0.3866  0.6072 -0.4987
 9646SOL    HW129516   5.768   3.642   6.146  0.8341  1.7173  0.0176
 9646SOL    HW229517   5.704   3.724   6.257  0.9462 -1.2227  2.3749
 9647SOL     OW29518   4.319   1.913   4.704 -0.0957  0.6065  0.4808
 9647SOL    HW129519   4.241   1.896   4.651  1.3481 -4.0914 -0.5709
 9647SOL    HW229520   4.393   1.898   4.645  1.7312  2.8542  1.9826
 9648SOL     OW29521   9.285   3.611   3.798  0.1527  0.3006  0.1468
 9648SOL    HW129522   9.267   3.675   3.868 -2.1159  0.7849 -0.7775
 9648SOL    HW229523   9.198   3.589   3.764  1.0868 -1.3054 -1.3197
 9649SOL     OW29524   9.386   6.009   4.120 -0.1004  0.6080  0.0842
 9649SOL    HW129525   9.402   6.018   4.026  0.1997  1.7719  0.2309
 9649SOL    HW229526   9.291   6.013   4.129 -0.0807  2.3012 -0.0424
 9650SOL     OW29527   1.282   0.801   4.643  0.4159  0.7710  0.4222
 9650SOL    HW129528   1.261   0.885   4.685  0.7939  0.7752  0.6112
 9650SOL    HW229529   1.378   0.795   4.650  0.4324  0.5496 -0.0210
 9651SOL     OW29530   4.477   3.435   0.368 -0.1625 -0.6589  0.1528
 9651SOL    HW129531   4.392   3.391   0.368  0.0292 -1.0975  1.8279
 9651SOL    HW229532   4.500   3.444   0.275 -1.2162 -2.1114 -0.2788
 9652SOL     OW29533   4.913   0.550   9.421  0.1426 -0.3701 -0.6125
 9652SOL    HW129534   4.859   0.515   9.492 -0.1105 -0.9040 -1.0568
 9652SOL    HW229535   4.993   0.499   9.424  0.6806  0.4961  0.1158
 9653SOL     OW29536   5.843   0.559   4.254 -0.3359 -0.0400 -0.4963
 9653SOL    HW129537   5.839   0.620   4.328  1.2495 -0.4680 -0.0261
 9653SOL    HW229538   5.927   0.514   4.264 -0.2320 -0.3519 -2.3797
 9654SOL     OW29539   9.473   9.913   6.268 -0.4772  0.2834 -0.1597
 9654SOL    HW129540   9.459   9.846   6.336  0.9667  0.5613  0.4489
 9654SOL    HW229541   9.494   9.863   6.189 -0.4539 -0.0003  0.0256
 9655SOL     OW29542   5.239   7.836   9.878  0.5878  0.2763  0.2292
 9655SOL    HW129543   5.332   7.823   9.863  1.2217  3.5965  0.5632
 9655SOL    HW229544   5.196   7.795   9.803  2.0151 -3.3890  1.1982
 9656SOL     OW29545   6.415   4.444   4.291 -0.2419 -0.7634  0.4409
 9656SOL    HW129546   6.387   4.480   4.207 -0.3672 -0.8836  0.4309
 9656SOL    HW229547   6.501   4.481   4.306 -0.2087 -0.7643  0.2463
 9657SOL     OW29548   5.586   6.468   1.452  0.0350 -0.5856  0.5701
 9657SOL    HW129549   5.544   6.543   1.494  0.4782 -0.0210  0.0190
 9657SOL    HW229550   5.660   6.447   1.509  0.5826  0.1251  0.1421
 9658SOL     OW29551   9.344   2.841   8.431 -0.3024 -0.2529 -0.2335
 9658SOL    HW129552   9.276   2.866   8.493 -1.0841 -0.8842 -0.8146
 9658SOL    HW229553   9.426   2.848   8.480 -0.8264  0.0785  0.6032
 9659SOL     OW29554   2.119   9.813   4.527 -0.0922 -0.2217 -0.1588
 9659SOL    HW129555   2.147   9.723   4.543 -1.3313 -0.3204  1.9265
 9659SOL    HW229556   2.064   9.808   4.449 -0.4000 -1.3490  0.1120
 9660SOL     OW29557   2.553   4.361   2.596  0.4233  0.4132  0.2118
 9660SOL    HW129558   2.523   4.279   2.556 -0.9340  1.1139 -0.2927
 9660SOL    HW229559   2.645   4.367   2.573  0.0178  0.0916 -1.6573
 9661SOL     OW29560   1.279   0.405   5.169 -0.0802  0.1001 -0.4971
 9661SOL    HW129561   1.302   0.364   5.252 -0.3940  0.7052 -0.1047
 9661SOL    HW229562   1.363   0.418   5.125 -0.0038 -1.3409 -0.8238
 9662SOL     OW29563   1.274   7.169   8.593 -0.8162  0.3625 -0.3771
 9662SOL    HW129564   1.282   7.095   8.533  0.2612  1.3182 -1.4650
 9662SOL    HW229565   1.345   7.227   8.569 -0.3874  0.8334  1.8051
 9663SOL     OW29566   8.804   1.466   5.787 -0.1681 -0.4131 -0.2481
 9663SOL    HW129567   8.849   1.448   5.869  1.0812 -0.5780 -0.9485
 9663SOL    HW229568   8.735   1.528   5.810  0.8835  0.4285  0.7345
 9664SOL     OW29569   2.346   0.144   4.857  0.6853 -0.1515  0.1144
 9664SOL    HW129570   2.427   0.123   4.903  0.4353  1.1360  1.2032
 9664SOL    HW229571   2.301   0.060   4.848  0.5388 -0.4260  2.6508
 9665SOL     OW29572   8.927   6.582   2.078 -0.6835 -0.1772 -0.0576
 9665SOL    HW129573   8.999   6.535   2.120 -0.8429 -1.9563 -1.6447
 9665SOL    HW229574   8.849   6.533   2.104 -0.7188 -1.8253 -2.8804
 9666SOL     OW29575   2.699   5.965   1.379 -0.0371  0.3755 -0.5420
 9666SOL    HW129576   2.762   5.894   1.369  0.4135  0.9401 -1.9846
 9666SOL    HW229577   2.633   5.948   1.312 -1.0111  0.2298  0.4309
 9667SOL     OW29578   4.102   4.146   7.401 -0.3414  0.2533  0.1178
 9667SOL    HW129579   4.056   4.228   7.383  0.2706  1.6171  3.8654
 9667SOL    HW229580   4.188   4.158   7.359 -0.2861  1.5067  0.5453
 9668SOL     OW29581   5.344   3.121   6.040  0.5200  0.4446  0.1224
 9668SOL    HW129582   5.249   3.125   6.029  0.4068 -0.8076  0.5014
 9668SOL    HW229583   5.379   3.145   5.954 -0.1589  0.1727 -0.2358
 9669SOL     OW29584   0.310   9.857   4.744  0.5813 -0.2442 -0.2337
 9669SOL    HW129585   0.390   9.881   4.698  0.6067  1.3120  0.5429
 9669SOL    HW229586   0.315   9.905   4.827  0.2011 -2.3786  1.0974
 9670SOL     OW29587   2.405   9.861   1.373 -0.3153  0.0735 -0.4277
 9670SOL    HW129588   2.477   9.861   1.436  0.2432 -0.6010 -1.0405
 9670SOL    HW229589   2.441   9.903   1.295 -0.5120 -0.4656 -0.8145
 9671SOL     OW29590   3.003   3.761   4.384  0.1065  0.1143 -0.6967
 9671SOL    HW129591   3.077   3.821   4.378 -0.5145  1.1969  1.4301
 9671SOL    HW229592   3.044   3.675   4.400  0.9697  0.8086  1.2092
 9672SOL     OW29593   5.375   6.737   1.285 -0.5261 -0.6761  0.2179
 9672SOL    HW129594   5.359   6.681   1.209 -1.1779 -1.5356  0.9584
 9672SOL    HW229595   5.364   6.679   1.360 -0.9394  0.3841  1.0118
 9673SOL     OW29596   0.805   0.400   6.897 -0.3374  0.1663 -0.2460
 9673SOL    HW129597   0.891   0.364   6.919 -0.4606 -0.2387 -0.4239
 9673SOL    HW229598   0.753   0.389   6.977  0.0868  1.4041  0.2278
 9674SOL     OW29599   7.485   2.987   7.739  0.0156  0.4745 -0.3100
 9674SOL    HW129600   7.401   2.988   7.785  0.0137  0.2325 -0.3073
 9674SOL    HW229601   7.461   2.983   7.646  0.0221  0.0731 -0.2989
 9675SOL     OW29602   8.384   9.541   4.776 -0.1964 -0.3750  0.3249
 9675SOL    HW129603   8.417   9.622   4.738 -0.1804  0.3724  1.8442
 9675SOL    HW229604   8.463   9.493   4.802 -0.1887 -1.1267 -0.9985
 9676SOL     OW29605   2.706   6.402   8.786 -0.5332  0.4678  0.0533
 9676SOL    HW129606   2.760   6.407   8.864 -0.0534 -0.2824 -0.2235
 9676SOL    HW229607   2.621   6.372   8.817 -0.1359 -0.5271  0.1944
 9677SOL     OW29608   0.959   6.822   7.565 -0.2223  0.1244 -0.0441
 9677SOL    HW129609   1.020   6.849   7.496  0.9207  0.0906  0.9255
 9677SOL    HW229610   0.900   6.897   7.575 -1.4652 -0.4930 -2.1651
 9678SOL     OW29611   1.495   2.611   9.219 -0.4045  0.4474  0.0210
 9678SOL    HW129612   1.476   2.550   9.148 -0.3022  0.2834  0.1308
 9678SOL    HW229613   1.409   2.638   9.252 -0.4746 -0.6310  0.8080
 9679SOL     OW29614   9.676   5.602   1.146 -0.1837 -0.1501 -0.4992
 9679SOL    HW129615   9.716   5.676   1.100  2.1572 -0.5736  0.6593
 9679SOL    HW229616   9.585   5.628   1.159 -0.1107  1.3339 -2.4713
 9680SOL     OW29617   8.609   3.346   7.038 -0.2819 -0.0874 -0.3382
 9680SOL    HW129618   8.538   3.410   7.039 -1.9490 -1.8791 -0.2345
 9680SOL    HW229619   8.592   3.291   6.962  0.3569 -1.2231  0.3054
 9681SOL     OW29620  -0.030   4.273   4.768 -0.1529  0.1434  0.2446
 9681SOL    HW129621   0.059   4.294   4.740 -0.0895 -0.0698  0.2790
 9681SOL    HW229622  -0.028   4.282   4.863 -0.7335  2.2397  0.1036
 9682SOL     OW29623   9.352   1.473   2.360 -0.8535  0.0299 -0.2666
 9682SOL    HW129624   9.422   1.441   2.418 -0.6854  1.0843  0.1376
 9682SOL    HW229625   9.305   1.394   2.333  0.5753 -0.7190 -0.6574
 9683SOL     OW29626   8.647   4.227   2.814  0.1136  0.2280 -0.0239
 9683SOL    HW129627   8.657   4.317   2.783  3.8394 -0.3804 -1.1521
 9683SOL    HW229628   8.661   4.232   2.909 -1.0431  0.9252  0.1303
 9684SOL     OW29629   6.333   0.462   1.443  0.2835 -0.0688 -0.0124
 9684SOL    HW129630   6.295   0.385   1.486  2.6181 -0.9877  0.5482
 9684SOL    HW229631   6.286   0.536   1.481 -2.7552 -1.1792 -1.3235
 9685SOL     OW29632   7.735   2.005   6.132 -0.4312 -0.4230  0.5005
 9685SOL    HW129633   7.652   1.961   6.148 -0.2349 -0.6536  0.9159
 9685SOL    HW229634   7.778   1.952   6.064  0.0818 -1.2740  1.4416
 9686SOL     OW29635   3.719   6.897   9.603  0.4484 -0.5038  0.1238
 9686SOL    HW129636   3.647   6.949   9.566 -0.1396 -1.4951 -0.1649
 9686SOL    HW229637   3.745   6.945   9.681 -1.2068 -0.6304  0.7978
 9687SOL     OW29638   6.340   8.238   1.310  0.7449  0.3611  0.0862
 9687SOL    HW129639   6.315   8.299   1.241  1.2790  0.3628 -0.1145
 9687SOL    HW229640   6.322   8.151   1.273 -0.6647  0.3985  0.6308
 9688SOL     OW29641   9.398   9.569   2.959  1.3040 -0.3845 -0.1149
 9688SOL    HW129642   9.485   9.604   2.979  0.3521  1.6497  0.6384
 9688SOL    HW229643   9.353   9.566   3.043 -0.2122  1.1026 -0.8133
 9689SOL     OW29644   3.192   6.994   6.635 -0.0552  0.6977  0.2659
 9689SOL    HW129645   3.239   6.932   6.579 -1.2278 -1.7596  1.8339
 9689SOL    HW229646   3.260   7.050   6.672  1.1372 -0.0415 -0.7249
 9690SOL     OW29647   0.395   8.854   6.249  0.5611 -0.5529 -0.1366
 9690SOL    HW129648   0.391   8.768   6.290  1.9933 -0.2386  0.7470
 9690SOL    HW229649   0.352   8.913   6.311  1.9524 -0.2237  0.5650
 9691SOL     OW29650   6.607   0.534   7.030  0.5598  0.0132  0.5120
 9691SOL    HW129651   6.587   0.560   6.941  1.0888  0.9093  0.6424
 9691SOL    HW229652   6.540   0.470   7.053  0.1503  0.1244 -0.3615
 9692SOL     OW29653   8.376   6.276   2.973 -0.1884  0.5205 -1.0332
 9692SOL    HW129654   8.467   6.301   2.959 -0.4752  1.9651 -0.5837
 9692SOL    HW229655   8.345   6.337   3.040 -1.2433 -0.5233 -0.5376
 9693SOL     OW29656   9.536   9.137   3.011  0.1104  0.3861  0.0191
 9693SOL    HW129657   9.560   9.113   3.101 -0.4144 -0.3705 -0.0299
 9693SOL    HW229658   9.609   9.192   2.981  1.1659 -0.7922  0.3092
 9694SOL     OW29659   5.315   6.457   0.268 -0.0132  0.1390 -0.0927
 9694SOL    HW129660   5.298   6.404   0.346  1.5641  0.2730  0.3740
 9694SOL    HW229661   5.323   6.393   0.197 -1.0972 -0.0062 -0.1099
 9695SOL     OW29662   5.433   6.356   0.780  0.3086 -0.5934 -0.2241
 9695SOL    HW129663   5.411   6.337   0.871 -0.0735 -1.0228 -0.4064
 9695SOL    HW229664   5.365   6.417   0.751  1.6520  1.3107  0.4275
 9696SOL     OW29665   2.451   2.463   9.185  0.5809  0.0998  0.0978
 9696SOL    HW129666   2.378   2.518   9.156 -0.3719 -1.6014 -0.8467
 9696SOL    HW229667   2.422   2.425   9.267  1.2724  1.0169  0.7900
 9697SOL     OW29668   2.701   4.922   1.448 -0.8181 -0.3803  0.2135
 9697SOL    HW129669   2.679   4.830   1.433 -0.0147 -0.3733 -1.1752
 9697SOL    HW229670   2.740   4.923   1.536 -0.8735 -1.3656  0.2629
 9698SOL     OW29671   0.807   4.795   7.559  0.1703 -0.1267  0.0465
 9698SOL    HW129672   0.883   4.813   7.615 -1.4698  1.9223  1.7551
 9698SOL    HW229673   0.832   4.829   7.473  1.8365 -1.1653  0.0678
 9699SOL     OW29674  -0.020   7.329   1.609 -0.0293  0.8993 -0.4477
 9699SOL    HW129675   0.037   7.402   1.633 -0.1382  1.0360 -0.5978
 9699SOL    HW229676   0.023   7.290   1.533 -1.0691  2.1485 -1.7445
 9700SOL     OW29677   8.509   1.531   4.828 -0.5656 -0.0441  0.5213
 9700SOL    HW129678   8.534   1.540   4.920 -0.6963 -2.3200  0.8418
 9700SOL    HW229679   8.419   1.498   4.831 -1.0203  1.0703 -0.4597
 9701SOL     OW29680   2.887   6.742   8.122  0.4096  0.4705  0.2458
 9701SOL    HW129681   2.832   6.664   8.120  1.7340 -0.4712 -0.4685
 9701SOL    HW229682   2.940   6.732   8.202  1.0683  0.2708 -0.2050
 9702SOL     OW29683   4.631   8.449   9.538  0.5186  0.4130 -0.5546
 9702SOL    HW129684   4.618   8.428   9.445  2.7281 -0.2256 -0.7632
 9702SOL    HW229685   4.707   8.397   9.564  0.0272  0.6875  1.5967
 9703SOL     OW29686   7.454   1.869   6.177 -0.0581  0.7138 -0.2349
 9703SOL    HW129687   7.381   1.883   6.237  2.1171  1.0911  2.5738
 9703SOL    HW229688   7.415   1.830   6.100 -3.3134  1.7271  0.7298
 9704SOL     OW29689   9.162   7.822   2.708 -0.1398  0.1949 -0.1224
 9704SOL    HW129690   9.218   7.898   2.690 -1.1431  0.5719 -1.9479
 9704SOL    HW229691   9.219   7.761   2.755  1.4593  1.0105 -0.9032
 9705SOL     OW29692   0.777   4.005   1.529 -0.5328  0.3344  0.2063
 9705SOL    HW129693   0.713   3.937   1.550 -2.4719  1.6103 -1.2428
 9705SOL    HW229694   0.806   4.037   1.614  0.7374 -2.4770  0.9447
 9706SOL     OW29695   3.252   4.419   3.561  0.9691  0.6549 -0.3396
 9706SOL    HW129696   3.282   4.381   3.479  2.3058  1.2690 -0.1681
 9706SOL    HW229697   3.264   4.349   3.626 -1.6094 -0.4018 -0.8634
 9707SOL     OW29698   8.340   4.091   6.417  0.0693 -0.5192  0.7753
 9707SOL    HW129699   8.374   4.132   6.337  2.3965 -1.4446  1.2061
 9707SOL    HW229700   8.254   4.058   6.392  0.2929  0.1440 -1.0368
 9708SOL     OW29701   3.459   6.348   7.701 -0.0947 -0.3233 -0.0961
 9708SOL    HW129702   3.499   6.298   7.630  2.4065 -0.0708  1.0167
 9708SOL    HW229703   3.498   6.311   7.780 -0.1908  1.6335  0.9144
 9709SOL     OW29704   9.796   7.900   2.902  0.1276  0.2501  0.0382
 9709SOL    HW129705   9.765   7.983   2.866 -0.1553  0.0353 -0.2210
 9709SOL    HW229706   9.890   7.901   2.888 -0.0316 -0.0332 -1.1528
 9710SOL     OW29707   5.295   1.010   8.876 -0.0543  0.5834 -0.0135
 9710SOL    HW129708   5.390   1.021   8.871  0.0592 -0.3323 -0.0167
 9710SOL    HW229709   5.283   0.927   8.923 -0.7942 -0.4630 -1.9573
 9711SOL     OW29710   0.631   4.831   3.668  0.1016 -0.0486  0.0878
 9711SOL    HW129711   0.582   4.912   3.658 -1.4186 -0.8061  0.9763
 9711SOL    HW229712   0.720   4.859   3.688 -0.3746  1.4055  0.3147
 9712SOL     OW29713   0.412   4.862   4.692 -0.1913  0.1959 -0.2067
 9712SOL    HW129714   0.348   4.791   4.697 -0.0022 -0.0250 -0.9341
 9712SOL    HW229715   0.376   4.923   4.628  0.8808 -0.5118 -1.5326
 9713SOL     OW29716   4.809   7.814   1.679 -0.1855 -0.3936 -0.2713
 9713SOL    HW129717   4.770   7.784   1.761  2.0859  0.1316  1.0938
 9713SOL    HW229718   4.830   7.733   1.632 -1.2264 -0.7055 -0.2236
 9714SOL     OW29719   0.795   9.105   0.116 -0.1853 -0.0600  0.5841
 9714SOL    HW129720   0.767   9.041   0.051 -1.1151  1.6148 -0.7504
 9714SOL    HW229721   0.869   9.150   0.074  0.1721  0.0460  1.3200
 9715SOL     OW29722   8.171   8.353   8.587 -0.4078  0.2350  0.0524
 9715SOL    HW129723   8.220   8.344   8.505  1.4578  0.7113  1.0637
 9715SOL    HW229724   8.148   8.446   8.591 -1.2533  0.0520 -0.3157
 9716SOL     OW29725   4.252   3.315   8.960 -0.0150 -0.0079 -0.1337
 9716SOL    HW129726   4.192   3.384   8.987  0.9475  1.5857 -1.8842
 9716SOL    HW229727   4.225   3.293   8.871  0.6058 -0.8795 -0.1186
 9717SOL     OW29728   3.404   7.772   9.864  0.7188 -0.3006 -0.0702
 9717SOL    HW129729   3.411   7.696   9.922 -0.1120  1.1481  2.0532
 9717SOL    HW229730   3.483   7.823   9.881  0.1745  0.4424  0.2928
 9718SOL     OW29731   4.484   2.092   3.810  0.5261 -0.1297  0.0059
 9718SOL    HW129732   4.404   2.141   3.829  0.8841  0.5748 -0.2739
 9718SOL    HW229733   4.553   2.158   3.811  1.2497 -0.8733  1.1849
 9719SOL     OW29734   6.449   1.980   8.994 -0.4886 -0.4966 -0.7895
 9719SOL    HW129735   6.392   2.031   9.051 -1.3083  0.6727 -2.5675
 9719SOL    HW229736   6.526   1.960   9.048 -0.2244  2.4470  0.0763
 9720SOL     OW29737   9.572   3.110   8.073  0.1427 -0.4390 -0.3680
 9720SOL    HW129738   9.507   3.170   8.035  0.4247  0.8202  1.0454
 9720SOL    HW229739   9.545   3.024   8.042  0.1821  0.4479 -3.1123
 9721SOL     OW29740   2.945   7.207   8.770 -0.2986 -0.4813 -0.7179
 9721SOL    HW129741   3.011   7.138   8.776  1.2417  0.8994 -1.1145
 9721SOL    HW229742   2.918   7.207   8.678 -0.1485 -0.4242 -0.7624
 9722SOL     OW29743   3.216   9.932   7.114 -0.3161 -0.3739 -0.5091
 9722SOL    HW129744   3.158  10.006   7.098  0.1117 -0.1305 -0.9803
 9722SOL    HW229745   3.297   9.971   7.147 -0.2542 -0.6709 -0.3029
 9723SOL     OW29746   3.556   0.289   0.969  0.1821 -0.7687 -0.8332
 9723SOL    HW129747   3.642   0.251   0.988 -0.2316 -2.0183 -1.3461
 9723SOL    HW229748   3.569   0.336   0.886  0.7732  0.5328 -0.0390
 9724SOL     OW29749   4.269   1.911   4.371  0.5202  0.3013 -0.5257
 9724SOL    HW129750   4.363   1.896   4.383  0.6390  1.3730 -0.0185
 9724SOL    HW229751   4.228   1.841   4.423  1.0431  0.4530  0.1155
 9725SOL     OW29752   2.725   7.231   7.552  0.3793 -0.0957  0.2535
 9725SOL    HW129753   2.800   7.268   7.598  0.2446 -0.4324  0.7454
 9725SOL    HW229754   2.658   7.221   7.619  0.4820 -1.4464  0.1761
 9726SOL     OW29755   7.481   2.666   1.618 -0.6897 -0.0596  0.4673
 9726SOL    HW129756   7.551   2.626   1.566  0.1506  0.1923  1.3767
 9726SOL    HW229757   7.486   2.621   1.703 -0.2537  1.3791  1.2465
 9727SOL     OW29758   7.688   8.452   4.529  0.4691 -0.2043 -0.4905
 9727SOL    HW129759   7.691   8.380   4.466  0.7825  1.2219 -2.1867
 9727SOL    HW229760   7.611   8.503   4.504  1.5955  1.3864 -0.9473
 9728SOL     OW29761   5.300   8.688   6.104 -0.6366  0.5320 -0.5050
 9728SOL    HW129762   5.253   8.605   6.103  0.5217 -0.1538 -1.2803
 9728SOL    HW229763   5.373   8.673   6.164 -0.2047  0.8461 -0.9401
 9729SOL     OW29764  10.002   8.529   6.168  0.3440  0.5253  0.4341
 9729SOL    HW129765  10.017   8.521   6.263 -0.1032 -1.3023  0.3959
 9729SOL    HW229766   9.908   8.509   6.157  0.8348 -1.5611 -0.5575
 9730SOL     OW29767   3.499   8.238   1.957  0.2848 -0.8056 -0.1822
 9730SOL    HW129768   3.515   8.259   1.865  0.6439 -2.5999 -0.5848
 9730SOL    HW229769   3.527   8.315   2.006  0.7829 -0.1077 -1.5325
 9731SOL     OW29770   2.890   1.552   5.837  0.4961 -0.0589  0.6809
 9731SOL    HW129771   2.903   1.637   5.879  3.4474 -0.9288  1.7717
 9731SOL    HW229772   2.972   1.536   5.790 -0.9673 -1.2168 -1.6495
 9732SOL     OW29773   7.593   9.485   2.285 -0.0568  0.8420 -0.5842
 9732SOL    HW129774   7.534   9.472   2.211 -1.0568 -0.2675  0.3558
 9732SOL    HW229775   7.603   9.398   2.323  1.3392  1.2013 -0.0713
 9733SOL     OW29776   0.676   0.397   0.102  0.5602  0.3128  0.1086
 9733SOL    HW129777   0.602   0.386   0.042  0.8053  1.7208 -0.5016
 9733SOL    HW229778   0.638   0.432   0.182  0.2475 -1.4593  0.7779
 9734SOL     OW29779   6.282   3.802   3.206 -0.4287 -0.3516  0.6939
 9734SOL    HW129780   6.354   3.825   3.147 -1.5999  0.9128 -0.3218
 9734SOL    HW229781   6.298   3.710   3.228  1.3755 -0.1611  0.3653
 9735SOL     OW29782   5.120   3.548   8.837 -0.2626 -0.1317  0.0648
 9735SOL    HW129783   5.171   3.487   8.889 -0.9005 -1.3618 -0.7083
 9735SOL    HW229784   5.100   3.501   8.756 -0.1344  1.3788 -0.8875
 9736SOL     OW29785   7.609   7.987   7.642 -0.3530  0.1704 -0.0402
 9736SOL    HW129786   7.582   8.020   7.727  0.4046 -0.6899  0.5584
 9736SOL    HW229787   7.647   7.901   7.660  0.6654  0.3590 -1.1205
 9737SOL     OW29788   4.139   3.936   5.028  0.1524 -0.1307 -0.2017
 9737SOL    HW129789   4.163   3.954   4.937 -0.1560  0.8818 -0.0901
 9737SOL    HW229790   4.158   4.017   5.075  0.0118 -0.5391  0.5851
 9738SOL     OW29791   3.252   9.452   5.324 -0.2429  0.0714  0.2655
 9738SOL    HW129792   3.313   9.416   5.388 -0.4641 -0.3305  0.2554
 9738SOL    HW229793   3.168   9.409   5.344 -0.5243  0.6297  0.2888
 9739SOL     OW29794   5.551   8.148   7.424 -0.1357  0.2127  0.0188
 9739SOL    HW129795   5.486   8.167   7.356 -0.9348 -1.4392  0.2657
 9739SOL    HW229796   5.618   8.096   7.380 -0.1554 -0.0283  0.2692
 9740SOL     OW29797   8.991   2.098   4.383  0.4272  0.1788  0.1666
 9740SOL    HW129798   9.078   2.133   4.398  1.5624 -2.5991  0.6428
 9740SOL    HW229799   8.951   2.095   4.470  0.4314  0.0360  0.1630
 9741SOL     OW29800   7.311   9.934   7.925  0.3248  0.2813  0.0933
 9741SOL    HW129801   7.248   9.989   7.971 -0.1351  1.6207 -2.0320
 9741SOL    HW229802   7.306   9.849   7.970 -0.8939  1.1804  1.7482
 9742SOL     OW29803   7.938   0.308   9.178  0.3673 -0.1695  0.3385
 9742SOL    HW129804   7.979   0.353   9.252 -0.9628 -0.6568  1.4226
 9742SOL    HW229805   7.894   0.233   9.218 -0.6046 -0.2947 -0.9205
 9743SOL     OW29806   5.134   3.223   4.296  0.2327 -0.6248 -0.2950
 9743SOL    HW129807   5.140   3.231   4.391  2.5175 -0.1120 -0.4234
 9743SOL    HW229808   5.157   3.310   4.263 -1.3653 -0.5573 -1.3351
 9744SOL     OW29809   4.995   4.596   2.905  0.3517 -0.2861 -0.3187
 9744SOL    HW129810   5.071   4.646   2.876 -0.2065  0.9872  0.3244
 9744SOL    HW229811   4.999   4.599   3.000 -0.6061 -0.0232 -0.2740
 9745SOL     OW29812   1.058   1.890   0.033  0.2192 -0.5243  0.5184
 9745SOL    HW129813   1.096   1.975   0.056 -0.9076 -0.2178  1.3404
 9745SOL    HW229814   0.992   1.874   0.101 -1.2120 -0.9724 -0.9085
 9746SOL     OW29815   1.311   9.763  -0.008 -0.4085  0.3181  0.5883
 9746SOL    HW129816   1.331   9.842   0.041  0.0581  0.8244 -0.3822
 9746SOL    HW229817   1.311   9.693   0.057  1.3441  0.7869  1.1434
 9747SOL     OW29818   6.262   2.731   3.906 -0.4393  0.3046 -0.2299
 9747SOL    HW129819   6.346   2.710   3.864 -1.0227 -0.8275 -0.9043
 9747SOL    HW229820   6.265   2.825   3.920 -0.0948  0.7388 -2.6388
 9748SOL     OW29821   4.033   3.737   8.526 -0.0284  0.6431  0.3713
 9748SOL    HW129822   3.957   3.763   8.474 -0.4005  0.9016  1.0217
 9748SOL    HW229823   4.027   3.790   8.606  0.4451  0.1636  0.7411
 9749SOL     OW29824   4.931   9.800   6.631  0.0917 -0.5896 -0.2980
 9749SOL    HW129825   4.876   9.848   6.694  1.7269  0.9505  0.0647
 9749SOL    HW229826   4.869   9.762   6.569 -1.4266  0.3185  0.5861
 9750SOL     OW29827   2.850   4.391   7.618  0.3987  0.2985  0.1474
 9750SOL    HW129828   2.852   4.468   7.561  0.8043 -0.4647 -0.9029
 9750SOL    HW229829   2.864   4.425   7.706  0.6801  1.4103 -0.3184
 9751SOL     OW29830   1.969   6.059   3.944 -0.0206  0.8216 -0.2852
 9751SOL    HW129831   1.952   6.151   3.924 -0.6338  1.1425  1.5474
 9751SOL    HW229832   1.884   6.016   3.938  0.4089  0.1280 -2.1051
 9752SOL     OW29833   5.783   2.475   7.727 -0.1360 -0.2096 -0.0698
 9752SOL    HW129834   5.720   2.546   7.741  1.1395  0.9627 -0.0773
 9752SOL    HW229835   5.774   2.453   7.635 -1.7887 -1.3361  0.3047
 9753SOL     OW29836   0.550   3.318   8.799  0.4945 -0.3513  0.3271
 9753SOL    HW129837   0.521   3.305   8.709  0.1417  0.9694  0.2215
 9753SOL    HW229838   0.620   3.383   8.792 -0.7147  1.1018  1.1349
 9754SOL     OW29839   9.575   9.446   1.670  0.9891  0.2977  0.4844
 9754SOL    HW129840   9.484   9.416   1.666  0.2334  2.4928 -1.7205
 9754SOL    HW229841   9.621   9.379   1.720 -1.8480 -0.8492  1.7677
 9755SOL     OW29842   7.602   6.749   8.740  0.4368 -0.3120  0.1063
 9755SOL    HW129843   7.634   6.800   8.814  1.1431  1.4670 -1.3412
 9755SOL    HW229844   7.655   6.669   8.740  1.2579  0.2187  0.7962
 9756SOL     OW29845   8.773   9.697   8.687  0.3592  0.3259 -0.1740
 9756SOL    HW129846   8.773   9.776   8.634 -1.7890  1.7106  1.7273
 9756SOL    HW229847   8.718   9.636   8.639  3.9959 -1.1822 -2.9502
 9757SOL     OW29848   3.186   2.746   8.948 -0.1866  0.0605  0.0833
 9757SOL    HW129849   3.248   2.818   8.942  0.5525 -0.5520  0.3340
 9757SOL    HW229850   3.145   2.756   9.034  0.7536 -0.4838  0.6041
 9758SOL     OW29851   9.507   0.554   2.391  0.1914  1.0644  1.1670
 9758SOL    HW129852   9.429   0.514   2.354  1.4782 -0.7390  0.2520
 9758SOL    HW229853   9.486   0.568   2.483 -1.9463  2.6784  0.5187
 9759SOL     OW29854   5.556   0.233   7.220  0.4348  0.1089 -0.8620
 9759SOL    HW129855   5.620   0.177   7.262  1.1202  1.1222 -0.5100
 9759SOL    HW229856   5.607   0.293   7.166 -0.2508  0.5551 -1.0418
 9760SOL     OW29857   6.647   3.408   8.972 -0.0535 -0.3562  0.1157
 9760SOL    HW129858   6.710   3.363   9.029  0.9546 -0.5612 -1.1007
 9760SOL    HW229859   6.640   3.351   8.895  0.7099  1.1898 -1.1468
 9761SOL     OW29860   4.763   6.322   2.069 -0.0856  0.3914  0.0653
 9761SOL    HW129861   4.797   6.243   2.110  0.2251  0.9720  0.9550
 9761SOL    HW229862   4.836   6.357   2.018 -0.2617  0.0422 -0.4309
 9762SOL     OW29863   5.523   9.285   8.115  0.6819  0.1648  0.6018
 9762SOL    HW129864   5.547   9.192   8.110  0.5843  0.1631  0.0000
 9762SOL    HW229865   5.431   9.285   8.139  0.2700  0.0448 -0.8684
 9763SOL     OW29866   8.272   1.875   2.331 -0.0135  0.0101  0.4266
 9763SOL    HW129867   8.205   1.924   2.379 -1.5109 -1.1753 -0.3249
 9763SOL    HW229868   8.222   1.811   2.280  1.3664  1.5335 -3.1682
 9764SOL     OW29869   6.254   3.983   2.225  0.5629  0.1646 -0.1296
 9764SOL    HW129870   6.321   4.042   2.260 -2.4266  2.7583  1.7632
 9764SOL    HW229871   6.246   4.009   2.133 -0.9030  3.1880  0.7252
 9765SOL     OW29872   2.133   3.268   4.917 -0.1364  0.0799 -0.4026
 9765SOL    HW129873   2.074   3.325   4.867 -0.4429  0.5853  0.5050
 9765SOL    HW229874   2.214   3.318   4.925 -0.0037 -0.1018 -0.5943
 9766SOL     OW29875   7.280   2.556   4.617 -0.1831  0.7959 -0.0200
 9766SOL    HW129876   7.242   2.578   4.702 -2.2958 -1.3245 -0.3132
 9766SOL    HW229877   7.341   2.485   4.636  0.0104  0.9213 -0.1709
 9767SOL     OW29878   1.502   1.580   6.444 -0.0657  0.4738  0.1102
 9767SOL    HW129879   1.583   1.630   6.441  0.0617  0.2757 -2.8361
 9767SOL    HW229880   1.529   1.489   6.427 -0.8035  0.2711 -0.0231
 9768SOL     OW29881   2.815   2.875   4.784 -0.6504 -0.1782  0.1962
 9768SOL    HW129882   2.790   2.964   4.761 -1.0485 -0.4151 -0.3178
 9768SOL    HW229883   2.880   2.885   4.854 -1.1664  0.4917  0.5913
 9769SOL     OW29884   5.096   3.532   7.925  0.1459 -0.1767 -0.0790
 9769SOL    HW129885   5.125   3.466   7.988 -1.1169 -0.9369 -0.2539
 9769SOL    HW229886   5.159   3.525   7.853  1.6543  0.7581  1.0658
 9770SOL     OW29887   9.647   1.751   3.833  0.6177  0.9666  0.4041
 9770SOL    HW129888   9.587   1.714   3.898  0.4690  1.1115  0.3489
 9770SOL    HW229889   9.606   1.833   3.807 -0.0957  0.1889 -1.0048
 9771SOL     OW29890   0.403   4.714   0.519 -0.0399  0.7775 -0.4586
 9771SOL    HW129891   0.310   4.735   0.506  0.2439  2.2388 -0.2813
 9771SOL    HW229892   0.444   4.799   0.535  1.2257  0.0693  0.1232
 9772SOL     OW29893   1.498   7.049   8.736  0.0589 -0.2073 -0.0194
 9772SOL    HW129894   1.504   7.045   8.640 -0.0805 -1.9174  0.0105
 9772SOL    HW229895   1.418   7.000   8.757  0.5012 -0.5267  1.0011
 9773SOL     OW29896   3.519   7.066   4.331 -0.1711  0.0721  0.6821
 9773SOL    HW129897   3.587   7.075   4.264 -1.5140 -1.2527 -0.9726
 9773SOL    HW229898   3.549   7.120   4.404  2.0066  0.5331 -0.4720
 9774SOL     OW29899   2.126   2.733   3.194 -0.0382 -1.1183 -0.4732
 9774SOL    HW129900   2.071   2.720   3.117  0.5252 -0.8382 -0.9338
 9774SOL    HW229901   2.069   2.713   3.268 -0.8568 -0.5157 -0.9169
 9775SOL     OW29902   3.679   0.360   5.398 -0.2566  0.7936 -0.2648
 9775SOL    HW129903   3.741   0.434   5.392 -0.1266  0.7335  0.3139
 9775SOL    HW229904   3.730   0.290   5.439 -0.7144  0.7413  0.2096
 9776SOL     OW29905   7.312   3.119   1.182  0.1839  0.4292 -0.0522
 9776SOL    HW129906   7.393   3.158   1.217  0.3150 -0.5922  0.8643
 9776SOL    HW229907   7.251   3.121   1.256 -0.0430 -0.3853 -0.2047
 9777SOL     OW29908   4.737   2.414   2.884  0.2955  0.0204  0.0629
 9777SOL    HW129909   4.729   2.325   2.848 -1.0270 -0.2687  0.9809
 9777SOL    HW229910   4.663   2.461   2.844 -0.9101 -0.1798  1.9421
 9778SOL     OW29911   5.449   2.521   3.958  0.0555  0.4223 -0.0798
 9778SOL    HW129912   5.474   2.506   4.049 -1.8458  1.4105  0.6722
 9778SOL    HW229913   5.492   2.603   3.934  1.0719 -0.1623 -0.3103
 9779SOL     OW29914   8.015   1.908   8.220  0.2381  0.6395 -0.1629
 9779SOL    HW129915   8.015   1.813   8.231 -0.9566  0.7970  1.5180
 9779SOL    HW229916   8.108   1.931   8.221  0.5144 -0.4091  0.4783
 9780SOL     OW29917   7.185   9.285   3.746  0.3167  0.4228 -0.2950
 9780SOL    HW129918   7.189   9.358   3.808 -1.5994  0.8081 -0.5643
 9780SOL    HW229919   7.272   9.283   3.706  1.2898  0.7894  1.6640
 9781SOL     OW29920   3.431   9.336   5.492 -0.0383  0.0751 -0.2715
 9781SOL    HW129921   3.454   9.264   5.433 -2.6467 -2.3348  1.3948
 9781SOL    HW229922   3.485   9.322   5.569  1.4346  1.6374 -0.9655
 9782SOL     OW29923   6.653   6.192   4.042 -0.5166  0.5094 -0.0838
 9782SOL    HW129924   6.670   6.252   4.115 -0.1496 -1.0936  1.2244
 9782SOL    HW229925   6.727   6.131   4.045 -0.1782  0.7516 -2.2136
 9783SOL     OW29926   8.864   5.071   3.186 -0.1082 -0.2294  0.4222
 9783SOL    HW129927   8.836   5.103   3.271  0.2942  0.9739  0.1206
 9783SOL    HW229928   8.851   5.146   3.127 -0.3689 -1.0340 -0.5703
 9784SOL     OW29929   4.795   1.665   0.891 -0.1317  0.1519  0.1051
 9784SOL    HW129930   4.770   1.702   0.807  2.0045 -1.0408 -1.1423
 9784SOL    HW229931   4.718   1.616   0.920  0.1271 -2.2785 -2.8664
 9785SOL     OW29932   5.491   4.900   8.249  0.0305  0.0700 -0.0469
 9785SOL    HW129933   5.410   4.877   8.296 -1.6283  1.1309 -2.1935
 9785SOL    HW229934   5.521   4.817   8.212 -0.8468 -0.1441 -0.3194
 9786SOL     OW29935   2.665   9.736   4.540  0.5144  0.0585 -0.0687
 9786SOL    HW129936   2.592   9.789   4.569 -0.5593 -1.6795  0.5450
 9786SOL    HW229937   2.710   9.710   4.620  1.9834  1.2619 -0.4399
 9787SOL     OW29938   1.686   9.105   0.077 -0.2017 -0.4692 -0.2969
 9787SOL    HW129939   1.749   9.154   0.024  0.3213 -0.1382  0.6213
 9787SOL    HW229940   1.633   9.057   0.012  1.7463 -1.7134 -1.0605
 9788SOL     OW29941   4.336   3.914   3.272  0.6719 -0.2979  0.1057
 9788SOL    HW129942   4.336   3.843   3.336  0.0160  0.1435  0.5944
 9788SOL    HW229943   4.347   3.869   3.188  0.0523 -1.0067  0.3875
 9789SOL     OW29944   0.465   4.440   4.647  0.5024  0.5904 -0.6578
 9789SOL    HW129945   0.407   4.500   4.599  0.1279  0.6361 -0.1573
 9789SOL    HW229946   0.425   4.354   4.634 -0.2620  0.7524  0.5326
 9790SOL     OW29947   2.255   6.887   8.075 -0.0015  0.5476  0.2429
 9790SOL    HW129948   2.271   6.980   8.090 -1.2292  0.6313  1.1343
 9790SOL    HW229949   2.285   6.872   7.985 -0.8028  2.0602 -0.3131
 9791SOL     OW29950   6.713   2.153   8.945 -0.4854  0.1944 -0.3160
 9791SOL    HW129951   6.775   2.118   8.881 -1.7941  0.3922 -1.7299
 9791SOL    HW229952   6.640   2.186   8.893 -0.8922  1.8283  1.1845
 9792SOL     OW29953   5.767   4.826   6.646 -0.4627  0.1275  0.0625
 9792SOL    HW129954   5.761   4.921   6.631  0.6210  0.3625  0.9346
 9792SOL    HW229955   5.677   4.795   6.642 -1.0301  1.4831  1.4529
 9793SOL     OW29956   8.252   4.452   6.895 -0.1990 -0.4725 -0.0041
 9793SOL    HW129957   8.272   4.405   6.814 -2.0073 -0.5455 -0.4320
 9793SOL    HW229958   8.247   4.544   6.869  0.7132 -0.3059  0.3428
 9794SOL     OW29959   4.550   4.936   0.980 -0.3097  0.0836  0.8609
 9794SOL    HW129960   4.522   4.980   1.061 -0.9682 -0.6514  1.0350
 9794SOL    HW229961   4.606   4.865   1.010 -2.1110 -1.4205  0.8256
 9795SOL     OW29962   9.311   7.674   5.703 -0.0881  0.1270 -0.0736
 9795SOL    HW129963   9.353   7.733   5.765  1.0608 -0.5735 -0.1486
 9795SOL    HW229964   9.379   7.654   5.639 -0.9510  0.0474 -0.9983
 9796SOL     OW29965   3.455   2.838   3.072 -0.0011  0.0448 -0.1326
 9796SOL    HW129966   3.468   2.784   3.151  2.3971 -0.7218 -0.9450
 9796SOL    HW229967   3.506   2.917   3.089  0.0244  0.1455 -0.6796
 9797SOL     OW29968   4.826   1.399   5.015  0.3152  0.2859  0.7413
 9797SOL    HW129969   4.852   1.426   4.927  1.1382  0.1876  0.9426
 9797SOL    HW229970   4.895   1.433   5.072  0.7966 -1.2251  1.1276
 9798SOL     OW29971   1.961   7.740   6.397 -0.0814  0.1761  0.1504
 9798SOL    HW129972   1.940   7.725   6.490  0.0273 -0.1970  0.1202
 9798SOL    HW229973   1.895   7.801   6.367 -0.8914 -0.6759  0.1542
 9799SOL     OW29974   8.799   2.117   0.102  0.0612 -0.7116  0.0124
 9799SOL    HW129975   8.783   2.167   0.182 -0.2669 -0.0148 -0.4821
 9799SOL    HW229976   8.712   2.090   0.072  0.1941 -1.0934 -0.0321
 9800SOL     OW29977   9.168   6.258   4.079 -0.0098  0.3201  0.4316
 9800SOL    HW129978   9.200   6.168   4.074 -0.1046  0.3478 -1.1295
 9800SOL    HW229979   9.090   6.253   4.134 -1.3389 -0.9960 -1.4210
 9801SOL     OW29980   0.208   2.807   4.204 -0.3529 -0.1264 -0.5835
 9801SOL    HW129981   0.134   2.791   4.262 -0.3847  0.5050 -0.4482
 9801SOL    HW229982   0.169   2.841   4.124 -0.2151  0.2075 -0.5114
 9802SOL     OW29983   8.715   2.305   3.836  0.2577 -0.4246 -0.2709
 9802SOL    HW129984   8.803   2.294   3.872  0.1162  0.8486  0.5193
 9802SOL    HW229985   8.660   2.327   3.911 -0.7964 -1.4512 -0.7160
 9803SOL     OW29986   2.287   3.340   2.763 -0.0209 -0.3806  0.0314
 9803SOL    HW129987   2.288   3.341   2.667 -0.0655 -0.4013  0.0305
 9803SOL    HW229988   2.375   3.368   2.789 -0.3834  0.8151 -0.0010
 9804SOL     OW29989   4.544   1.895   0.126 -0.0923 -0.0699  0.0054
 9804SOL    HW129990   4.619   1.893   0.066 -0.7420 -2.0851 -0.8227
 9804SOL    HW229991   4.582   1.912   0.212  1.3442 -1.1043 -0.3920
 9805SOL     OW29992   0.511   0.150   7.616  0.0405 -0.0914  0.6076
 9805SOL    HW129993   0.518   0.210   7.690 -0.2633 -2.8183  3.0312
 9805SOL    HW229994   0.418   0.127   7.612 -0.1587  0.8791 -1.4334
 9806SOL     OW29995   3.596   9.723   9.709  0.5381 -0.5649 -0.1564
 9806SOL    HW129996   3.593   9.649   9.769 -0.4853  2.2982  3.7351
 9806SOL    HW229997   3.689   9.746   9.703  0.7232 -1.3356 -0.3165
 9807SOL     OW29998   7.591   2.703   6.513 -0.4598 -0.1163  0.3587
 9807SOL    HW129999   7.617   2.686   6.423 -0.8342  0.9432  0.0428
 9807SOL    HW230000   7.658   2.763   6.547  1.3740 -2.7504  1.7564
 9808SOL     OW30001   5.777   2.735   6.345 -0.6633 -0.5634  0.1714
 9808SOL    HW130002   5.768   2.646   6.378 -0.4890 -0.8190 -0.4440
 9808SOL    HW230003   5.728   2.734   6.262 -2.7435  0.5762  1.3053
 9809SOL     OW30004   1.140   7.879   1.178 -0.2167  0.0261 -0.0580
 9809SOL    HW130005   1.211   7.891   1.241 -1.3443 -0.1807  1.3039
 9809SOL    HW230006   1.181   7.894   1.093  1.0420  1.7819  0.7920
 9810SOL     OW30007   1.948   7.972   2.377  0.0398  0.1771 -0.5514
 9810SOL    HW130008   2.041   7.987   2.396  0.3471 -0.7525 -1.2430
 9810SOL    HW230009   1.939   7.876   2.375 -1.0423  0.2537 -0.0053
 9811SOL     OW30010   7.784   2.904   6.543  0.0409 -0.1398 -0.1032
 9811SOL    HW130011   7.865   2.908   6.491  0.7952 -0.2137  1.0407
 9811SOL    HW230012   7.792   2.978   6.604  0.5729 -1.7537  1.8682
 9812SOL     OW30013   3.665   2.554   1.404 -0.4397 -0.1168  0.4267
 9812SOL    HW130014   3.638   2.494   1.474  0.8972  0.2497  1.3001
 9812SOL    HW230015   3.678   2.498   1.328 -1.0625 -0.6567  0.7103
 9813SOL     OW30016   4.033   0.280   4.918 -0.1061 -0.5131 -0.1875
 9813SOL    HW130017   4.121   0.285   4.955  0.0775 -0.0403 -0.6634
 9813SOL    HW230018   4.016   0.368   4.885  0.2849 -1.1963 -2.4010
 9814SOL     OW30019   1.441   1.711   5.468  0.1490 -0.6647  0.1093
 9814SOL    HW130020   1.389   1.710   5.387 -0.3255 -1.4589  0.4168
 9814SOL    HW230021   1.497   1.634   5.460  0.2633 -0.6145  0.4447
 9815SOL     OW30022   7.899   3.373   6.590 -0.5583  0.1522  0.1313
 9815SOL    HW130023   7.919   3.388   6.682 -0.2640  2.1576 -0.2068
 9815SOL    HW230024   7.853   3.452   6.562 -2.3124 -1.2039 -1.0063
 9816SOL     OW30025   9.791   2.800   7.464  0.1144  0.7281  0.1430
 9816SOL    HW130026   9.724   2.857   7.502 -1.2715  1.8729 -3.5363
 9816SOL    HW230027   9.873   2.849   7.474 -0.4828  1.7716  0.0701
 9817SOL     OW30028   1.190   6.766   7.934 -0.0176 -0.0399  0.3485
 9817SOL    HW130029   1.182   6.728   7.846  0.8044 -1.8997  1.0252
 9817SOL    HW230030   1.120   6.831   7.938 -1.0270 -0.9634 -1.1679
 9818SOL     OW30031   1.196   2.834   5.733 -0.2396 -0.0042  0.5068
 9818SOL    HW130032   1.208   2.903   5.799 -1.3541  0.0559  0.6746
 9818SOL    HW230033   1.101   2.822   5.730 -0.0937 -1.0295 -0.0468
 9819SOL     OW30034   3.265   3.672   3.903  0.8496  0.7626 -0.5301
 9819SOL    HW130035   3.207   3.738   3.941  0.7830  0.0484  0.6752
 9819SOL    HW230036   3.334   3.659   3.968 -0.8762 -2.6594  0.9065
 9820SOL     OW30037   0.339   7.815   4.202  0.3205 -0.7021 -0.0259
 9820SOL    HW130038   0.312   7.817   4.294  1.6556 -0.0370  0.3603
 9820SOL    HW230039   0.397   7.739   4.196 -0.4710 -1.2894 -0.5472
 9821SOL     OW30040   3.961   9.059   6.941 -0.4373  0.0730  0.2191
 9821SOL    HW130041   3.884   9.047   6.885 -0.9763  1.0612  0.7204
 9821SOL    HW230042   4.029   9.091   6.882 -0.7783  0.3884 -0.0079
 9822SOL     OW30043   4.822   2.369   0.101 -0.2934  0.2910 -0.5966
 9822SOL    HW130044   4.849   2.322   0.022  0.2369 -1.6313  0.6558
 9822SOL    HW230045   4.831   2.461   0.079 -1.0436 -0.1593 -3.0771
 9823SOL     OW30046   8.855   0.091   3.921 -1.3356  0.6037  0.0238
 9823SOL    HW130047   8.929   0.138   3.883  0.3071 -2.0469 -0.2812
 9823SOL    HW230048   8.849   0.124   4.011 -1.5598  2.7540 -0.7237
 9824SOL     OW30049   7.796   1.684   4.239 -0.0970 -0.3431 -0.0108
 9824SOL    HW130050   7.785   1.591   4.260  0.4333 -0.2126  0.8796
 9824SOL    HW230051   7.736   1.698   4.165 -1.5994 -0.9517  1.0307
 9825SOL     OW30052   3.910   9.918   5.019 -0.0972  0.2373 -0.8737
 9825SOL    HW130053   3.845   9.869   5.070  0.3979  0.6902  0.2116
 9825SOL    HW230054   3.941   9.856   4.953  0.4868 -0.9126  0.4444
 9826SOL     OW30055   2.740   8.612   1.768  0.0445  0.3298 -0.1873
 9826SOL    HW130056   2.801   8.540   1.783 -0.5546 -0.1510 -0.0284
 9826SOL    HW230057   2.689   8.618   1.848 -0.8541  0.0010 -0.7175
 9827SOL     OW30058   4.643   9.891   2.622 -0.3196 -0.1151  0.0410
 9827SOL    HW130059   4.552   9.899   2.591 -0.9902  1.8064  2.2442
 9827SOL    HW230060   4.636   9.884   2.717  1.8660  0.4367  0.3039
 9828SOL     OW30061   4.767   2.833   6.514  0.1901  0.1155  0.3014
 9828SOL    HW130062   4.736   2.800   6.430  0.6205 -0.9350  0.5396
 9828SOL    HW230063   4.721   2.916   6.526 -1.3918 -0.6920 -0.0380
 9829SOL     OW30064   5.898   2.551   8.405  0.4625  0.4495 -0.4542
 9829SOL    HW130065   5.993   2.556   8.416  0.1802  2.1748  2.2748
 9829SOL    HW230066   5.885   2.541   8.311  3.3232 -0.4081 -0.8626
 9830SOL     OW30067   1.800   0.485   4.969 -0.4457 -0.5375 -0.1256
 9830SOL    HW130068   1.847   0.449   4.893  0.2881 -0.9504  0.5148
 9830SOL    HW230069   1.864   0.484   5.040 -0.8767  0.6065  0.3052
 9831SOL     OW30070   7.835   4.535   1.175  0.5987 -0.1434 -0.5595
 9831SOL    HW130071   7.792   4.618   1.156 -1.7802 -1.0062  0.6393
 9831SOL    HW230072   7.910   4.533   1.116 -1.0695  1.4174 -2.9210
 9832SOL     OW30073   8.985   4.848   3.282 -0.0427  0.0797 -0.6951
 9832SOL    HW130074   8.937   4.926   3.255  0.2864  0.3026 -0.6312
 9832SOL    HW230075   9.074   4.862   3.250  0.7465  1.0022  1.7315
 9833SOL     OW30076   9.452   4.609   9.404 -0.4036 -0.1087 -0.1721
 9833SOL    HW130077   9.478   4.697   9.431  0.0761 -0.4742  0.5837
 9833SOL    HW230078   9.468   4.608   9.309 -0.3712  0.5990 -0.1802
 9834SOL     OW30079   3.861   3.385   6.799  0.3697  0.6563 -0.3113
 9834SOL    HW130080   3.834   3.476   6.810 -0.4550  0.2297  1.6707
 9834SOL    HW230081   3.816   3.338   6.869  1.3994 -1.1578 -0.7961
 9835SOL     OW30082   0.332   0.591   3.306 -0.1053 -0.0037 -0.2379
 9835SOL    HW130083   0.319   0.685   3.321 -0.0504  0.1417 -1.0497
 9835SOL    HW230084   0.273   0.570   3.234 -0.5484 -0.7280  0.3198
 9836SOL     OW30085   8.339   6.360   8.443 -0.0938  0.1209 -0.0832
 9836SOL    HW130086   8.363   6.439   8.490 -0.7358  0.5215 -0.4136
 9836SOL    HW230087   8.280   6.313   8.502 -0.9529  0.6564 -0.5015
 9837SOL     OW30088   3.256   7.182   4.251  0.3758  0.5547 -0.5083
 9837SOL    HW130089   3.254   7.182   4.155  1.6532  1.1610 -0.5609
 9837SOL    HW230090   3.347   7.162   4.273 -0.4701 -2.5549  0.6559
 9838SOL     OW30091   9.739   8.582   1.023  0.0302  0.2430 -0.4080
 9838SOL    HW130092   9.829   8.551   1.030  0.1171  0.7731  1.5599
 9838SOL    HW230093   9.745   8.676   1.041 -1.0873 -0.0425  1.8091
 9839SOL     OW30094   0.849   1.207   4.342  0.6480  0.6277 -0.3837
 9839SOL    HW130095   0.905   1.188   4.417  0.1495  0.3350 -0.0788
 9839SOL    HW230096   0.907   1.249   4.279  0.9994  1.1703  0.2888
 9840SOL     OW30097   9.892   2.836   4.507 -0.0623  0.2017 -0.0019
 9840SOL    HW130098   9.864   2.760   4.456  0.5577  0.4933 -0.8090
 9840SOL    HW230099   9.858   2.911   4.459 -2.1055  0.4354  1.6749
 9841SOL     OW30100   8.005   7.927   1.982 -0.0310 -0.3129 -0.1971
 9841SOL    HW130101   7.920   7.905   2.021  0.6919 -2.0505  0.5247
 9841SOL    HW230102   8.069   7.897   2.046  1.1538  0.7145 -0.8542
 9842SOL     OW30103   2.807   8.644   9.487 -0.5904 -0.4153  0.0608
 9842SOL    HW130104   2.827   8.567   9.540  0.9990  0.0416  0.1697
 9842SOL    HW230105   2.863   8.712   9.521 -1.4002  0.5951 -0.5577
 9843SOL     OW30106   7.461   0.916   4.911 -0.0199  0.1412 -0.4933
 9843SOL    HW130107   7.464   1.011   4.924  0.7720  0.3480 -1.9428
 9843SOL    HW230108   7.526   0.899   4.843  0.1131 -1.5015  0.0094
 9844SOL     OW30109   0.409   1.401   8.948  0.3190 -0.0524  0.3518
 9844SOL    HW130110   0.484   1.341   8.943  0.9728  0.6593  1.3761
 9844SOL    HW230111   0.350   1.361   9.012  0.5283  0.1389  0.6679
 9845SOL     OW30112   8.225   4.911   8.470 -0.3640  0.0508  0.6785
 9845SOL    HW130113   8.255   4.834   8.421  1.4839  1.2927 -0.3019
 9845SOL    HW230114   8.137   4.928   8.438  0.0301 -0.4104 -0.7402
 9846SOL     OW30115   2.942   2.207   0.727  1.0109  0.0602  0.1253
 9846SOL    HW130116   2.942   2.243   0.638  1.4220  0.7500  0.4027
 9846SOL    HW230117   3.033   2.184   0.743  0.7325 -1.3081 -0.1159
 9847SOL     OW30118   6.067   5.681   5.361 -0.1229  0.4902 -0.3736
 9847SOL    HW130119   6.105   5.760   5.322 -0.1038  0.6900  0.0471
 9847SOL    HW230120   5.990   5.713   5.407 -1.4072 -0.0424 -2.0571
 9848SOL     OW30121   4.625   6.021   6.966  0.0432 -0.2697  0.3590
 9848SOL    HW130122   4.675   6.056   7.040 -0.6064 -0.7824  1.0646
 9848SOL    HW230123   4.641   5.926   6.969  1.3979 -0.1367 -1.2308
 9849SOL     OW30124   8.531   4.642   7.265  0.4494 -0.1244 -0.4609
 9849SOL    HW130125   8.621   4.670   7.247  0.7913  1.6871  3.1554
 9849SOL    HW230126   8.484   4.723   7.284 -2.0123 -1.0392 -2.1887
 9850SOL     OW30127   3.346   8.993   8.417 -0.0991 -0.2371  0.2985
 9850SOL    HW130128   3.319   8.975   8.327  2.0028 -0.4376 -0.3467
 9850SOL    HW230129   3.396   9.075   8.411 -1.9025  1.0315  1.7027
 9851SOL     OW30130   1.543   0.252   2.636  0.3496 -0.0458 -0.1183
 9851SOL    HW130131   1.600   0.195   2.686 -1.2957 -1.2693  0.4550
 9851SOL    HW230132   1.552   0.222   2.546  1.0741  0.2063 -0.1380
 9852SOL     OW30133   2.946   9.010   5.489  0.1805 -0.1179 -0.3495
 9852SOL    HW130134   3.038   9.035   5.479  0.6095 -1.4335  0.1547
 9852SOL    HW230135   2.933   8.937   5.427 -1.2331  1.6535 -2.3078
 9853SOL     OW30136   7.204   1.216   0.679 -0.1378  0.3106 -0.6951
 9853SOL    HW130137   7.192   1.307   0.705  1.2341  0.1138  0.7880
 9853SOL    HW230138   7.241   1.173   0.756 -0.2259 -1.3954 -1.5364
 9854SOL     OW30139   2.612   0.336   7.114  0.1350 -0.3307  0.3567
 9854SOL    HW130140   2.652   0.380   7.038  0.0123  0.4188  0.7123
 9854SOL    HW230141   2.663   0.256   7.125 -1.0015 -1.4103 -1.6493
 9855SOL     OW30142   3.718   5.150   8.247 -0.2050 -0.2889 -0.5279
 9855SOL    HW130143   3.715   5.174   8.339  0.6177 -0.4999 -0.4392
 9855SOL    HW230144   3.634   5.106   8.231 -0.2375 -0.4912  0.1843
 9856SOL     OW30145   1.823   4.890   2.558 -0.3751 -0.3686  0.1298
 9856SOL    HW130146   1.875   4.919   2.483  0.0755 -1.7334 -0.1018
 9856SOL    HW230147   1.737   4.931   2.544 -0.1415 -0.1805 -0.8469
 9857SOL     OW30148   7.291   2.313   0.670  0.0855 -0.0705  0.2535
 9857SOL    HW130149   7.233   2.295   0.744 -0.9539 -1.3382 -0.8145
 9857SOL    HW230150   7.306   2.407   0.673 -3.1430  0.5732 -0.1879
 9858SOL     OW30151   5.025   0.203   7.442 -0.2172 -0.6421 -0.0787
 9858SOL    HW130152   4.961   0.132   7.441 -1.3893  0.3950 -0.6858
 9858SOL    HW230153   5.096   0.171   7.385 -0.7626 -1.2827 -0.4160
 9859SOL     OW30154   1.334   0.214   1.769 -0.1332 -0.3812  0.4097
 9859SOL    HW130155   1.328   0.249   1.680 -0.8216 -0.3005  0.4821
 9859SOL    HW230156   1.373   0.286   1.820  2.2302 -1.1338 -0.1939
 9860SOL     OW30157   6.307   4.965   6.604 -0.2238  0.4083 -0.1045
 9860SOL    HW130158   6.293   5.058   6.586 -0.2985  0.2243 -1.0418
 9860SOL    HW230159   6.332   4.928   6.519 -0.8697 -0.5543  0.1176
 9861SOL     OW30160   3.602   9.764   4.873  0.3511 -0.4383  0.2662
 9861SOL    HW130161   3.566   9.763   4.961 -1.4394  1.3719 -0.3639
 9861SOL    HW230162   3.526   9.760   4.816  1.4438 -1.0519 -1.2107
 9862SOL     OW30163   2.632   8.741   1.999 -0.2296 -0.0109 -0.2632
 9862SOL    HW130164   2.600   8.826   1.968 -0.2424  0.4284  0.9032
 9862SOL    HW230165   2.559   8.681   1.982 -1.1381  0.6849  1.0011
 9863SOL     OW30166   2.104   0.711   6.212 -0.4181  0.1733 -0.1462
 9863SOL    HW130167   2.022   0.718   6.163 -1.2088  1.8535  1.2998
 9863SOL    HW230168   2.135   0.801   6.219  1.4967 -0.4227 -0.5256
 9864SOL     OW30169   4.191   1.971   8.212 -0.0970  0.1286 -0.4265
 9864SOL    HW130170   4.181   2.062   8.186 -0.7727  0.2026  0.0503
 9864SOL    HW230171   4.267   1.970   8.270  0.4940  0.2167 -1.1812
 9865SOL     OW30172   4.649   3.382   1.872 -0.0218  0.2309  0.0070
 9865SOL    HW130173   4.659   3.398   1.966 -1.2299  0.4486  0.1141
 9865SOL    HW230174   4.736   3.399   1.835  0.6329 -0.5156  1.1622
 9866SOL     OW30175   3.110   4.181   5.390  0.6830  0.0878 -0.4499
 9866SOL    HW130176   3.189   4.156   5.438  1.0971 -0.1865 -1.2748
 9866SOL    HW230177   3.100   4.275   5.407 -0.2742 -0.3350  1.7810
 9867SOL     OW30178   3.316   1.280   7.704  0.3226 -0.4245 -0.5687
 9867SOL    HW130179   3.330   1.278   7.609 -0.6786 -0.6328 -0.7159
 9867SOL    HW230180   3.397   1.319   7.739  0.2908  0.5842 -1.5786
 9868SOL     OW30181   9.790   5.799   4.316  0.1738 -0.3645  0.1883
 9868SOL    HW130182   9.801   5.843   4.232  1.3549  0.4802  0.7702
 9868SOL    HW230183   9.695   5.798   4.330  0.0050  0.0515 -0.8566
 9869SOL     OW30184   6.499   1.062   0.312 -0.5881 -0.2591  0.2427
 9869SOL    HW130185   6.518   1.069   0.406 -1.0978 -0.3802  0.3636
 9869SOL    HW230186   6.441   1.136   0.295  0.5783  0.5507 -0.2773
 9870SOL     OW30187   2.027   3.069   5.111  0.1071 -0.3167 -0.4053
 9870SOL    HW130188   2.116   3.041   5.133  0.7094  1.8982  0.3322
 9870SOL    HW230189   2.038   3.132   5.040 -0.7991  0.3918  0.0511
 9871SOL     OW30190   3.850   2.249   8.313 -0.3441 -0.2637  0.0357
 9871SOL    HW130191   3.818   2.219   8.228  0.7543 -0.3848 -0.3533
 9871SOL    HW230192   3.849   2.171   8.368  0.1473 -0.4748 -0.2469
 9872SOL     OW30193   6.062   5.116   8.720  0.3201 -0.2483 -0.0176
 9872SOL    HW130194   6.078   5.025   8.694  1.6151 -0.2044  0.5411
 9872SOL    HW230195   6.040   5.160   8.638 -1.9956 -1.3643 -0.0697
 9873SOL     OW30196   6.115   8.251   2.369  0.1652  0.0115 -0.1869
 9873SOL    HW130197   6.149   8.171   2.411 -0.5770 -0.2230 -0.0228
 9873SOL    HW230198   6.170   8.261   2.291 -0.2855 -1.1551 -0.6849
 9874SOL     OW30199   5.729   1.460   8.169 -0.6904 -0.2662  0.4005
 9874SOL    HW130200   5.806   1.435   8.117 -0.7931  2.3987 -1.2289
 9874SOL    HW230201   5.656   1.417   8.124 -0.5939  0.7359 -0.7776
 9875SOL     OW30202   6.465   2.180   8.461 -0.2900  0.5839  0.3653
 9875SOL    HW130203   6.472   2.085   8.450 -0.8515  0.6567 -0.7457
 9875SOL    HW230204   6.371   2.195   8.476 -0.3193  1.0379 -0.2552
 9876SOL     OW30205   5.113   6.593   6.576  0.0385 -0.2884  0.0444
 9876SOL    HW130206   5.027   6.585   6.533  0.0756 -0.4160 -0.0063
 9876SOL    HW230207   5.138   6.684   6.561  0.4278 -0.5426 -0.9377
 9877SOL     OW30208   1.194   1.810   7.648 -0.1572  0.6627 -0.5098
 9877SOL    HW130209   1.222   1.765   7.568  1.2818  0.7845 -0.0968
 9877SOL    HW230210   1.234   1.760   7.719 -0.5546  1.1694  0.0788
 9878SOL     OW30211   6.635   0.921   3.011  0.6631  0.2030 -0.0268
 9878SOL    HW130212   6.616   0.954   2.923  0.4419  2.9186  0.9461
 9878SOL    HW230213   6.717   0.872   3.000  0.2494 -0.1795 -1.8455
 9879SOL     OW30214   0.117   7.664   3.025  0.3607  0.3399 -0.4218
 9879SOL    HW130215   0.208   7.640   3.037 -0.0012 -0.4810  0.8575
 9879SOL    HW230216   0.067   7.587   3.051 -0.7190  0.8608 -0.8350
 9880SOL     OW30217   3.790   2.368   1.272 -0.3300  0.2506  0.1455
 9880SOL    HW130218   3.835   2.377   1.355 -0.5784  0.7848  0.2276
 9880SOL    HW230219   3.859   2.376   1.206 -0.2096  0.3760  0.2866
 9881SOL     OW30220   6.372   1.140   8.728  0.4584 -0.0114 -0.3810
 9881SOL    HW130221   6.339   1.061   8.687 -3.7467  0.0459  2.2496
 9881SOL    HW230222   6.385   1.202   8.656 -1.1077 -1.5593 -2.0768
 9882SOL     OW30223   8.163   3.457   5.301 -0.4112  0.1280 -0.3783
 9882SOL    HW130224   8.189   3.459   5.393 -0.1335 -0.3625 -0.4452
 9882SOL    HW230225   8.177   3.546   5.270  2.2676 -0.3328 -0.7052
 9883SOL     OW30226   9.294   1.437   3.078 -0.3098 -0.3344  0.0381
 9883SOL    HW130227   9.324   1.517   3.033  2.0455 -0.9061  0.4273
 9883SOL    HW230228   9.258   1.468   3.161  1.2401  0.3217  0.5060
 9884SOL     OW30229   8.408   3.172   5.227 -0.0603 -0.5182 -0.2054
 9884SOL    HW130230   8.459   3.197   5.150  2.7102 -0.8305  1.3827
 9884SOL    HW230231   8.408   3.076   5.227  1.6476 -0.5618  1.1237
 9885SOL     OW30232   8.903   4.001   0.436 -0.3827  0.6886 -0.1978
 9885SOL    HW130233   8.831   4.061   0.455  0.0864  1.6637 -1.3724
 9885SOL    HW230234   8.881   3.961   0.352  0.7681  1.5887 -0.9758
 9886SOL     OW30235   5.061   5.754   6.944  0.0180  0.4881 -0.1242
 9886SOL    HW130236   5.068   5.807   6.865  1.7829  0.6996  0.1368
 9886SOL    HW230237   4.989   5.793   6.993 -0.2128  1.1932 -1.0040
 9887SOL     OW30238   0.444   4.923   2.672  0.5634  0.1512 -0.2182
 9887SOL    HW130239   0.538   4.902   2.674  0.4037 -0.6246  2.1871
 9887SOL    HW230240   0.441   5.018   2.664  1.4835  0.0798 -2.0891
 9888SOL     OW30241   3.310   3.911   4.158  0.2110  0.0887 -0.1149
 9888SOL    HW130242   3.262   3.941   4.236 -1.8315 -0.2396 -1.1551
 9888SOL    HW230243   3.258   3.944   4.085  2.0352  0.3205 -1.3596
 9889SOL     OW30244   5.947   3.890   4.688  0.0170  0.4950 -0.4536
 9889SOL    HW130245   5.853   3.904   4.684  0.1134  1.7889  0.8248
 9889SOL    HW230246   5.985   3.977   4.682  1.1654 -0.0250 -1.2224
 9890SOL     OW30247   2.377   8.802   4.600 -0.6067 -0.0049  1.0032
 9890SOL    HW130248   2.396   8.708   4.593  0.3829  0.1272  1.7300
 9890SOL    HW230249   2.463   8.843   4.611 -0.8796  1.1526 -0.7576
 9891SOL     OW30250   0.903   7.496   5.309 -0.1954 -0.2857  0.3798
 9891SOL    HW130251   0.874   7.574   5.261  0.1795 -0.4098 -0.0577
 9891SOL    HW230252   0.926   7.433   5.241 -0.0305 -0.6068  0.7273
 9892SOL     OW30253   9.824   0.054   0.539 -0.0192  0.2083  0.2275
 9892SOL    HW130254   9.848   0.133   0.587  0.9219  0.4878 -0.6629
 9892SOL    HW230255   9.728   0.054   0.539 -0.0586  2.1930 -1.0695
 9893SOL     OW30256   9.414   1.300   1.304  0.7973  0.6556  0.3408
 9893SOL    HW130257   9.406   1.205   1.313  0.9861  0.5190 -0.8344
 9893SOL    HW230258   9.328   1.328   1.275  1.2086  0.6215 -0.9646
 9894SOL     OW30259   8.591   2.003   3.134  0.1357  0.4531 -0.1384
 9894SOL    HW130260   8.577   1.926   3.190  1.9967 -0.0800 -0.3552
 9894SOL    HW230261   8.593   1.967   3.045  1.0992  0.7204 -0.2363
 9895SOL     OW30262   0.554   9.407   5.779  0.3229 -0.1555  0.0887
 9895SOL    HW130263   0.593   9.390   5.865  0.8757  0.0559 -0.1128
 9895SOL    HW230264   0.503   9.328   5.759  0.0220 -0.1152  0.7014
 9896SOL     OW30265   5.872   5.803   8.054 -0.2487 -0.4025 -0.2150
 9896SOL    HW130266   5.932   5.877   8.048 -1.1466  0.2824 -1.0056
 9896SOL    HW230267   5.857   5.776   7.963  2.0505 -3.2427  0.0957
 9897SOL     OW30268   1.582   3.962   9.855 -0.0933 -0.0623  0.1307
 9897SOL    HW130269   1.492   3.992   9.862 -0.9459 -1.6860 -2.4971
 9897SOL    HW230270   1.622   4.017   9.787 -0.0601 -1.2780 -0.8711
 9898SOL     OW30271   5.109   2.487   1.604 -0.6752 -0.6282 -0.0263
 9898SOL    HW130272   5.146   2.447   1.683 -2.3664 -1.5844  0.3240
 9898SOL    HW230273   5.074   2.571   1.634  0.9147  0.1990 -0.3239
 9899SOL     OW30274   5.060   8.401   4.487 -0.6237 -0.0086  0.0891
 9899SOL    HW130275   5.100   8.486   4.501  0.3256 -0.4414  0.0439
 9899SOL    HW230276   5.132   8.338   4.495 -1.1017 -0.7200 -0.9761
 9900SOL     OW30277   7.889   3.430   5.634  0.3224  0.1423 -0.6855
 9900SOL    HW130278   7.819   3.405   5.574 -1.4430  0.2380  1.2020
 9900SOL    HW230279   7.879   3.524   5.646 -0.1483 -0.0467  0.6285
 9901SOL     OW30280   7.737   4.670   8.570  0.1628 -0.3376 -0.1500
 9901SOL    HW130281   7.784   4.586   8.576  1.6437  0.4435 -0.4106
 9901SOL    HW230282   7.706   4.674   8.480 -0.7348 -1.0073  0.1116
 9902SOL     OW30283   2.837   2.464   3.627 -0.1090  0.3053  0.4415
 9902SOL    HW130284   2.878   2.504   3.550  1.6564 -3.0955 -0.5901
 9902SOL    HW230285   2.744   2.484   3.617  0.0430 -0.0274 -2.6671
 9903SOL     OW30286   9.151   4.112   8.152 -0.0180 -0.4327 -0.4738
 9903SOL    HW130287   9.226   4.100   8.095 -0.2450 -2.0955 -0.4871
 9903SOL    HW230288   9.185   4.096   8.240 -0.3386 -1.2180 -0.4830
 9904SOL     OW30289   4.741   8.979   2.733  0.3638 -0.1840 -0.7069
 9904SOL    HW130290   4.769   9.070   2.726  2.6166 -0.7120  0.6983
 9904SOL    HW230291   4.806   8.929   2.683 -0.6607 -1.0876 -1.1935
 9905SOL     OW30292   0.616   2.636   3.992  0.0363  0.2496  0.0650
 9905SOL    HW130293   0.520   2.644   3.998 -0.1819 -0.7171 -1.6040
 9905SOL    HW230294   0.637   2.673   3.906  0.8424 -1.9087 -0.7143
 9906SOL     OW30295   5.525   6.797   2.500  0.2637  0.4172  0.3195
 9906SOL    HW130296   5.492   6.777   2.412  1.3356 -1.0148  0.2131
 9906SOL    HW230297   5.570   6.881   2.490 -1.5970  1.4501  0.0543
 9907SOL     OW30298   5.743   5.430   5.294  0.4437 -0.4640 -0.4193
 9907SOL    HW130299   5.735   5.444   5.200 -0.4628 -1.3068 -0.4904
 9907SOL    HW230300   5.783   5.510   5.327 -2.0865  1.2022 -1.1064
 9908SOL     OW30301   5.746   7.752   3.700 -0.2349  0.1252 -0.4243
 9908SOL    HW130302   5.711   7.731   3.614 -0.5610  0.6496 -0.4273
 9908SOL    HW230303   5.773   7.844   3.693 -2.2398  0.8642  0.6378
 9909SOL     OW30304   1.087   4.219   7.307 -0.2598 -0.4190  0.4047
 9909SOL    HW130305   1.048   4.306   7.315 -0.1643 -0.3303 -0.0790
 9909SOL    HW230306   1.181   4.235   7.299  0.1094 -0.6958  3.1798
 9910SOL     OW30307   6.444   3.403   6.514 -0.2220 -0.6664  0.2832
 9910SOL    HW130308   6.457   3.312   6.488  2.3739 -0.0324 -0.9732
 9910SOL    HW230309   6.426   3.449   6.432 -1.0897  0.0451  0.8558
 9911SOL     OW30310   0.025   9.847   4.152 -0.5656 -0.1504  0.1398
 9911SOL    HW130311   0.059   9.937   4.150  0.7425 -0.5850  1.3604
 9911SOL    HW230312  -0.004   9.831   4.062 -0.1682  1.2434 -0.2703
 9912SOL     OW30313   9.378   0.978   2.370  0.0438 -1.1121  0.1729
 9912SOL    HW130314   9.369   0.887   2.339  0.6473 -1.1923  0.2299
 9912SOL    HW230315   9.471   0.998   2.358 -0.2704 -0.1593 -0.7855
 9913SOL     OW30316   0.086   3.556   6.895 -0.2354 -0.1436 -0.3081
 9913SOL    HW130317   0.160   3.614   6.913 -0.6085 -0.0105  0.9152
 9913SOL    HW230318   0.032   3.603   6.832  0.4707 -0.0412 -0.8510
 9914SOL     OW30319   4.107   1.680   5.132 -0.2688 -0.1052  0.0795
 9914SOL    HW130320   4.047   1.610   5.156  2.1842 -3.0847 -1.7116
 9914SOL    HW230321   4.185   1.665   5.186  0.4461  1.1089 -0.5541
 9915SOL     OW30322   9.950   6.252   3.856 -0.2268 -0.6417 -0.1328
 9915SOL    HW130323  10.014   6.286   3.792  1.4972  0.4588  2.0220
 9915SOL    HW230324   9.866   6.256   3.810  0.4908  2.6613 -1.4954
 9916SOL     OW30325   7.488   4.907   4.481  0.6835  0.0517 -0.1819
 9916SOL    HW130326   7.410   4.880   4.432 -0.1535 -0.2629  1.2630
 9916SOL    HW230327   7.533   4.824   4.501 -0.0836 -0.0208  1.3359
 9917SOL     OW30328   8.410   0.036   8.346 -0.3393 -0.2429 -0.3907
 9917SOL    HW130329   8.461   0.104   8.392  1.3146 -3.0613  2.3344
 9917SOL    HW230330   8.458   0.022   8.265  0.3792  0.5321 -0.1219
 9918SOL     OW30331   6.868   7.718   2.620  0.1904 -0.2621 -0.0527
 9918SOL    HW130332   6.887   7.721   2.713 -0.2162  1.2473  0.0078
 9918SOL    HW230333   6.879   7.626   2.596  3.7473 -0.1931  0.7474
 9919SOL     OW30334   5.765   8.419   1.471 -0.0721 -0.2082  0.6093
 9919SOL    HW130335   5.786   8.340   1.422  1.5182  0.7626 -0.3380
 9919SOL    HW230336   5.669   8.423   1.468 -0.1130 -1.2179 -0.7346
 9920SOL     OW30337   8.607   9.267   0.479  0.6108 -0.1258  0.2760
 9920SOL    HW130338   8.639   9.334   0.419 -0.8968  0.2537 -0.1480
 9920SOL    HW230339   8.581   9.316   0.558 -1.2020 -0.0627 -0.3152
 9921SOL     OW30340   5.163   0.045   0.330 -0.1433  0.2156 -0.5904
 9921SOL    HW130341   5.074   0.063   0.300 -1.6081 -3.2273  1.0407
 9921SOL    HW230342   5.177   0.106   0.402 -1.9641 -0.2962  0.2624
 9922SOL     OW30343   2.158   7.854   7.503  0.0919  0.2480 -0.5290
 9922SOL    HW130344   2.098   7.927   7.517 -0.3024 -0.1588 -0.0475
 9922SOL    HW230345   2.216   7.856   7.578  1.1821  1.0937 -1.3568
 9923SOL     OW30346   9.196   4.203   1.569 -0.0229 -0.0681 -0.5031
 9923SOL    HW130347   9.103   4.215   1.587  0.1423 -0.1353  0.4397
 9923SOL    HW230348   9.226   4.143   1.638  1.1437  1.5420  0.4432
 9924SOL     OW30349   6.364   7.253   0.136  0.5293 -0.0547  0.2589
 9924SOL    HW130350   6.423   7.306   0.082  0.1184  1.2683  1.0502
 9924SOL    HW230351   6.397   7.164   0.127  1.1801  0.3043 -1.2122
 9925SOL     OW30352   7.378   1.514   8.261 -0.1160  0.0266 -0.1247
 9925SOL    HW130353   7.293   1.519   8.217 -0.5265  1.4019  0.7478
 9925SOL    HW230354   7.357   1.520   8.354  0.9282  0.3590  0.1008
 9926SOL     OW30355   8.310   5.540   5.250 -0.8667 -0.0200  0.3280
 9926SOL    HW130356   8.341   5.629   5.234  0.5782 -0.5943 -0.2340
 9926SOL    HW230357   8.363   5.508   5.323  1.4060 -1.6736 -1.8489
 9927SOL     OW30358   9.395   5.496   5.697  0.0632  0.2798  0.2894
 9927SOL    HW130359   9.344   5.478   5.776 -1.0014  1.8031 -0.0041
 9927SOL    HW230360   9.386   5.590   5.684  1.5283  0.3069 -0.7818
 9928SOL     OW30361   7.848   3.998   5.693  0.4383 -0.0495 -0.2166
 9928SOL    HW130362   7.754   4.014   5.686  0.4642 -0.1151 -0.6904
 9928SOL    HW230363   7.886   4.083   5.718  0.3190  0.1032 -0.5614
 9929SOL     OW30364   6.303   3.320   4.351 -0.3609  0.3033  0.3326
 9929SOL    HW130365   6.394   3.292   4.358 -0.3773  0.1987  0.1451
 9929SOL    HW230366   6.257   3.269   4.418 -0.3934 -0.1376 -0.0177
 9930SOL     OW30367   6.063   7.112   9.197 -0.4247 -0.4993 -0.1415
 9930SOL    HW130368   5.971   7.087   9.210 -0.6713  0.3303 -0.2206
 9930SOL    HW230369   6.078   7.097   9.103 -0.1602 -1.6046  0.0563
 9931SOL     OW30370   6.051   1.225   7.628  0.3390  0.9100 -0.1758
 9931SOL    HW130371   6.135   1.179   7.627  0.4568  1.0899  0.7739
 9931SOL    HW230372   6.004   1.190   7.552  0.1165 -1.3912  0.9351
 9932SOL     OW30373   3.231   2.294   2.235 -0.0051 -0.0372  0.3076
 9932SOL    HW130374   3.138   2.311   2.218  0.6485  1.5813 -2.2720
 9932SOL    HW230375   3.236   2.276   2.329 -3.2244 -2.7329  0.1418
 9933SOL     OW30376   7.048   0.555   7.360 -0.2286  0.1245  0.4604
 9933SOL    HW130377   7.098   0.578   7.439  0.8662 -1.9123  0.4186
 9933SOL    HW230378   6.984   0.491   7.389  1.0467 -1.6659 -0.4404
 9934SOL     OW30379   2.758   8.599   4.265 -0.0113  0.0336 -0.0493
 9934SOL    HW130380   2.711   8.528   4.220  1.4571 -0.2828 -1.1386
 9934SOL    HW230381   2.752   8.673   4.205 -0.0957  0.3325  0.3266
 9935SOL     OW30382   9.518   6.803   9.093 -0.5609  0.2378 -0.4004
 9935SOL    HW130383   9.446   6.782   9.153 -0.6982 -0.5122 -0.8163
 9935SOL    HW230384   9.591   6.827   9.151 -0.5949 -0.7808  0.0889
 9936SOL     OW30385   0.428   6.541   2.798 -0.2528  0.4840 -0.0352
 9936SOL    HW130386   0.407   6.461   2.845  0.1941  0.2549 -0.2243
 9936SOL    HW230387   0.385   6.611   2.848 -0.9432  0.0940 -0.0686
 9937SOL     OW30388   0.846   5.619   6.920 -0.1898  0.4685  0.0084
 9937SOL    HW130389   0.753   5.642   6.923 -0.1271  0.6759  0.7365
 9937SOL    HW230390   0.883   5.664   6.996  0.7294  1.3579 -0.9391
 9938SOL     OW30391   3.043   6.024   2.363  0.1828  0.8294 -0.2577
 9938SOL    HW130392   2.966   6.038   2.308 -0.1207 -1.0658 -0.4006
 9938SOL    HW230393   3.030   5.937   2.400  3.0218 -0.2935 -1.5878
 9939SOL     OW30394   3.326   2.820   4.005 -0.1291  0.2556 -0.0829
 9939SOL    HW130395   3.344   2.863   4.088 -0.8256  1.4354 -0.5295
 9939SOL    HW230396   3.300   2.731   4.030  1.7368 -0.0926  0.8166
 9940SOL     OW30397   2.103   2.731   1.941  0.7271 -0.0533  0.8535
 9940SOL    HW130398   2.108   2.821   1.973  2.5743 -0.3956  1.6823
 9940SOL    HW230399   2.103   2.678   2.021 -0.5931 -0.8000  0.3838
 9941SOL     OW30400   3.663   6.723   0.454 -0.2625 -0.3795  0.2604
 9941SOL    HW130401   3.664   6.721   0.549  2.2570 -1.1539  0.2745
 9941SOL    HW230402   3.587   6.670   0.429 -0.3640 -1.0054  1.8223
 9942SOL     OW30403   6.878   4.655   6.965  0.5080 -0.5763  0.2145
 9942SOL    HW130404   6.836   4.739   6.949 -0.8904 -1.1069  0.8818
 9942SOL    HW230405   6.921   4.633   6.883  0.2473  0.4315 -0.2028
 9943SOL     OW30406   2.260   1.931   1.847  0.2383  0.4452 -0.1022
 9943SOL    HW130407   2.222   1.852   1.810  1.5463  0.1236 -0.8104
 9943SOL    HW230408   2.185   1.989   1.861 -0.5633 -0.3346 -1.0082
 9944SOL     OW30409   2.142   9.430   6.617  0.1751 -0.2820  0.1136
 9944SOL    HW130410   2.200   9.382   6.676  0.7331 -1.3538 -1.2614
 9944SOL    HW230411   2.060   9.437   6.666  0.9461 -0.1712  1.4457
 9945SOL     OW30412   7.751   6.083   6.411 -0.6300 -0.4521 -0.3270
 9945SOL    HW130413   7.842   6.107   6.429 -1.2259  0.6582  1.4895
 9945SOL    HW230414   7.706   6.093   6.496 -2.3953 -1.2135 -1.1178
 9946SOL     OW30415   6.328   0.005   6.316 -0.0649  0.7177  0.5616
 9946SOL    HW130416   6.257  -0.001   6.253 -0.2226 -0.4988  0.8382
 9946SOL    HW230417   6.406   0.024   6.263 -0.4166  1.0270  0.1542
 9947SOL     OW30418   1.065   5.712   7.451 -0.0271 -0.3534  0.4497
 9947SOL    HW130419   1.160   5.728   7.448 -0.2946  1.6259  1.0045
 9947SOL    HW230420   1.026   5.796   7.427 -1.6704 -1.3642 -0.5859
 9948SOL     OW30421   3.852   0.517   3.799 -0.1101  0.9084  0.0369
 9948SOL    HW130422   3.939   0.556   3.789 -0.2749  1.4917  0.7951
 9948SOL    HW230423   3.827   0.492   3.711 -0.6054  3.8590 -0.7825
 9949SOL     OW30424   0.338   7.683   7.748 -0.4574  0.0737 -0.4986
 9949SOL    HW130425   0.336   7.588   7.742 -0.7502  0.0141  0.4711
 9949SOL    HW230426   0.431   7.705   7.751 -0.3913 -0.1754 -0.7167
 9950SOL     OW30427   8.268   5.517   1.002 -0.7256 -0.0562  0.0101
 9950SOL    HW130428   8.172   5.515   1.006 -0.7625  1.4122  0.3517
 9950SOL    HW230429   8.293   5.588   1.062  0.5940 -0.5653  0.0942
 9951SOL     OW30430   5.734   7.053   6.567  0.0182  0.0569 -0.0970
 9951SOL    HW130431   5.675   7.127   6.551  2.4174  2.4429  1.4087
 9951SOL    HW230432   5.691   7.003   6.636 -1.2484  0.4523 -0.5571
 9952SOL     OW30433   8.908   9.293   9.801  0.9511  0.1432  0.0385
 9952SOL    HW130434   8.899   9.208   9.844 -0.9931  0.2687 -0.0237
 9952SOL    HW230435   8.827   9.303   9.751  0.7898  2.3558  0.6450
 9953SOL     OW30436   8.132   7.073   4.182  0.5099 -0.0127  0.0824
 9953SOL    HW130437   8.082   7.051   4.261  0.3106 -0.1926 -0.0919
 9953SOL    HW230438   8.172   7.158   4.202  0.5633 -0.1170  0.4235
 9954SOL     OW30439   1.584   0.558   5.306  0.2997 -0.5331  0.0528
 9954SOL    HW130440   1.577   0.653   5.320  0.2825 -0.4102 -0.7639
 9954SOL    HW230441   1.674   0.537   5.328  1.2637  0.2200 -2.7655
 9955SOL     OW30442   6.045   3.677   0.766  0.3203  0.0752 -0.5615
 9955SOL    HW130443   5.955   3.645   0.778  0.1325  0.9663  0.7000
 9955SOL    HW230444   6.069   3.650   0.678 -0.2363 -2.4390 -0.0257
 9956SOL     OW30445   5.216   3.312   0.276 -1.0817  0.3912 -0.4125
 9956SOL    HW130446   5.201   3.387   0.334 -0.1313  0.1152  0.2032
 9956SOL    HW230447   5.155   3.327   0.203 -1.0526  1.6597 -0.2071
 9957SOL     OW30448   1.412   0.127   9.157  0.2177 -0.1322  0.0992
 9957SOL    HW130449   1.326   0.133   9.116 -0.1271 -1.3500  0.5848
 9957SOL    HW230450   1.395   0.128   9.251  1.0308  3.0352  0.3163
 9958SOL     OW30451   0.019   0.898   6.267  0.0975 -0.6634  0.2445
 9958SOL    HW130452   0.095   0.934   6.220 -1.6671  2.5564 -0.4048
 9958SOL    HW230453   0.056   0.866   6.349  2.0237  2.3051  0.6961
 9959SOL     OW30454   7.652   6.665   9.822 -0.4122  0.7524 -0.1835
 9959SOL    HW130455   7.603   6.719   9.885 -2.0449 -0.5105 -0.2955
 9959SOL    HW230456   7.685   6.727   9.758 -0.2799  1.8685  0.9224
 9960SOL     OW30457   5.936   2.352   6.489 -0.2244 -0.3941 -0.1979
 9960SOL    HW130458   5.879   2.421   6.455 -0.0451 -0.1393  0.0127
 9960SOL    HW230459   5.952   2.295   6.413 -2.0643 -1.3901  0.1178
 9961SOL     OW30460   8.437   3.447   2.022 -0.6032  1.4055 -0.0046
 9961SOL    HW130461   8.369   3.451   1.955 -0.6908  0.0639 -0.0346
 9961SOL    HW230462   8.509   3.400   1.979 -0.0919  1.8261  0.3834
 9962SOL     OW30463   7.025   2.841   9.889 -0.6240  0.4749 -0.2250
 9962SOL    HW130464   7.101   2.893   9.916  0.8855 -1.0297 -1.3076
 9962SOL    HW230465   7.047   2.812   9.800 -2.3264 -0.3080 -0.4277
 9963SOL     OW30466   7.509   6.674   3.628  0.0336  0.2146 -0.5281
 9963SOL    HW130467   7.422   6.711   3.615 -0.9291 -2.0974 -1.0281
 9963SOL    HW230468   7.565   6.723   3.567 -1.5471 -0.3636 -2.5298
 9964SOL     OW30469   1.658   3.531   0.097  0.1584 -0.1676 -0.2120
 9964SOL    HW130470   1.695   3.615   0.071  0.7166 -0.0096  1.0259
 9964SOL    HW230471   1.730   3.469   0.083 -0.0071 -0.3163 -0.4069
 9965SOL     OW30472   3.049   3.455   1.888 -0.0979 -0.1769  0.7225
 9965SOL    HW130473   3.130   3.459   1.838  0.0035  1.1876  0.9657
 9965SOL    HW230474   3.045   3.365   1.920 -0.1904 -1.1275 -1.7553
 9966SOL     OW30475   1.443   8.028   8.712 -0.2805 -0.3162 -0.4786
 9966SOL    HW130476   1.466   8.119   8.692  1.0677 -0.4528  0.2932
 9966SOL    HW230477   1.396   8.033   8.795 -0.2807 -0.3061 -0.4789
 9967SOL     OW30478   9.642   9.863   2.889  0.4857 -0.4434 -0.0679
 9967SOL    HW130479   9.668   9.826   2.804 -0.3327  3.2599 -2.1831
 9967SOL    HW230480   9.579   9.932   2.866 -1.7305 -0.8677  3.8250
 9968SOL     OW30481   2.194   7.880   3.547 -0.1425 -0.2089  0.0354
 9968SOL    HW130482   2.153   7.966   3.549 -1.7375 -0.9007 -0.6942
 9968SOL    HW230483   2.131   7.824   3.502  1.5342 -1.4285 -0.9254
 9969SOL     OW30484   8.717   9.925   8.531  0.4512  0.9596  0.0490
 9969SOL    HW130485   8.694  10.013   8.560  3.4529  1.6820  0.6163
 9969SOL    HW230486   8.708   9.928   8.435  1.3534  2.1912 -0.0213
 9970SOL     OW30487   8.447   7.355   1.833  0.3989 -0.2783  0.1179
 9970SOL    HW130488   8.477   7.315   1.914  1.7135  0.0650 -0.1826
 9970SOL    HW230489   8.526   7.366   1.780 -0.2029  0.9321 -0.5796
 9971SOL     OW30490   6.326   1.768   7.526 -0.2862 -0.1328  0.1533
 9971SOL    HW130491   6.391   1.827   7.565 -0.2367 -0.4652  0.5786
 9971SOL    HW230492   6.324   1.693   7.585 -0.8186 -0.2727 -0.0425
 9972SOL     OW30493   7.818   0.582   2.907  0.3705  0.2644  0.2857
 9972SOL    HW130494   7.799   0.541   2.822 -1.4867  3.4722 -1.0514
 9972SOL    HW230495   7.762   0.536   2.969 -2.8439  1.5365 -1.4150
 9973SOL     OW30496   2.947   4.688   4.002  0.6548 -0.0577 -0.0871
 9973SOL    HW130497   2.987   4.628   3.938 -1.4714 -1.4981 -0.1947
 9973SOL    HW230498   2.909   4.630   4.067  1.6101  1.3644  1.8132
 9974SOL     OW30499   4.626   2.382   5.980 -0.2541  0.2329 -0.1114
 9974SOL    HW130500   4.704   2.404   5.928  0.4837 -0.7827  0.5249
 9974SOL    HW230501   4.616   2.457   6.040 -1.0227  1.3452 -1.5673
 9975SOL     OW30502   5.056   2.674   8.603 -0.0702 -0.4940  0.5643
 9975SOL    HW130503   5.009   2.688   8.521 -1.1965 -2.6006  0.7980
 9975SOL    HW230504   5.139   2.721   8.591  0.0866 -1.2780 -2.0400
 9976SOL     OW30505   3.886   7.275   1.403 -0.1316 -0.2110 -0.0773
 9976SOL    HW130506   3.870   7.212   1.333 -0.8091 -0.7616  0.5576
 9976SOL    HW230507   3.805   7.276   1.454 -0.0743  1.0627  0.0116
 9977SOL     OW30508   8.618   1.721   4.273  0.0188  0.0600 -0.2304
 9977SOL    HW130509   8.676   1.708   4.348 -1.4358 -1.4867  0.7034
 9977SOL    HW230510   8.677   1.743   4.201  1.7161 -0.9551  0.7791
 9978SOL     OW30511   9.464   2.796   9.140  0.0215  0.1390 -0.5585
 9978SOL    HW130512   9.409   2.749   9.204  0.5037  1.2529  0.7075
 9978SOL    HW230513   9.539   2.738   9.126  0.8360  0.6662  1.3358
 9979SOL     OW30514   2.715   9.780   9.891 -0.1272  0.2205 -0.3987
 9979SOL    HW130515   2.697   9.726   9.967  3.7088  0.6043  1.0246
 9979SOL    HW230516   2.649   9.850   9.895 -0.4254 -0.0993  2.2543
 9980SOL     OW30517   8.714   3.319   0.045 -0.3029 -0.0050  0.3775
 9980SOL    HW130518   8.717   3.368   0.127 -0.2873  1.3421 -0.3898
 9980SOL    HW230519   8.719   3.227   0.071  0.5186  0.4216  1.8244
 9981SOL     OW30520   6.519   5.953   2.508 -0.3965 -0.6289 -0.0082
 9981SOL    HW130521   6.459   6.027   2.504 -1.1029 -1.1849 -0.0050
 9981SOL    HW230522   6.605   5.992   2.521 -0.7197  0.1998 -0.2724
 9982SOL     OW30523   0.537   3.037   2.605  0.5838 -0.4057 -0.2495
 9982SOL    HW130524   0.472   2.985   2.559  0.8082 -0.4520 -0.5197
 9982SOL    HW230525   0.503   3.046   2.694 -0.5546  0.9038 -0.7850
 9983SOL     OW30526   7.767   9.031   6.004  0.4411  0.6032  0.7410
 9983SOL    HW130527   7.736   8.943   6.024 -1.0641  0.7914 -0.5544
 9983SOL    HW230528   7.814   9.059   6.083  2.5673 -2.0054  0.5311
 9984SOL     OW30529   9.210   6.775   7.840 -0.0872  0.0348  0.2833
 9984SOL    HW130530   9.249   6.763   7.754 -0.8430 -1.4486  0.1059
 9984SOL    HW230531   9.283   6.800   7.897  0.7654 -0.7862 -0.4239
 9985SOL     OW30532   0.465   7.975   6.691 -0.4607 -0.2609  0.3922
 9985SOL    HW130533   0.439   7.902   6.634 -0.0390 -0.3220  0.2763
 9985SOL    HW230534   0.402   8.044   6.671 -0.1309 -0.1707 -0.3817
 9986SOL     OW30535   4.137   1.277   9.822  0.0654 -0.3159 -0.4737
 9986SOL    HW130536   4.126   1.323   9.739  0.1988 -0.6727 -0.6910
 9986SOL    HW230537   4.063   1.216   9.825 -0.5006  0.3683  0.1269
 9987SOL     OW30538   5.612   1.994   2.528 -0.1275  0.3811  0.5213
 9987SOL    HW130539   5.662   1.922   2.488  0.1234  0.4709  0.6723
 9987SOL    HW230540   5.526   1.990   2.484 -0.2734 -0.2957  0.8466
 9988SOL     OW30541   4.095   0.910   2.078  0.2208  0.0488  0.5162
 9988SOL    HW130542   4.108   0.951   1.992  0.4372  1.4870  1.2149
 9988SOL    HW230543   4.015   0.859   2.067  0.0689  0.4585 -0.4557
 9989SOL     OW30544   8.272   5.389   8.819  0.4701 -0.3055 -0.3140
 9989SOL    HW130545   8.293   5.399   8.912 -1.4214  0.9300  0.0363
 9989SOL    HW230546   8.264   5.478   8.786 -0.5883 -0.7145 -1.2331
 9990SOL     OW30547   2.793   9.778   6.546  0.5290  0.1053  0.1900
 9990SOL    HW130548   2.851   9.800   6.473 -1.2333  0.2017 -1.2710
 9990SOL    HW230549   2.805   9.850   6.609  0.2853  1.3767 -1.1519
 9991SOL     OW30550   5.442   6.881   0.592  0.3799 -0.1854  0.4250
 9991SOL    HW130551   5.520   6.881   0.536  0.4568 -1.6097  0.5043
 9991SOL    HW230552   5.381   6.940   0.549  1.0453 -0.0005 -0.2889
 9992SOL     OW30553   4.754   5.435   8.360  0.0933  0.2890  0.3827
 9992SOL    HW130554   4.764   5.366   8.295  1.7770  0.7498  0.1005
 9992SOL    HW230555   4.726   5.512   8.310 -0.7791  0.0788  0.5426
 9993SOL     OW30556   5.772   3.303   0.046  0.5501  0.9749 -0.6885
 9993SOL    HW130557   5.681   3.282   0.065  0.8572  0.3760  0.2046
 9993SOL    HW230558   5.778   3.304  -0.049 -0.2879  0.5705 -0.7475
 9994SOL     OW30559   1.222   2.255   8.146  0.3736  0.2977  0.4585
 9994SOL    HW130560   1.241   2.231   8.055 -1.4887  0.8141 -0.1086
 9994SOL    HW230561   1.273   2.334   8.161  0.0598  0.6781 -0.4170
 9995SOL     OW30562   6.746   8.883   4.694 -0.0961  0.0831  0.1385
 9995SOL    HW130563   6.748   8.793   4.727  0.3216 -0.3731 -1.0563
 9995SOL    HW230564   6.799   8.932   4.756 -1.1540 -0.2687  1.3734
 9996SOL     OW30565   6.427   9.779   3.467  0.4865 -0.4570  0.2909
 9996SOL    HW130566   6.345   9.763   3.421  0.8230 -0.3083 -0.3733
 9996SOL    HW230567   6.419   9.728   3.548  0.5767 -2.1220 -0.7053
 9997SOL     OW30568   6.183   1.870   9.118 -0.0894  0.0218 -0.8453
 9997SOL    HW130569   6.245   1.940   9.140  0.7755 -0.6601 -1.0512
 9997SOL    HW230570   6.109   1.885   9.176  0.3521  0.7359 -0.4403
 9998SOL     OW30571   3.153   7.037   1.898 -0.2805  0.2697 -0.4361
 9998SOL    HW130572   3.092   6.978   1.942 -0.3699  0.4910 -0.2627
 9998SOL    HW230573   3.151   7.117   1.950  0.5168  0.1131 -0.1454
 9999SOL     OW30574   6.295   0.628   8.987 -0.2437  0.4469  0.5558
 9999SOL    HW130575   6.310   0.692   9.057  0.6946  0.8323  0.0258
 9999SOL    HW230576   6.261   0.680   8.914  1.3753  0.5340 -0.1869
10000SOL     OW30577   8.050   0.912   9.263 -0.4419  0.0310 -0.0190
10000SOL    HW130578   8.102   0.979   9.220 -0.5226 -0.9377 -1.7094
10000SOL    HW230579   7.974   0.900   9.206 -1.3582 -0.2248  1.2005
10001SOL     OW30580   0.709   4.981   2.966  0.4525 -0.2448 -1.0414
10001SOL    HW130581   0.775   4.997   3.034  1.1740  0.8442 -1.9389
10001SOL    HW230582   0.669   5.067   2.952 -1.0464 -0.8606 -0.6538
10002SOL     OW30583   4.851   1.010   5.767 -0.3459 -0.0266  0.0236
10002SOL    HW130584   4.908   0.938   5.740  1.6838  1.4652  0.1052
10002SOL    HW230585   4.831   0.991   5.859  0.9157 -0.0448  0.3121
10003SOL     OW30586   7.202   0.660   3.799  0.0488  0.2366  0.3742
10003SOL    HW130587   7.129   0.694   3.747  0.2762 -1.4732 -1.1580
10003SOL    HW230588   7.280   0.692   3.754  0.2424  0.2414  0.7135
10004SOL     OW30589   0.786   5.349   3.926 -0.0374 -0.2290 -0.0850
10004SOL    HW130590   0.803   5.411   3.997 -1.2248  1.6216 -1.3109
10004SOL    HW230591   0.853   5.368   3.861 -0.1676 -0.5073 -0.3053
10005SOL     OW30592   0.872   5.819   8.704 -0.2222 -0.0433 -0.0256
10005SOL    HW130593   0.885   5.740   8.756 -2.1440  0.1899  0.9051
10005SOL    HW230594   0.777   5.826   8.695 -0.0663  1.7972 -0.6685
10006SOL     OW30595   9.377   8.751   4.458 -0.6346 -0.0842 -0.7765
10006SOL    HW130596   9.391   8.798   4.540  0.3028 -1.6392  0.0137
10006SOL    HW230597   9.388   8.816   4.390 -1.7245  1.3180  0.3249
10007SOL     OW30598   4.980   8.733   1.308  0.2785  0.1103 -0.1293
10007SOL    HW130599   4.977   8.806   1.247  0.5866 -0.0467 -0.3341
10007SOL    HW230600   4.960   8.656   1.255  0.1905  0.0156  0.0387
10008SOL     OW30601   2.549   4.713   1.981  0.5224 -0.0542  0.7502
10008SOL    HW130602   2.625   4.759   1.946  0.9211 -1.8649 -0.9323
10008SOL    HW230603   2.586   4.641   2.032 -0.0739  0.0366  1.3222
10009SOL     OW30604   9.107   6.609   3.168  0.0984  0.5379  0.4531
10009SOL    HW130605   9.197   6.596   3.139 -0.0110  0.5428  0.1088
10009SOL    HW230606   9.055   6.546   3.118 -0.0045  0.0484  1.1585
10010SOL     OW30607   3.002   9.179   3.307  0.2930  0.4066  0.3779
10010SOL    HW130608   2.969   9.089   3.305  1.2834  0.0092  1.1377
10010SOL    HW230609   3.034   9.192   3.396 -0.1339  1.6372  0.3760
10011SOL     OW30610   5.963   3.741   3.769 -0.5840 -0.3242 -0.1363
10011SOL    HW130611   5.941   3.661   3.722  2.0483 -1.2092 -0.0418
10011SOL    HW230612   6.058   3.738   3.779 -0.4048  2.6591  0.1797
10012SOL     OW30613   7.089   4.804   6.700  0.0641 -0.0487  0.2533
10012SOL    HW130614   7.146   4.759   6.763  0.8299 -0.2305 -0.5374
10012SOL    HW230615   7.130   4.889   6.687 -0.7048  0.4175  0.8234
10013SOL     OW30616   0.464   7.203   7.824  0.1272 -0.5052 -0.3184
10013SOL    HW130617   0.555   7.224   7.846 -0.5755  1.4255  1.0560
10013SOL    HW230618   0.448   7.118   7.865  0.4615  0.5393  2.1452
10014SOL     OW30619   2.018   0.736   8.315  0.4513 -0.0159 -0.2072
10014SOL    HW130620   2.095   0.767   8.268 -0.3867  0.3362 -1.3975
10014SOL    HW230621   2.050   0.662   8.367  1.6390  0.3019 -0.4609
10015SOL     OW30622   7.190   1.946   2.351  0.4198  0.1610  0.1981
10015SOL    HW130623   7.206   1.999   2.273  0.3600 -1.1704 -0.7527
10015SOL    HW230624   7.205   1.856   2.322 -0.5274 -0.4335  1.4869
10016SOL     OW30625   9.135   2.204   0.942  0.4793 -0.1548 -0.0697
10016SOL    HW130626   9.189   2.216   1.019  1.5429 -0.4525 -0.7547
10016SOL    HW230627   9.142   2.286   0.894 -0.1138  0.0015  0.1032
10017SOL     OW30628   8.612   6.844   1.586  0.1790  0.0625  0.1769
10017SOL    HW130629   8.536   6.864   1.641 -0.5069 -1.5862 -0.1225
10017SOL    HW230630   8.687   6.875   1.636 -0.6763  1.9589  0.3789
10018SOL     OW30631   2.682   4.719   8.931 -0.0861 -0.1030 -0.0215
10018SOL    HW130632   2.755   4.772   8.899 -0.4728  0.5355  0.1391
10018SOL    HW230633   2.718   4.672   9.007 -0.2890  1.4890  1.0980
10019SOL     OW30634   4.047   5.648   0.705 -0.5898 -0.2659  0.5294
10019SOL    HW130635   3.984   5.720   0.706 -0.4080 -0.0661 -0.6351
10019SOL    HW230636   3.995   5.571   0.681 -0.7444 -0.5035  1.5652
10020SOL     OW30637   3.391   2.796   0.070 -0.4030 -0.2884  0.0198
10020SOL    HW130638   3.431   2.722   0.024  0.6279 -0.2687  0.8516
10020SOL    HW230639   3.365   2.760   0.155  0.1121  0.2822  0.4325
10021SOL     OW30640   7.708   2.390   9.687  0.3399 -0.0164  0.4097
10021SOL    HW130641   7.647   2.420   9.754  0.8101  0.9987  0.4051
10021SOL    HW230642   7.769   2.463   9.676 -0.1477  0.1140 -1.6589
10022SOL     OW30643   2.456   3.121   2.263 -0.0859  0.5739  0.4622
10022SOL    HW130644   2.539   3.104   2.219 -0.0662  1.6115  0.0648
10022SOL    HW230645   2.416   3.035   2.273  0.2900  0.2246 -0.8390
10023SOL     OW30646   1.556   6.659   1.453 -0.3547 -0.2656 -0.1283
10023SOL    HW130647   1.571   6.596   1.523  0.9906  0.0027 -0.1458
10023SOL    HW230648   1.495   6.723   1.490 -2.6373 -2.1150 -0.4639
10024SOL     OW30649   1.895   9.127   6.137 -0.6545  0.2387 -0.2560
10024SOL    HW130650   1.815   9.132   6.085 -2.4515 -0.3603  2.3032
10024SOL    HW230651   1.901   9.035   6.163  1.2665  0.1285 -0.9346
10025SOL     OW30652   5.763   6.982   3.336  0.4287  0.2934 -0.0854
10025SOL    HW130653   5.803   6.913   3.284  2.0953  1.3242 -0.2345
10025SOL    HW230654   5.675   6.993   3.299  0.5617 -0.9185 -0.8040
10026SOL     OW30655   1.579   6.187   2.995 -0.0143  0.2174  0.1492
10026SOL    HW130656   1.526   6.119   3.036 -2.0416  2.1893  1.0456
10026SOL    HW230657   1.649   6.204   3.058 -0.0754 -0.3448  0.3717
10027SOL     OW30658   4.110   0.568   3.523  0.4737 -0.6301  0.4520
10027SOL    HW130659   4.158   0.638   3.567  1.7758 -0.6922 -0.8086
10027SOL    HW230660   4.068   0.520   3.594  0.5305  0.7065  1.4238
10028SOL     OW30661   2.491   3.740   7.911  0.4220  0.4896  0.0842
10028SOL    HW130662   2.460   3.722   7.822 -0.5404 -1.2401  0.7166
10028SOL    HW230663   2.426   3.697   7.967  3.0667 -1.9099  1.5494
10029SOL     OW30664   3.607   7.955   7.764  0.3090  0.0568 -0.6855
10029SOL    HW130665   3.574   8.037   7.800  0.7177  0.4587 -1.2082
10029SOL    HW230666   3.581   7.956   7.672 -0.8600 -1.0313 -0.3893
10030SOL     OW30667   1.344   8.026   2.522  0.1986  0.0905  0.0548
10030SOL    HW130668   1.423   7.990   2.563 -0.1335 -0.3584  0.3057
10030SOL    HW230669   1.299   7.950   2.484 -0.3101  0.2904  0.2478
10031SOL     OW30670   4.461   9.015   9.114 -0.7748  0.1092  0.3139
10031SOL    HW130671   4.556   9.005   9.108 -0.5566  1.6003  0.8810
10031SOL    HW230672   4.428   8.978   9.032  0.5104  1.7635 -1.0394
10032SOL     OW30673   8.229   0.264   6.356  0.0592 -0.0165 -0.3296
10032SOL    HW130674   8.291   0.332   6.382  0.0231 -0.0480 -0.1613
10032SOL    HW230675   8.257   0.238   6.268  0.5364 -0.3188 -0.0935
10033SOL     OW30676   0.042   7.909   6.206  0.1237 -0.3655  0.2392
10033SOL    HW130677   0.044   8.000   6.176 -0.6187  0.2210  1.8593
10033SOL    HW230678   0.132   7.891   6.233  0.4674 -0.4170 -0.9254
10034SOL     OW30679   8.419   2.467   5.300  0.1333 -0.0774 -0.5320
10034SOL    HW130680   8.344   2.497   5.351 -0.8108 -1.1551 -1.2281
10034SOL    HW230681   8.381   2.435   5.218  1.5464  1.0993 -1.7120
10035SOL     OW30682   9.877   7.739   4.070 -0.0844 -0.4171 -0.1689
10035SOL    HW130683   9.802   7.792   4.097  0.5528  0.4437 -0.0402
10035SOL    HW230684   9.909   7.782   3.991  0.5904 -0.4657  0.0750
10036SOL     OW30685   8.805   4.662   8.505  0.1876 -0.0475  0.1630
10036SOL    HW130686   8.737   4.662   8.438 -0.1571 -0.1224  0.5079
10036SOL    HW230687   8.789   4.742   8.555  0.8713  0.3691 -0.2674
10037SOL     OW30688   0.327   5.809   8.832  0.3450 -0.4717 -0.0292
10037SOL    HW130689   0.308   5.890   8.879 -0.6943 -0.9361  0.3875
10037SOL    HW230690   0.373   5.754   8.895  1.9859  0.1656 -0.6351
10038SOL     OW30691   7.921   6.071   8.613  0.2463  0.1259 -0.1043
10038SOL    HW130692   7.872   6.129   8.671 -1.2898 -2.4106  1.3249
10038SOL    HW230693   7.858   6.047   8.544  0.0476 -1.6018  0.6294
10039SOL     OW30694   9.774   8.779   1.779 -0.0197  0.0880 -0.0545
10039SOL    HW130695   9.836   8.784   1.706  0.4723  0.0214  0.3541
10039SOL    HW230696   9.815   8.719   1.841 -0.5214  0.0033  0.1958
10040SOL     OW30697   6.286   9.654   8.899  0.3480  0.2237 -1.1946
10040SOL    HW130698   6.266   9.744   8.875  0.5082  1.1008  1.6681
10040SOL    HW230699   6.380   9.653   8.914  0.2730 -0.3110 -0.7239
10041SOL     OW30700   6.819   6.075   7.787  0.0573  0.0918  0.3215
10041SOL    HW130701   6.873   5.997   7.780 -0.0838 -0.0446  0.7015
10041SOL    HW230702   6.829   6.119   7.703 -1.5459 -1.4338 -0.7590
10042SOL     OW30703   8.992   3.632   6.732 -0.4161 -0.0599  0.2458
10042SOL    HW130704   8.910   3.628   6.782  0.4497 -2.2768  1.6229
10042SOL    HW230705   9.024   3.542   6.732  0.9915  0.3659 -2.0793
10043SOL     OW30706   8.229   7.919   9.904 -0.0317 -0.0516  0.4306
10043SOL    HW130707   8.292   7.980   9.943 -0.4575 -0.9678  2.6811
10043SOL    HW230708   8.160   7.910   9.969 -2.2831  0.4822 -1.7420
10044SOL     OW30709   6.231   8.479   3.166  0.2462  0.3972 -0.0952
10044SOL    HW130710   6.192   8.503   3.082  1.0760  1.6877 -0.1542
10044SOL    HW230711   6.222   8.384   3.171 -0.1411  0.3382 -1.4860
10045SOL     OW30712   1.441   0.303   2.956  0.6703  0.0265  0.5672
10045SOL    HW130713   1.384   0.332   2.885 -0.5746 -3.1758  0.0968
10045SOL    HW230714   1.419   0.360   3.029 -1.1652  0.6398 -0.4157
10046SOL     OW30715   5.909   7.543   2.770 -0.1625 -0.4563 -0.4552
10046SOL    HW130716   5.921   7.461   2.722  1.0165 -1.7232  1.8632
10046SOL    HW230717   5.846   7.522   2.838 -0.4756  0.8013 -0.3389
10047SOL     OW30718   4.929   6.395   6.325 -0.0626 -0.4510 -0.0461
10047SOL    HW130719   4.876   6.324   6.288  1.2721 -2.0388  0.9364
10047SOL    HW230720   5.012   6.353   6.346  1.0615  1.6297 -0.1641
10048SOL     OW30721   8.871   4.165   8.812 -0.3663  0.4239  0.2460
10048SOL    HW130722   8.940   4.171   8.878  0.8593 -0.6141 -0.8729
10048SOL    HW230723   8.877   4.248   8.764 -1.3386  1.2322  1.4517
10049SOL     OW30724   2.605   1.530   7.093  0.1658 -0.0391 -0.3797
10049SOL    HW130725   2.604   1.514   7.187  2.0129  1.6869  0.0095
10049SOL    HW230726   2.672   1.471   7.059 -0.6585 -0.8257 -0.6772
10050SOL     OW30727   0.084   2.886   3.830  0.2853 -0.1070  0.2020
10050SOL    HW130728   0.082   2.793   3.855  2.9043 -0.4180 -0.4125
10050SOL    HW230729   0.089   2.933   3.913 -3.4479 -0.2438  0.6752
10051SOL     OW30730   0.658   0.580   8.852  0.7522  0.0967 -0.1063
10051SOL    HW130731   0.629   0.648   8.791 -1.8020 -0.3768  0.4794
10051SOL    HW230732   0.610   0.598   8.933  1.8464 -1.0090  0.8246
10052SOL     OW30733   6.099   7.656   7.749 -0.4357 -0.0403  0.6905
10052SOL    HW130734   6.151   7.632   7.826 -1.3754 -0.5189  1.1946
10052SOL    HW230735   6.024   7.596   7.751 -1.9668  1.8070  1.0073
10053SOL     OW30736   3.489   7.270   1.284 -0.3613  0.3295  0.1755
10053SOL    HW130737   3.542   7.305   1.356  1.8252 -1.3307 -0.4986
10053SOL    HW230738   3.464   7.183   1.314 -0.3966  0.0621 -0.6081
10054SOL     OW30739   5.784   4.835   1.852  0.5709 -0.4611 -0.4567
10054SOL    HW130740   5.727   4.786   1.792 -0.1768 -0.1725  0.0054
10054SOL    HW230741   5.866   4.785   1.853  0.8227 -0.1607 -2.1652
10055SOL     OW30742   0.954   6.283   5.658  0.1985  0.0932 -0.1113
10055SOL    HW130743   0.982   6.374   5.648 -3.9223  1.8587  2.0489
10055SOL    HW230744   0.866   6.280   5.622 -0.4143 -2.6117  1.3066
10056SOL     OW30745   2.979   4.333   2.164  0.3270 -0.7651 -0.2925
10056SOL    HW130746   2.931   4.255   2.138 -0.5256 -0.5844  0.6729
10056SOL    HW230747   3.001   4.318   2.256 -1.4761  0.8764  0.4826
10057SOL     OW30748   9.631   7.900   4.119  0.1999  0.2230 -0.5664
10057SOL    HW130749   9.550   7.862   4.084 -1.6850  2.7974  0.6913
10057SOL    HW230750   9.613   7.912   4.212  1.8763  1.2705 -0.3497
10058SOL     OW30751   3.273   1.570   2.094  0.4512 -0.2411 -0.1521
10058SOL    HW130752   3.201   1.511   2.074 -0.9815  0.8042  1.5513
10058SOL    HW230753   3.261   1.644   2.035 -1.3407  0.9762  1.5788
10059SOL     OW30754   8.342   8.862   5.197 -0.4286  0.0130 -0.0310
10059SOL    HW130755   8.350   8.806   5.274  0.1898 -1.4250 -1.0919
10059SOL    HW230756   8.353   8.803   5.123  1.3719  1.6937 -1.2129
10060SOL     OW30757   7.303   6.532   9.465 -0.0135 -0.7446 -0.1931
10060SOL    HW130758   7.319   6.447   9.506 -1.0768 -1.0669 -0.4300
10060SOL    HW230759   7.250   6.580   9.529 -0.8688 -0.8965 -0.7808
10061SOL     OW30760   6.727   0.808   3.851 -0.2614 -0.7308 -0.0484
10061SOL    HW130761   6.780   0.759   3.914  0.6492 -0.4218 -0.5586
10061SOL    HW230762   6.710   0.744   3.781 -1.2500 -1.0662  0.4826
10062SOL     OW30763   7.841   1.502   1.194 -0.2108 -0.2991  0.5773
10062SOL    HW130764   7.858   1.410   1.173 -0.4343 -0.3892  0.7738
10062SOL    HW230765   7.875   1.551   1.120  1.4187 -0.4266  1.1958
10063SOL     OW30766   0.342   7.631   0.411 -0.2924  0.0335 -0.5461
10063SOL    HW130767   0.274   7.691   0.382 -0.6668 -0.0405  0.1434
10063SOL    HW230768   0.346   7.645   0.506  1.1737  0.5822 -0.6610
10064SOL     OW30769   0.381   5.243   8.213 -0.0726  0.3864 -0.4543
10064SOL    HW130770   0.455   5.219   8.157 -0.7908 -0.8110 -0.9312
10064SOL    HW230771   0.323   5.294   8.156 -0.4399 -0.1770 -0.5887
10065SOL     OW30772   2.380   0.813   2.356 -0.2745 -0.6022 -0.3332
10065SOL    HW130773   2.448   0.879   2.368 -1.9307  1.0463  0.5479
10065SOL    HW230774   2.420   0.748   2.299  1.5616  1.0161 -1.0261
10066SOL     OW30775   4.501   2.695   4.248 -0.1990  0.0920 -0.2652
10066SOL    HW130776   4.509   2.630   4.318 -1.5217 -0.2988 -0.4510
10066SOL    HW230777   4.528   2.647   4.169 -0.7282 -0.1084 -0.3309
10067SOL     OW30778   2.806   8.188   7.577  0.0841 -0.2457 -0.0551
10067SOL    HW130779   2.800   8.281   7.598 -1.9416 -0.3104 -0.1687
10067SOL    HW230780   2.715   8.158   7.571  0.6574 -1.9304 -1.3742
10068SOL     OW30781   0.122   0.788   6.866  0.2546  0.5010  0.1813
10068SOL    HW130782   0.047   0.821   6.817 -0.0987  0.6183  0.7931
10068SOL    HW230783   0.198   0.816   6.815 -0.1109  0.3373 -0.4692
10069SOL     OW30784   7.732   5.204   4.100 -0.2297 -0.4171 -0.4713
10069SOL    HW130785   7.648   5.166   4.125 -1.9983  1.9523 -2.3402
10069SOL    HW230786   7.755   5.261   4.173 -1.3101  0.4371 -0.7737
10070SOL     OW30787   1.407   7.341   5.784 -0.2136 -0.2344 -0.1433
10070SOL    HW130788   1.326   7.343   5.732 -0.4381  3.9339  0.0390
10070SOL    HW230789   1.386   7.390   5.863  2.1674 -0.0885  0.4819
10071SOL     OW30790   1.637   3.665   3.358  0.3835  0.1963  0.1140
10071SOL    HW130791   1.618   3.587   3.410 -0.0628  0.0972 -0.1956
10071SOL    HW230792   1.730   3.656   3.335 -0.1984 -1.4552 -1.8928
10072SOL     OW30793   9.741   2.479   0.624  0.6806  0.2819 -0.4499
10072SOL    HW130794   9.789   2.406   0.663  0.4660 -0.3278 -1.2828
10072SOL    HW230795   9.718   2.535   0.698  2.1432  0.2814  0.0241
10073SOL     OW30796   5.886   6.019   7.328  0.1738  0.2594  0.4371
10073SOL    HW130797   5.850   5.939   7.290  0.2852 -0.4423  1.7416
10073SOL    HW230798   5.838   6.090   7.285 -3.8715 -0.6225  3.0028
10074SOL     OW30799   9.547   0.306   6.060  0.0825 -0.8431  0.2241
10074SOL    HW130800   9.626   0.326   6.110  1.2152 -2.3058 -0.8943
10074SOL    HW230801   9.578   0.260   5.982 -1.6400  1.1614 -1.7800
10075SOL     OW30802   8.230   7.712   7.065 -0.2040 -0.2344  0.4899
10075SOL    HW130803   8.243   7.671   7.150  2.3733 -1.0637 -0.1958
10075SOL    HW230804   8.263   7.801   7.077 -2.3175  0.5470  0.9842
10076SOL     OW30805   1.845   4.037   1.209  0.0975 -0.3494 -0.0052
10076SOL    HW130806   1.912   4.021   1.276 -0.6335 -0.7033  0.6657
10076SOL    HW230807   1.762   4.021   1.255 -0.3982 -2.9337 -1.5804
10077SOL     OW30808   9.375   2.952   1.210 -0.1299  0.3751  0.2468
10077SOL    HW130809   9.406   2.922   1.296  0.9048 -0.8975 -0.5324
10077SOL    HW230810   9.331   3.035   1.228  0.6279  0.4553  1.9055
10078SOL     OW30811   1.212   5.249   5.375 -0.0686 -0.9219  0.4925
10078SOL    HW130812   1.296   5.275   5.338 -0.3998 -0.7059 -0.1141
10078SOL    HW230813   1.166   5.331   5.392  0.3315 -0.9869  2.0122
10079SOL     OW30814   2.811   2.908   1.089 -0.4470 -0.1327 -0.6279
10079SOL    HW130815   2.902   2.939   1.088  0.0365 -1.4800 -0.5362
10079SOL    HW230816   2.816   2.818   1.057 -2.1260  0.6347 -3.3650
10080SOL     OW30817   3.205   8.458   2.086 -0.5628 -0.1314 -0.0455
10080SOL    HW130818   3.164   8.542   2.108  1.4866  0.9831 -0.3000
10080SOL    HW230819   3.206   8.410   2.169 -2.3357 -0.2112 -0.0336
10081SOL     OW30820   4.940   3.553   1.331 -0.2967  0.8671  0.0763
10081SOL    HW130821   5.005   3.515   1.271  0.8604  2.7366  0.0704
10081SOL    HW230822   4.891   3.615   1.277 -0.1023  1.6185  0.7305
10082SOL     OW30823   1.145   4.039   8.836 -0.0437  0.2957 -0.0972
10082SOL    HW130824   1.082   4.107   8.860 -0.1487  0.2102 -0.1291
10082SOL    HW230825   1.151   4.045   8.740 -0.7369 -0.3366 -0.1920
10083SOL     OW30826   6.383   6.992   2.182 -0.1463 -0.1492  0.1552
10083SOL    HW130827   6.318   6.966   2.117  0.3158  0.2176 -0.4593
10083SOL    HW230828   6.333   7.041   2.247 -0.3098  1.2296 -0.9635
10084SOL     OW30829   7.927   9.302   8.609  0.3119 -0.6536  0.1225
10084SOL    HW130830   7.888   9.275   8.527 -1.3653  0.5422  0.4745
10084SOL    HW230831   7.854   9.306   8.671  1.0612  0.9803  0.9836
10085SOL     OW30832   8.032   9.720   6.664 -0.2591 -0.0936  0.1004
10085SOL    HW130833   8.058   9.723   6.756 -0.1267 -1.7524  0.1581
10085SOL    HW230834   7.962   9.784   6.656  1.0667  1.5407  0.8693
10086SOL     OW30835   0.389   7.183   2.242 -0.4226  0.2451  0.1466
10086SOL    HW130836   0.417   7.092   2.253 -0.8966 -0.0079 -0.6480
10086SOL    HW230837   0.438   7.232   2.308  1.2512 -0.3183 -0.6147
10087SOL     OW30838   0.641   4.712   5.661  0.0651 -0.1526  0.1317
10087SOL    HW130839   0.659   4.797   5.621  1.0749  0.1062  1.0944
10087SOL    HW230840   0.708   4.654   5.626  1.6741  0.3356  2.1847
10088SOL     OW30841   8.888   2.251   6.988  0.4746 -0.1095  0.1153
10088SOL    HW130842   8.925   2.238   6.900 -1.4238 -1.5900 -0.5147
10088SOL    HW230843   8.799   2.282   6.972  0.1704 -0.1838  1.5509
10089SOL     OW30844   3.117  10.004   1.575 -0.1633 -0.1538  0.5007
10089SOL    HW130845   3.090   9.912   1.578 -1.5251  0.1978 -0.2667
10089SOL    HW230846   3.149  10.016   1.486  1.0638 -0.1505  0.9316
10090SOL     OW30847   7.144   9.552   4.180  0.2018  0.0056 -0.0644
10090SOL    HW130848   7.165   9.561   4.272  0.4034 -0.8531 -0.0215
10090SOL    HW230849   7.059   9.507   4.179  1.7442 -3.1018 -0.3063
10091SOL     OW30850   0.653   5.031   0.624  0.0301 -0.4300 -0.1086
10091SOL    HW130851   0.626   5.001   0.537 -0.2942 -0.2026 -0.0881
10091SOL    HW230852   0.719   5.097   0.607 -0.1290 -0.2909 -0.1848
10092SOL     OW30853   2.807   8.906   6.957  0.0848 -0.3574  0.2852
10092SOL    HW130854   2.793   8.985   6.905 -0.7345 -0.5560  0.1888
10092SOL    HW230855   2.829   8.838   6.893  0.2458 -0.3337  0.3151
10093SOL     OW30856   9.748   9.548   2.080  0.4822 -0.0380 -0.6242
10093SOL    HW130857   9.708   9.523   2.163 -1.1484  1.6193 -0.8257
10093SOL    HW230858   9.728   9.476   2.020 -0.5401 -0.1223 -0.2009
10094SOL     OW30859   0.431   8.231   2.600 -0.3976 -0.0519  0.2077
10094SOL    HW130860   0.355   8.279   2.567 -0.1536 -0.8731 -1.6986
10094SOL    HW230861   0.485   8.297   2.644 -1.2820  0.9040 -0.1020
10095SOL     OW30862   5.548   2.028   5.713  0.1506  0.8971 -0.0419
10095SOL    HW130863   5.467   1.982   5.736 -0.1489 -0.0552 -2.6579
10095SOL    HW230864   5.592   1.969   5.652  1.3206  2.7178 -1.0326
10096SOL     OW30865   1.620   8.639   5.150  0.5402  0.2418  0.1469
10096SOL    HW130866   1.608   8.702   5.221  0.8626  1.2774 -0.6986
10096SOL    HW230867   1.705   8.663   5.111 -0.3103  0.6718 -1.5366
10097SOL     OW30868   5.557   2.709   0.434  0.0956  0.4982  0.3287
10097SOL    HW130869   5.463   2.722   0.430  0.0447  0.4832  1.2294
10097SOL    HW230870   5.574   2.683   0.525  1.0357  1.0783  0.3331
10098SOL     OW30871   6.330   6.445   2.405 -0.4915  0.3724 -0.1490
10098SOL    HW130872   6.307   6.380   2.339  0.5454  0.2878 -0.4379
10098SOL    HW230873   6.252   6.452   2.460 -0.9995 -0.3090 -0.7671
10099SOL     OW30874   2.091   0.357   1.173 -0.0484 -0.6096 -0.1217
10099SOL    HW130875   2.066   0.268   1.151 -2.2762  0.1968 -1.1437
10099SOL    HW230876   2.015   0.394   1.217  0.1798  1.2752 -1.1869
10100SOL     OW30877   1.061   1.203   1.262 -0.4088  0.3052 -0.3573
10100SOL    HW130878   1.136   1.152   1.231  0.3060  0.5921  0.8159
10100SOL    HW230879   1.022   1.240   1.183  0.1254 -0.6106 -1.0662
10101SOL     OW30880   8.246   3.853   7.802 -0.0999 -0.1020  0.1742
10101SOL    HW130881   8.170   3.802   7.775  0.6889 -0.8841 -0.6764
10101SOL    HW230882   8.214   3.911   7.871 -1.4395 -0.4422 -0.1460
10102SOL     OW30883   6.836   8.937   0.005  0.2460  0.7032 -0.0007
10102SOL    HW130884   6.860   8.863   0.062 -1.3704 -1.7857 -2.3210
10102SOL    HW230885   6.915   8.953  -0.046 -0.0444 -1.1053 -1.1098
10103SOL     OW30886   0.813   7.446   6.984  0.8477 -0.7031  0.2249
10103SOL    HW130887   0.839   7.486   7.067  0.2273 -0.2312  0.2058
10103SOL    HW230888   0.889   7.457   6.926  0.6456  0.5957  0.1802
10104SOL     OW30889   7.813   8.075   2.820  0.6496  0.0719  0.2981
10104SOL    HW130890   7.867   8.135   2.768 -1.6594  0.7732 -1.5008
10104SOL    HW230891   7.858   7.991   2.814  0.4516  0.0350 -3.2328
10105SOL     OW30892   8.340   0.690   4.583  0.6717 -0.2969 -0.2826
10105SOL    HW130893   8.284   0.663   4.511  1.4273 -1.7661 -0.3606
10105SOL    HW230894   8.291   0.759   4.628 -0.1936  0.0153 -1.6594
10106SOL     OW30895   6.543   3.538   1.257  0.0759 -0.0602 -0.5261
10106SOL    HW130896   6.501   3.511   1.339  0.7276 -1.4411 -0.6201
10106SOL    HW230897   6.592   3.461   1.229  2.6357  1.4270 -0.4337
10107SOL     OW30898   8.980   0.340   5.417  0.6192  0.3751  0.2857
10107SOL    HW130899   9.057   0.369   5.369 -0.9096  0.4554 -2.3102
10107SOL    HW230900   9.005   0.255   5.453  2.3009  0.9606  0.5815
10108SOL     OW30901   1.962   0.639   6.465  0.5729 -0.0430 -0.2991
10108SOL    HW130902   1.990   0.680   6.384  4.3711 -1.1354  0.2741
10108SOL    HW230903   1.984   0.702   6.534  1.2241 -0.7294  0.1468
10109SOL     OW30904   6.758   9.523   9.197  0.3607  0.0971  0.0603
10109SOL    HW130905   6.713   9.469   9.262  0.3487  0.7390  0.5990
10109SOL    HW230906   6.689   9.577   9.158  0.5213  0.4243  0.2268
10110SOL     OW30907   6.930   3.399   3.464 -0.3101 -0.1557  0.2422
10110SOL    HW130908   6.872   3.443   3.527  0.3373 -0.9319  1.4205
10110SOL    HW230909   6.885   3.408   3.380 -1.0509  1.1942  0.7421
10111SOL     OW30910   2.425   3.615   5.143 -0.1191  0.2641 -0.2235
10111SOL    HW130911   2.469   3.550   5.197  0.0361 -2.5956 -3.3923
10111SOL    HW230912   2.332   3.605   5.166  0.1498  0.9728  1.2608
10112SOL     OW30913   3.705   0.666   4.159  0.7623 -0.0598 -0.7472
10112SOL    HW130914   3.767   0.674   4.231  0.9569 -3.0139 -0.4367
10112SOL    HW230915   3.750   0.612   4.094 -1.1206 -1.5975 -0.8740
10113SOL     OW30916   2.059   7.589   4.089  0.2890  0.2910 -0.3962
10113SOL    HW130917   2.132   7.587   4.151 -0.7480 -0.3935  0.8641
10113SOL    HW230918   2.006   7.664   4.115 -0.3158 -0.1788 -0.2161
10114SOL     OW30919   4.243   8.515   8.058  0.1177  0.1399  0.3616
10114SOL    HW130920   4.298   8.522   7.980 -0.3461  1.1437  0.1091
10114SOL    HW230921   4.182   8.444   8.037 -0.7220  1.1221 -0.6741
10115SOL     OW30922   4.688   6.619   4.287 -0.6057  0.3367  0.1567
10115SOL    HW130923   4.668   6.624   4.193  1.4722 -0.0349 -0.3664
10115SOL    HW230924   4.641   6.693   4.325  1.2954  2.7235 -1.7676
10116SOL     OW30925   7.958   0.644   7.057 -1.3447  0.2465  0.1827
10116SOL    HW130926   8.005   0.667   6.976 -0.2273 -1.6590  0.2335
10116SOL    HW230927   8.023   0.599   7.110 -2.6846 -0.5850  1.1793
10117SOL     OW30928   9.975   2.312   7.451 -0.0301  0.1772 -0.2621
10117SOL    HW130929   9.943   2.399   7.477 -0.6352 -0.3293  0.7606
10117SOL    HW230930   9.918   2.287   7.378 -0.0006  0.5430 -0.4149
10118SOL     OW30931   4.436   6.434   3.451 -0.7252 -0.2720  0.1688
10118SOL    HW130932   4.374   6.484   3.399  0.6039 -0.8837 -2.1049
10118SOL    HW230933   4.384   6.361   3.487 -1.5673 -0.1190 -0.7121
10119SOL     OW30934   3.234   1.536   6.248  0.0144 -0.9000 -0.0355
10119SOL    HW130935   3.258   1.603   6.314 -0.3155 -0.5239 -0.2968
10119SOL    HW230936   3.318   1.510   6.210  0.4004 -2.3242  1.6679
10120SOL     OW30937   9.826   6.730   1.012  0.4444  0.1163 -0.0067
10120SOL    HW130938   9.856   6.639   1.001 -0.1744 -0.0723 -0.1604
10120SOL    HW230939   9.897   6.782   0.975  0.8677 -0.2980  0.2080
10121SOL     OW30940   1.927   0.268   2.875  0.3456  0.0376  0.2516
10121SOL    HW130941   1.921   0.214   2.796 -0.6856  2.4021 -1.3901
10121SOL    HW230942   1.875   0.221   2.940  0.6205 -1.6071 -0.6597
10122SOL     OW30943   9.052   9.717   1.512  0.0236 -0.2427  0.1877
10122SOL    HW130944   9.095   9.721   1.426 -0.1180  0.5768  0.1472
10122SOL    HW230945   9.102   9.778   1.566 -0.2032 -0.3757  0.5476
10123SOL     OW30946   7.010   9.167   7.591  0.4820  0.2477 -0.1393
10123SOL    HW130947   7.073   9.238   7.580 -0.3029  0.9079 -0.5285
10123SOL    HW230948   6.949   9.199   7.657  0.5311 -0.3732  0.2157
10124SOL     OW30949   4.326   2.533   1.992 -0.6537 -0.0485 -0.1500
10124SOL    HW130950   4.399   2.595   2.002  0.1918 -0.9886 -0.2887
10124SOL    HW230951   4.303   2.509   2.081 -0.4808 -0.1002 -0.1187
10125SOL     OW30952   3.995   2.806   3.275  0.2220  0.7457  0.0053
10125SOL    HW130953   3.994   2.731   3.335 -1.2903 -0.5011 -1.4620
10125SOL    HW230954   4.047   2.873   3.320  1.2357 -1.0107  1.5688
10126SOL     OW30955   4.154   9.673   9.298  0.0930  0.0448  0.3211
10126SOL    HW130956   4.083   9.716   9.250  1.9036  2.8682 -0.0569
10126SOL    HW230957   4.138   9.580   9.285 -2.9471  0.5713 -0.5746
10127SOL     OW30958   9.203   6.898   6.814 -0.7094  0.0549 -0.5764
10127SOL    HW130959   9.149   6.931   6.742 -2.5908 -1.5547 -0.0203
10127SOL    HW230960   9.175   6.807   6.824  1.6802 -0.6660  0.2418
10128SOL     OW30961   7.127   7.135   4.233  0.6365  0.3759  0.1783
10128SOL    HW130962   7.054   7.183   4.273  1.0416  0.8979  0.2960
10128SOL    HW230963   7.203   7.157   4.287  0.9265  0.0159 -0.0811
10129SOL     OW30964   1.733   3.018   9.046 -0.3449 -0.3723  0.7576
10129SOL    HW130965   1.765   2.966   9.119 -1.1589  0.1695  1.5238
10129SOL    HW230966   1.645   2.984   9.029  0.0685 -0.9102 -0.3938
10130SOL     OW30967   4.855   0.415   7.277  0.0723  0.3749  0.1017
10130SOL    HW130968   4.870   0.502   7.312 -1.0572  0.8734 -0.5816
10130SOL    HW230969   4.886   0.355   7.345 -0.6362  1.3021  1.2742
10131SOL     OW30970   6.939   9.554   7.463  0.4833 -0.0804 -0.0484
10131SOL    HW130971   6.926   9.558   7.558  2.2429  0.6984  0.1891
10131SOL    HW230972   6.880   9.485   7.434 -0.6541  0.1815  1.5020
10132SOL     OW30973   6.741   2.878   5.184  0.7990  0.1171 -0.2681
10132SOL    HW130974   6.777   2.919   5.105 -0.1954  2.2495  0.3090
10132SOL    HW230975   6.802   2.903   5.253  0.9416 -0.6045 -0.1296
10133SOL     OW30976   1.893   7.881   7.247 -0.2918 -0.1797 -0.0536
10133SOL    HW130977   1.818   7.931   7.280 -0.1662 -0.2662  0.3658
10133SOL    HW230978   1.863   7.791   7.244 -0.1203 -0.2522  0.3683
10134SOL     OW30979   5.558   2.108   7.148  0.7283  0.4537 -0.3853
10134SOL    HW130980   5.598   2.058   7.219 -0.2104 -2.2604 -1.6430
10134SOL    HW230981   5.591   2.067   7.068  0.1931  2.1390 -1.5165
10135SOL     OW30982   5.436   4.440   0.839 -0.0400 -0.6236 -0.1297
10135SOL    HW130983   5.531   4.449   0.849 -0.2633  1.0153  0.8505
10135SOL    HW230984   5.425   4.355   0.797  1.9407 -0.3071 -1.4765
10136SOL     OW30985   6.209   7.988   4.762 -0.7767 -0.3832  0.2878
10136SOL    HW130986   6.259   7.946   4.832  0.7042 -0.9992 -1.0632
10136SOL    HW230987   6.191   8.076   4.795  0.2356 -0.5201  1.2669
10137SOL     OW30988   5.123   6.752   3.894 -0.5163 -0.4086 -0.4490
10137SOL    HW130989   5.176   6.786   3.822  1.3249  1.6480  1.6690
10137SOL    HW230990   5.057   6.820   3.910 -0.0768 -0.1923  0.5661
10138SOL     OW30991   8.793   9.119   1.043  0.2477  0.1122 -0.1213
10138SOL    HW130992   8.755   9.083   1.123 -2.4920  1.5934 -0.6245
10138SOL    HW230993   8.787   9.214   1.055 -0.6488  0.3727 -2.2267
10139SOL     OW30994   8.500   4.073   4.775 -0.2886  0.5821 -0.4177
10139SOL    HW130995   8.422   4.051   4.723  0.5690 -0.2445 -1.4093
10139SOL    HW230996   8.487   4.163   4.802 -1.1264  0.7809 -1.4309
10140SOL     OW30997   5.856   5.849   5.891 -0.2654  0.0307  0.1219
10140SOL    HW130998   5.863   5.806   5.977  1.6548  1.0127  0.5160
10140SOL    HW230999   5.845   5.941   5.912  0.1918  0.2729 -0.6817
10141SOL     OW31000   2.453   7.047   2.456  0.3369 -0.3052 -0.6530
10141SOL    HW131001   2.530   7.030   2.402  0.2483 -0.5231 -0.7094
10141SOL    HW231002   2.379   7.022   2.401  0.2672 -1.0568 -0.2340
10142SOL     OW31003   4.875   0.289   1.174  0.1022  0.0167 -0.0056
10142SOL    HW131004   4.836   0.207   1.144 -0.0469 -0.1881  0.7403
10142SOL    HW231005   4.968   0.280   1.154  0.3396 -0.9622  1.3904
10143SOL     OW31006   8.253   1.535   9.224 -0.0886  0.1083  0.0251
10143SOL    HW131007   8.231   1.448   9.259  0.7357 -1.4344 -2.8713
10143SOL    HW231008   8.171   1.583   9.226 -0.7370 -0.9779  1.0775
10144SOL     OW31009   5.551   9.396   1.387  0.1376  1.1649 -0.4277
10144SOL    HW131010   5.472   9.449   1.387  0.3461  1.6549 -3.2694
10144SOL    HW231011   5.548   9.349   1.304  2.5186  0.7347 -0.3526
10145SOL     OW31012   6.266   0.378   4.959 -0.0502 -0.1909  0.6384
10145SOL    HW131013   6.269   0.463   4.916  4.3400  0.3321  1.5148
10145SOL    HW231014   6.292   0.316   4.890 -1.4674 -0.6263  0.4635
10146SOL     OW31015   1.207   4.163   3.301  0.2987 -0.1158  0.6005
10146SOL    HW131016   1.156   4.199   3.373  0.9009  0.3594  0.7900
10146SOL    HW231017   1.226   4.239   3.245  1.5184 -0.1427  0.9669
10147SOL     OW31018   6.113   1.850   5.715 -0.5072 -0.2012  0.3177
10147SOL    HW131019   6.026   1.815   5.731 -1.2765  0.9812 -1.0380
10147SOL    HW231020   6.135   1.822   5.626  0.4823 -0.4271  0.6110
10148SOL     OW31021   6.269   9.316   4.815 -0.6650 -0.0635 -0.4359
10148SOL    HW131022   6.347   9.362   4.845 -1.7695  1.0424  0.9094
10148SOL    HW231023   6.299   9.260   4.743  1.1719  1.0063 -0.5481
10149SOL     OW31024   5.385   8.640   7.871 -0.5569 -0.3203 -0.0855
10149SOL    HW131025   5.388   8.545   7.886 -1.2292 -0.1714  1.1903
10149SOL    HW231026   5.411   8.651   7.780  0.2221 -1.6763 -0.0586
10150SOL     OW31027   2.390   0.283   3.035 -0.2244 -0.3500  0.2127
10150SOL    HW131028   2.329   0.319   2.970  0.6360  1.4874  0.3608
10150SOL    HW231029   2.420   0.201   2.996 -0.4098  0.2684 -1.3088
10151SOL     OW31030   3.481   7.050   8.121  0.0682  0.0126 -0.5893
10151SOL    HW131031   3.576   7.041   8.117  0.0602 -0.2227 -0.2804
10151SOL    HW231032   3.455   7.075   8.032  0.2900 -1.1158 -0.9746
10152SOL     OW31033   8.416   6.355   4.836  0.0831  0.2123  0.0536
10152SOL    HW131034   8.354   6.340   4.765  0.1937  0.3527 -0.0767
10152SOL    HW231035   8.497   6.380   4.791 -0.5037  2.7782  0.2547
10153SOL     OW31036   0.321   1.983   1.302 -0.1274  0.2432  0.5518
10153SOL    HW131037   0.352   2.046   1.366 -0.2109 -0.2524  1.0919
10153SOL    HW231038   0.281   1.913   1.355  0.8125 -0.7271  0.0220
10154SOL     OW31039   2.166   0.929   2.501 -0.1195 -0.1585 -0.3460
10154SOL    HW131040   2.232   0.893   2.442  1.8389  1.8295  0.4755
10154SOL    HW231041   2.211   0.940   2.584 -2.0563 -0.4658  0.8060
10155SOL     OW31042   4.360   3.222   9.682 -0.5854 -0.1783  0.2308
10155SOL    HW131043   4.384   3.140   9.726 -0.7296 -1.0482 -1.2261
10155SOL    HW231044   4.426   3.233   9.614 -1.4140  0.1157 -0.5420
10156SOL     OW31045   7.717   3.566   3.539  0.1613 -0.1430  0.3031
10156SOL    HW131046   7.647   3.500   3.545  0.9879 -0.9706  1.0358
10156SOL    HW231047   7.761   3.562   3.624  1.0608  0.4223 -0.1279
10157SOL     OW31048   8.429   5.788   5.233 -0.2910 -0.1031 -0.2195
10157SOL    HW131049   8.510   5.741   5.216 -1.2936 -1.4133 -1.5976
10157SOL    HW231050   8.440   5.872   5.187  0.0377 -0.5308 -0.9329
10158SOL     OW31051   8.597   6.361   7.128  0.2235 -0.1852  0.3128
10158SOL    HW131052   8.567   6.450   7.108 -3.4826 -1.3352 -0.1180
10158SOL    HW231053   8.630   6.327   7.045  1.3302  0.6191  0.3999
10159SOL     OW31054   7.811   1.862   9.304 -0.0246  0.4857  0.0201
10159SOL    HW131055   7.788   1.861   9.397  0.4845 -2.3001  0.2053
10159SOL    HW231056   7.732   1.833   9.259  0.6886 -1.5078 -0.0445
10160SOL     OW31057   5.699   1.135   5.454  0.3164 -0.4852 -0.4858
10160SOL    HW131058   5.747   1.160   5.375  0.2987 -2.3273 -1.1414
10160SOL    HW231059   5.766   1.098   5.511  0.4229  1.3429  0.6412
10161SOL     OW31060   4.951   9.742   3.754  0.1858  0.5742 -0.2935
10161SOL    HW131061   5.015   9.671   3.745 -1.2650 -0.5763 -2.3203
10161SOL    HW231062   4.925   9.762   3.665 -0.9928  2.2559  0.3879
10162SOL     OW31063   2.216   0.359   2.866  0.1014  0.6050 -0.5257
10162SOL    HW131064   2.121   0.349   2.868  0.1127  0.5651 -0.0842
10162SOL    HW231065   2.234   0.408   2.786 -0.3410  1.1923 -0.2672
10163SOL     OW31066   4.621   4.244   5.782 -0.3487  0.2239  0.0457
10163SOL    HW131067   4.647   4.280   5.697  0.7276  1.5046  0.8743
10163SOL    HW231068   4.704   4.215   5.821 -0.5504  1.3300  1.3831
10164SOL     OW31069   9.299   2.747   1.064  0.0649  0.0436  0.0393
10164SOL    HW131070   9.269   2.687   1.133  0.9186 -0.8359 -0.3185
10164SOL    HW231071   9.350   2.813   1.110 -0.2823  0.0810  0.3717
10165SOL     OW31072   3.341  -0.003   4.096 -0.4276  0.0597 -0.1122
10165SOL    HW131073   3.379   0.083   4.113  1.1998 -0.6015 -0.1853
10165SOL    HW231074   3.351  -0.051   4.178  1.6313 -1.0634 -0.9434
10166SOL     OW31075   9.738   3.172   3.210 -0.4886  0.0432 -0.0704
10166SOL    HW131076   9.663   3.170   3.269 -1.3477 -1.0843 -1.1416
10166SOL    HW231077   9.807   3.126   3.256 -1.4693 -1.7669 -0.3079
10167SOL     OW31078   2.292   2.309   7.330 -0.2434  0.2281 -0.6212
10167SOL    HW131079   2.240   2.326   7.410 -0.1576 -1.1299 -0.2516
10167SOL    HW231080   2.231   2.265   7.271  0.0690  0.0117 -0.7848
10168SOL     OW31081   9.072   3.899   5.675 -0.2665  0.5538  0.0709
10168SOL    HW131082   9.072   3.816   5.629 -1.5793  0.0431  0.9403
10168SOL    HW231083   9.049   3.964   5.608 -0.1361  0.0939 -0.4179
10169SOL     OW31084   6.578   5.662   0.663  0.3337 -0.2319 -0.3928
10169SOL    HW131085   6.575   5.714   0.582  2.0310  1.3538  0.4772
10169SOL    HW231086   6.612   5.577   0.636 -2.8365 -1.1618 -1.9191
10170SOL     OW31087   4.480   2.830   4.996  0.1038  0.2848 -0.3996
10170SOL    HW131088   4.456   2.743   5.027  1.6446 -0.7028 -1.8086
10170SOL    HW231089   4.446   2.835   4.907 -1.6751  1.9329  0.3015
10171SOL     OW31090   1.388   9.089   4.322 -0.3157 -0.2560 -0.5099
10171SOL    HW131091   1.464   9.113   4.375 -0.6739  0.2416 -0.2078
10171SOL    HW231092   1.421   9.022   4.262 -0.1179 -1.4803  0.9240
10172SOL     OW31093   0.809   8.456   1.126  0.5866  0.3729  0.2176
10172SOL    HW131094   0.839   8.374   1.166 -1.8282 -0.3788  0.6873
10172SOL    HW231095   0.848   8.456   1.039  0.6302 -1.3157  0.1941
10173SOL     OW31096   4.291   1.134   4.950 -0.1271  0.1183  0.1096
10173SOL    HW131097   4.300   1.203   4.884  1.5678  1.2513  1.4412
10173SOL    HW231098   4.308   1.177   5.033  1.4684 -1.9643  0.9592
10174SOL     OW31099   7.671   8.121   1.908 -0.1521 -0.1279  0.2062
10174SOL    HW131100   7.728   8.105   1.832  0.0906  0.3493  0.2853
10174SOL    HW231101   7.685   8.044   1.964  1.6001  0.6667  0.9535
10175SOL     OW31102   4.763   4.325   9.776  0.0645 -0.3129 -0.0886
10175SOL    HW131103   4.667   4.324   9.779  0.0240  1.1601 -0.1072
10175SOL    HW231104   4.788   4.233   9.781 -1.3406 -0.6993  0.4049
10176SOL     OW31105   0.679   5.036   7.647  0.1797 -0.1789 -0.2447
10176SOL    HW131106   0.618   5.047   7.720 -0.5634  0.3442 -0.9381
10176SOL    HW231107   0.699   4.942   7.647 -0.6402 -0.3612 -0.0266
10177SOL     OW31108   3.079   7.405   9.621 -0.5034 -0.2310  0.1709
10177SOL    HW131109   3.169   7.396   9.650 -0.7063  0.8134  1.2087
10177SOL    HW231110   3.056   7.320   9.585  0.8902 -0.5084 -0.1133
10178SOL     OW31111   8.090   2.343   2.564  0.3031  0.3304 -0.4195
10178SOL    HW131112   8.182   2.369   2.561  0.5956 -0.5500  0.4248
10178SOL    HW231113   8.053   2.377   2.483  1.3934  0.6069 -0.8211
10179SOL     OW31114   9.212   6.174   3.553  0.4967 -0.7451  0.1247
10179SOL    HW131115   9.174   6.258   3.581  1.0767 -1.0683  2.0434
10179SOL    HW231116   9.152   6.108   3.588 -0.0406 -1.1648 -1.5118
10180SOL     OW31117   1.344   6.570   7.063 -0.1812  0.3844  0.2707
10180SOL    HW131118   1.355   6.522   7.145  1.2727  0.0321 -0.1061
10180SOL    HW231119   1.323   6.503   6.999 -0.0711  0.5039  0.1103
10181SOL     OW31120   9.633   0.134   3.999  0.5099  0.5841 -0.0870
10181SOL    HW131121   9.558   0.191   3.984  2.0543  2.9091  0.3520
10181SOL    HW231122   9.668   0.116   3.912 -0.1819  0.0374 -0.2507
10182SOL     OW31123   8.826   6.612   7.633  0.2702  0.6174 -0.0653
10182SOL    HW131124   8.772   6.534   7.616  1.6197 -0.8815  1.9802
10182SOL    HW231125   8.848   6.645   7.546 -2.0853 -0.0241 -0.9659
10183SOL     OW31126   9.389   3.804   7.509  0.6786  0.0131  0.1592
10183SOL    HW131127   9.402   3.893   7.540 -0.6866 -0.5842  2.7226
10183SOL    HW231128   9.472   3.759   7.526  1.2284  0.6549 -0.7524
10184SOL     OW31129   0.675   1.419   6.871 -0.1001 -0.6103 -0.3837
10184SOL    HW131130   0.747   1.430   6.934 -0.6273 -0.1680  0.1523
10184SOL    HW231131   0.688   1.332   6.835 -0.3342 -1.2534  1.0292
10185SOL     OW31132   6.129   4.251   5.200  0.1508  0.7675 -0.4097
10185SOL    HW131133   6.188   4.178   5.214  0.2117  1.0085  0.7199
10185SOL    HW231134   6.044   4.220   5.230  0.2368  1.2451  0.3512
10186SOL     OW31135   5.120   6.640   5.916 -0.3234  0.3877  0.0502
10186SOL    HW131136   5.172   6.646   5.836  1.8874 -0.7436  1.3169
10186SOL    HW231137   5.073   6.557   5.907 -1.1246  0.9021 -0.6325
10187SOL     OW31138   2.971   0.571   4.118 -0.0175 -0.3907 -0.0541
10187SOL    HW131139   2.967   0.480   4.088 -0.0769 -0.5036  0.3002
10187SOL    HW231140   3.055   0.578   4.162  2.5296  1.1002 -4.5598
10188SOL     OW31141   4.518   3.768   0.233  0.0868 -0.0283 -0.3727
10188SOL    HW131142   4.604   3.775   0.273 -0.4672 -1.4030  1.2052
10188SOL    HW231143   4.513   3.678   0.202 -1.1598 -0.3260  0.5875
10189SOL     OW31144   1.941   1.985   6.201  0.3341 -0.4138  0.3737
10189SOL    HW131145   1.997   2.062   6.194 -0.0626 -0.1968 -0.6081
10189SOL    HW231146   1.921   1.978   6.295 -0.8434  1.5803  0.3373
10190SOL     OW31147   7.140   2.471   9.334  0.1035  0.2775 -0.4113
10190SOL    HW131148   7.075   2.533   9.367  0.9711  0.3031  1.3638
10190SOL    HW231149   7.204   2.526   9.288 -0.7875  0.3135 -1.6482
10191SOL     OW31150   0.979   5.847   9.926 -0.2094  0.2222  0.2163
10191SOL    HW131151   0.913   5.915   9.937 -1.7330 -0.7568 -2.0709
10191SOL    HW231152   1.041   5.883   9.863 -0.9445 -0.3915 -0.8953
10192SOL     OW31153   2.462   1.102   2.782 -0.3291  0.0471 -0.6195
10192SOL    HW131154   2.463   1.013   2.816  0.1897  0.2739 -0.0059
10192SOL    HW231155   2.379   1.110   2.735  0.5822 -1.4580 -2.5978
10193SOL     OW31156   5.297   9.554   2.325 -0.2750 -0.1633 -0.3914
10193SOL    HW131157   5.300   9.634   2.378  0.9357 -0.7279  0.4442
10193SOL    HW231158   5.263   9.583   2.241  2.1291  1.6988 -0.8448
10194SOL     OW31159   5.546   8.416   2.621  0.3497 -0.4142 -0.2856
10194SOL    HW131160   5.599   8.481   2.574  1.6929 -0.2242  1.3894
10194SOL    HW231161   5.575   8.331   2.585  0.4202 -0.2080 -0.7178
10195SOL     OW31162   1.031   1.616   9.305  0.0402  0.2200 -0.0664
10195SOL    HW131163   0.972   1.653   9.239  0.6905  2.1686  0.3720
10195SOL    HW231164   1.104   1.580   9.255  0.5974  1.8069 -0.4591
10196SOL     OW31165   0.361   4.367   8.121 -0.4848  0.0003  0.1799
10196SOL    HW131166   0.279   4.396   8.160 -1.1356  0.6094 -1.5495
10196SOL    HW231167   0.386   4.438   8.062  0.1355 -1.1303 -0.9649
10197SOL     OW31168   2.047   3.814   2.901  0.1029  0.0352  0.6668
10197SOL    HW131169   2.018   3.759   2.829 -0.3085 -0.8065  1.4550
10197SOL    HW231170   2.140   3.796   2.909  0.1240  0.0351  0.4376
10198SOL     OW31171   7.207   5.850   9.482  0.7051 -0.8500 -0.3856
10198SOL    HW131172   7.250   5.775   9.442  1.8945 -0.5137  0.2049
10198SOL    HW231173   7.238   5.925   9.431  1.4632 -0.5259  0.5123
10199SOL     OW31174   6.395   6.426   4.176 -0.0467 -0.1393 -0.0870
10199SOL    HW131175   6.330   6.381   4.122 -0.4657  1.1005 -0.6541
10199SOL    HW231176   6.404   6.371   4.253 -1.1049 -0.8041 -0.4136
10200SOL     OW31177   4.647   5.201   6.072 -0.3154  0.2663 -0.2352
10200SOL    HW131178   4.630   5.123   6.019  0.4981  0.5515 -0.9600
10200SOL    HW231179   4.639   5.274   6.010 -0.3330  0.6896  0.2608
10201SOL     OW31180   4.385   7.098   2.167 -0.4784  0.1668 -0.7761
10201SOL    HW131181   4.446   7.089   2.094 -0.8527  0.6494 -1.1594
10201SOL    HW231182   4.372   7.192   2.175 -0.2116  0.1355  0.1119
10202SOL     OW31183   0.465   2.432   1.473 -0.0632  0.4570 -0.1724
10202SOL    HW131184   0.446   2.461   1.562 -3.0648  0.0184 -0.5722
10202SOL    HW231185   0.403   2.480   1.418  0.1185 -1.0082 -1.7368
10203SOL     OW31186   3.496   2.966   2.082  0.0527 -0.1774  0.3730
10203SOL    HW131187   3.476   3.034   2.147  0.7711 -0.0793  0.5008
10203SOL    HW231188   3.518   2.890   2.135 -0.1328 -0.3272  0.2334
10204SOL     OW31189   4.748   5.148   5.607  0.2631  0.1953  0.1529
10204SOL    HW131190   4.773   5.234   5.574 -0.8469 -0.5321 -2.8616
10204SOL    HW231191   4.655   5.157   5.629  0.5257  0.1467  1.3438
10205SOL     OW31192   4.399   8.791   1.834  0.0537 -0.5302  0.0905
10205SOL    HW131193   4.405   8.823   1.925 -1.6728  1.3201 -0.3842
10205SOL    HW231194   4.398   8.870   1.781  2.9443 -1.5764 -1.7925
10206SOL     OW31195   6.501   2.445   7.277  0.7017  0.6844 -0.0446
10206SOL    HW131196   6.529   2.422   7.366  1.1158  0.3486 -0.2578
10206SOL    HW231197   6.407   2.428   7.276  0.6945  0.6965  0.3311
10207SOL     OW31198   2.411   9.889   4.621  0.3693 -0.1909 -0.0513
10207SOL    HW131199   2.467   9.967   4.618 -0.5480  0.4501 -2.9184
10207SOL    HW231200   2.330   9.915   4.578 -1.2816 -1.8085  1.8691
10208SOL     OW31201   2.174   2.608   7.962  0.9504 -0.2903 -0.8010
10208SOL    HW131202   2.176   2.645   8.050 -0.1744  0.6778 -1.1615
10208SOL    HW231203   2.266   2.606   7.935  1.1968  0.6445 -0.0878
10209SOL     OW31204   7.267   2.037   5.627 -0.1882 -0.0837  0.1957
10209SOL    HW131205   7.192   2.046   5.568  1.4436  1.3982 -1.8360
10209SOL    HW231206   7.310   1.956   5.598  1.1327  1.1222 -1.4180
10210SOL     OW31207   7.938   1.209   4.587 -0.7647  0.2690 -0.4222
10210SOL    HW131208   7.981   1.240   4.507  0.8102  0.2658  0.3799
10210SOL    HW231209   7.968   1.119   4.598 -1.0006  0.2494  0.1270
10211SOL     OW31210   1.618   9.690   7.139  0.9638 -0.1039 -0.0780
10211SOL    HW131211   1.550   9.712   7.202  1.3314 -0.1681  0.3427
10211SOL    HW231212   1.670   9.622   7.181  1.0862 -0.3029 -0.5350
10212SOL     OW31213   1.074   6.370   8.615  0.0424 -0.8792 -0.0194
10212SOL    HW131214   1.166   6.348   8.603  0.1167 -0.6009  0.0332
10212SOL    HW231215   1.043   6.394   8.527 -0.1800 -1.7172 -0.1750
10213SOL     OW31216   9.303   1.562   0.138  0.0566 -0.4931  0.7911
10213SOL    HW131217   9.342   1.498   0.079 -2.5133 -1.7805  0.3260
10213SOL    HW231218   9.323   1.530   0.226  1.8276  0.1002  0.6361
10214SOL     OW31219   4.395   6.043   8.381 -0.0963  0.2360 -0.5460
10214SOL    HW131220   4.442   6.080   8.306  2.5693 -1.0471  0.3520
10214SOL    HW231221   4.406   5.949   8.372  3.0872  0.0601  2.9387
10215SOL     OW31222   2.561   8.203   2.938 -0.0175  0.3091 -0.1527
10215SOL    HW131223   2.599   8.118   2.917  0.6383  0.5447  0.0262
10215SOL    HW231224   2.616   8.266   2.890  1.4335  0.8531  2.0541
10216SOL     OW31225   3.771   3.722   1.266  0.0260 -0.6359 -0.4069
10216SOL    HW131226   3.814   3.799   1.228  0.6325  0.2189  1.8606
10216SOL    HW231227   3.831   3.650   1.247  0.5885 -0.1299 -0.5866
10217SOL     OW31228   0.936   5.317   6.245 -0.0472 -0.2965 -0.1875
10217SOL    HW131229   0.908   5.386   6.306 -1.4155  0.4934 -1.6088
10217SOL    HW231230   0.978   5.365   6.174 -1.6533 -0.7864 -1.5528
10218SOL     OW31231   5.537  -0.001   2.301 -0.1554  0.5914 -0.2795
10218SOL    HW131232   5.624   0.021   2.269  0.2225  0.4116  0.5895
10218SOL    HW231233   5.502   0.080   2.337  0.3744  0.2936  0.9669
10219SOL     OW31234   7.771   7.487   2.751  0.0343 -0.6282  0.2190
10219SOL    HW131235   7.763   7.532   2.835 -0.4346  0.2079 -0.2621
10219SOL    HW231236   7.729   7.402   2.765  2.6235 -1.7783  1.7162
10220SOL     OW31237   7.993   3.154   9.112  0.1956  0.7118 -0.1398
10220SOL    HW131238   8.081   3.175   9.081  1.3306 -0.5989  1.9915
10220SOL    HW231239   8.001   3.066   9.149 -1.8384  0.8625  0.7770
10221SOL     OW31240   3.076   9.431   2.883 -0.3179 -0.3918 -0.3246
10221SOL    HW131241   3.147   9.370   2.859  1.5970  1.0821  1.2541
10221SOL    HW231242   3.068   9.423   2.978  0.0930  1.8592 -0.0480
10222SOL     OW31243   1.672   7.804   4.903  0.1722 -0.3852 -0.4924
10222SOL    HW131244   1.699   7.712   4.908 -1.0142 -0.7711 -0.8151
10222SOL    HW231245   1.576   7.800   4.900  0.1240  0.8525 -0.8113
10223SOL     OW31246   9.477   7.015   9.877 -0.8203  0.4843  0.0684
10223SOL    HW131247   9.543   7.084   9.886 -0.2151  0.1314 -1.2368
10223SOL    HW231248   9.407   7.054   9.825 -2.1227  1.1365  2.2056
10224SOL     OW31249   6.891   4.701   6.181  0.3332 -0.3999 -0.1171
10224SOL    HW131250   6.839   4.744   6.114  0.9409  1.4199  0.5126
10224SOL    HW231251   6.902   4.767   6.250  1.8353 -1.3536  0.6391
10225SOL     OW31252   1.483   8.156   0.075 -0.4400 -0.7362 -0.5794
10225SOL    HW131253   1.555   8.094   0.092  0.0171 -0.0883 -0.1115
10225SOL    HW231254   1.493   8.179  -0.017  0.8243  0.4077 -0.1904
10226SOL     OW31255   9.977   7.105   6.731 -0.0679 -0.1904  0.1878
10226SOL    HW131256  10.024   7.109   6.648 -0.2813  3.5141  0.0504
10226SOL    HW231257   9.886   7.126   6.708 -0.3506 -0.2130  1.2236
10227SOL     OW31258   9.747   5.932   0.153  0.2875  0.8075  0.1452
10227SOL    HW131259   9.795   5.925   0.236 -0.1047 -2.9039  0.2462
10227SOL    HW231260   9.784   5.862   0.099 -1.2379  1.4651 -1.8531
10228SOL     OW31261   9.667   7.969   1.443 -0.1196  0.2746  0.0078
10228SOL    HW131262   9.617   7.949   1.364  0.2376 -0.6343 -0.0029
10228SOL    HW231263   9.609   7.946   1.516 -0.3955  0.9785  0.0161
10229SOL     OW31264   8.665   9.600   7.920  0.3558 -0.0087  0.6082
10229SOL    HW131265   8.756   9.607   7.892 -0.6989 -0.4644 -3.4832
10229SOL    HW231266   8.628   9.531   7.866 -3.0782  2.0894 -0.0292
10230SOL     OW31267   8.694   4.804   2.428  0.3848  0.3757  0.3850
10230SOL    HW131268   8.780   4.767   2.448  0.0789 -0.5131  0.1336
10230SOL    HW231269   8.636   4.727   2.423 -0.4713  0.9718  0.8066
10231SOL     OW31270   2.108   5.291   0.523 -0.9030 -0.5639  0.7593
10231SOL    HW131271   2.126   5.321   0.612  0.9004 -0.5108  0.4256
10231SOL    HW231272   2.160   5.349   0.467  0.0065 -2.1497 -0.1221
10232SOL     OW31273   6.324   2.169   4.281  0.0032 -0.3997 -0.4903
10232SOL    HW131274   6.387   2.240   4.266 -0.9770  1.1202  2.0050
10232SOL    HW231275   6.338   2.145   4.372 -1.4894 -1.6176 -0.5555
10233SOL     OW31276   1.127   5.940   0.451  0.3157  0.3964  0.4266
10233SOL    HW131277   1.178   5.867   0.417 -1.9977 -0.5116 -1.3818
10233SOL    HW231278   1.042   5.902   0.474 -1.0347  2.4803 -0.7342
10234SOL     OW31279   0.117   6.138   6.926 -0.2573  0.4801 -0.0033
10234SOL    HW131280   0.134   6.049   6.894 -0.9429  1.0482 -2.1302
10234SOL    HW231281   0.201   6.182   6.920 -0.2094  0.3556 -0.2599
10235SOL     OW31282   7.109   0.006   1.501 -0.2217  0.0431  0.0894
10235SOL    HW131283   7.178  -0.041   1.549 -0.2100 -0.8486 -0.7728
10235SOL    HW231284   7.069   0.062   1.567  0.2951 -0.5944  0.9745
10236SOL     OW31285   8.171   0.343   0.067 -0.8315 -0.2672  0.3049
10236SOL    HW131286   8.118   0.350  -0.012 -0.3114  1.2073  0.0606
10236SOL    HW231287   8.164   0.428   0.108  2.5065  0.5406 -0.5155
10237SOL     OW31288   1.838   4.204   4.103 -0.6516 -0.1228 -0.4126
10237SOL    HW131289   1.932   4.218   4.117 -0.5492 -1.2346  0.1415
10237SOL    HW231290   1.800   4.209   4.191 -1.1895  0.7560 -0.6823
10238SOL     OW31291   0.099   3.051   9.161  0.2423  0.8381  0.1589
10238SOL    HW131292   0.182   3.021   9.124 -0.3986 -0.2743 -0.4376
10238SOL    HW231293   0.081   3.134   9.116  0.9070  0.9626  0.1204
10239SOL     OW31294   4.874   5.390   8.055 -0.6247  0.1778  0.2949
10239SOL    HW131295   4.813   5.317   8.066 -0.7614  0.1132 -0.8457
10239SOL    HW231296   4.907   5.381   7.966 -2.0612  2.5854 -0.5846
10240SOL     OW31297   4.045   0.767   3.024  0.6638  0.6596  0.3537
10240SOL    HW131298   4.102   0.707   2.977 -1.0491 -0.0058 -0.9469
10240SOL    HW231299   4.064   0.853   2.987  0.6031  0.3945 -0.2931
10241SOL     OW31300   2.662   4.446   3.785  0.1468 -0.1510 -0.2143
10241SOL    HW131301   2.587   4.451   3.725 -0.1861 -0.4261  0.1736
10241SOL    HW231302   2.679   4.537   3.810 -0.9418 -0.1946  0.7690
10242SOL     OW31303   0.244   2.738   7.446 -0.2013 -0.2049 -0.2457
10242SOL    HW131304   0.181   2.797   7.486  1.3993  0.7859  0.9344
10242SOL    HW231305   0.214   2.651   7.470 -0.3027  0.3027  1.5804
10243SOL     OW31306   2.298   2.162   7.911  0.6773  0.6264  0.3949
10243SOL    HW131307   2.352   2.238   7.934  1.8220 -0.1298  0.2762
10243SOL    HW231308   2.324   2.141   7.821 -0.3969  0.7316  0.0528
10244SOL     OW31309   6.731   8.945   2.952 -0.1433  0.3951 -0.4093
10244SOL    HW131310   6.669   8.873   2.937  1.9065 -2.2194  2.5515
10244SOL    HW231311   6.713   8.974   3.041  1.0301  1.5698 -0.5309
10245SOL     OW31312   4.229   8.257   0.972  0.0645  0.0052  0.0908
10245SOL    HW131313   4.153   8.314   0.985 -0.4191 -1.0932  2.8467
10245SOL    HW231314   4.196   8.183   0.922 -0.1965  0.3808 -0.3021
10246SOL     OW31315   4.041   3.495   9.035  0.1265 -0.9252 -0.4311
10246SOL    HW131316   3.963   3.452   9.002  1.1162 -1.6808 -1.9052
10246SOL    HW231317   4.053   3.571   8.979  0.3950 -0.7608 -0.1553
10247SOL     OW31318   3.072   2.614   9.636  0.3345 -0.6623 -0.0576
10247SOL    HW131319   2.987   2.627   9.678  1.3477  1.7242  1.4278
10247SOL    HW231320   3.051   2.606   9.543 -1.5636 -0.8719  0.3443
10248SOL     OW31321   3.259   9.454   8.909 -0.5122 -0.3670 -0.1360
10248SOL    HW131322   3.314   9.379   8.933  0.9861  1.4610  2.6665
10248SOL    HW231323   3.195   9.417   8.848 -1.0446 -4.3590  2.4226
10249SOL     OW31324   5.795   8.032   3.342 -0.2579  0.0162 -0.5504
10249SOL    HW131325   5.738   7.955   3.339  0.7575 -0.7287 -2.0492
10249SOL    HW231326   5.883   7.996   3.354  0.0838  1.0533  0.2612
10250SOL     OW31327   8.040   7.579   9.787 -0.1435 -0.3634  0.0653
10250SOL    HW131328   8.051   7.659   9.735  2.0456 -1.3074 -1.0484
10250SOL    HW231329   7.945   7.569   9.796 -0.4985  2.6961  0.8528
10251SOL     OW31330   3.720   5.448   7.840  0.2164 -0.1314  0.1869
10251SOL    HW131331   3.703   5.416   7.751 -0.4399 -0.6129  0.4838
10251SOL    HW231332   3.637   5.438   7.886  0.6953 -0.3958  1.0204
10252SOL     OW31333   7.537   6.670   7.512  0.2271  0.1229 -0.5671
10252SOL    HW131334   7.552   6.763   7.495  0.5885  0.4008  1.0554
10252SOL    HW231335   7.597   6.650   7.584 -1.8236 -0.6460  1.0088
10253SOL     OW31336   2.883   1.557   7.926 -0.0732 -0.3771  0.2176
10253SOL    HW131337   2.851   1.628   7.870 -0.8920 -0.1314  0.9629
10253SOL    HW231338   2.969   1.586   7.956 -0.0780 -0.0395 -0.0923
10254SOL     OW31339   6.244   4.626   6.068  0.6528 -0.1518  0.0679
10254SOL    HW131340   6.247   4.688   6.141  1.0301 -0.3310  0.2071
10254SOL    HW231341   6.202   4.674   5.997  2.7928  0.9834 -0.5073
10255SOL     OW31342   7.003   3.663   7.537 -0.2178 -0.2451  0.3915
10255SOL    HW131343   6.960   3.684   7.454  0.2256  0.5558  0.3542
10255SOL    HW231344   6.945   3.701   7.603 -0.0310  0.0517  0.3874
10256SOL     OW31345   6.419   8.131   4.276  0.1630 -0.6182  0.1422
10256SOL    HW131346   6.496   8.141   4.332  0.0936  1.1603 -0.0092
10256SOL    HW231347   6.345   8.135   4.336  0.0386  2.2907 -0.0371
10257SOL     OW31348   8.609   3.155   4.435 -0.6850 -0.0722  0.2896
10257SOL    HW131349   8.655   3.078   4.401  0.0053  0.7987 -0.7977
10257SOL    HW231350   8.659   3.230   4.403 -0.2370  0.8376  2.9021
10258SOL     OW31351   9.822   3.482   9.062 -0.7629 -0.2012 -0.5121
10258SOL    HW131352   9.818   3.566   9.107  1.2212 -1.0347  1.4371
10258SOL    HW231353   9.736   3.443   9.075 -0.8391  0.4108  0.9942
10259SOL     OW31354   5.866   2.602   0.021  0.1553  0.1315 -0.1651
10259SOL    HW131355   5.880   2.661   0.095 -1.3085 -0.5033  0.6546
10259SOL    HW231356   5.909   2.521   0.046 -1.4850 -0.5434  0.6605
10260SOL     OW31357   5.401   3.882   0.017  0.6020 -0.6889  0.1545
10260SOL    HW131358   5.433   3.901   0.105  0.6016 -0.5078  0.1166
10260SOL    HW231359   5.338   3.952  -0.001  0.1005 -1.0971  0.2700
10261SOL     OW31360   2.573   3.977   4.068 -0.3206  0.0719 -0.0433
10261SOL    HW131361   2.635   3.918   4.112  0.6944 -0.5060 -2.1156
10261SOL    HW231362   2.493   3.925   4.059 -0.2514 -0.1065  0.3467
10262SOL     OW31363   4.073   8.505   1.003  0.3051  0.3784 -0.5400
10262SOL    HW131364   4.113   8.537   1.084  1.3274 -1.7794 -0.1483
10262SOL    HW231365   3.984   8.480   1.029  1.5333 -3.2410  0.8013
10263SOL     OW31366   3.757   8.057   8.077 -0.6379  0.0134  0.3195
10263SOL    HW131367   3.786   8.044   7.987  0.3165 -1.9006  0.8539
10263SOL    HW231368   3.712   7.976   8.100 -3.3396  1.4888  0.7255
10264SOL     OW31369   6.363   8.099   0.189  0.6826  0.4360 -0.0908
10264SOL    HW131370   6.290   8.135   0.240  0.4942 -0.8116  0.5477
10264SOL    HW231371   6.401   8.031   0.245 -0.2213 -1.7794 -2.0120
10265SOL     OW31372   8.958   3.931   8.322  0.6016 -0.1900  0.7096
10265SOL    HW131373   8.925   3.875   8.393 -0.1212 -2.3708 -1.1966
10265SOL    HW231374   8.880   3.951   8.270  0.8156  2.8692  1.4120
10266SOL     OW31375   9.127   7.964   5.546 -0.0601  0.6385 -1.0460
10266SOL    HW131376   9.114   7.885   5.598 -0.5734  0.3638 -1.5730
10266SOL    HW231377   9.039   7.987   5.516  0.1183  1.2806 -1.0805
10267SOL     OW31378   0.039   9.830   3.170  0.0589 -0.6877 -0.5529
10267SOL    HW131379  -0.028   9.879   3.122 -1.0348  1.1382  2.5363
10267SOL    HW231380   0.011   9.739   3.165 -2.6571  0.0073  0.5357
10268SOL     OW31381   4.531   8.455   0.655  0.1873 -0.0310  0.1658
10268SOL    HW131382   4.484   8.371   0.658 -0.1850  0.1840  0.3852
10268SOL    HW231383   4.541   8.480   0.746  0.7686 -0.0893  0.1237
10269SOL     OW31384   7.555   0.580   4.559 -0.2924  0.1059 -0.3191
10269SOL    HW131385   7.548   0.648   4.492 -1.8315 -0.3114 -0.6321
10269SOL    HW231386   7.475   0.590   4.611 -0.4010 -1.2481 -0.1961
10270SOL     OW31387   8.286   4.943   9.118  0.3143 -0.2609  0.1991
10270SOL    HW131388   8.263   4.997   9.194  1.0668  1.4767 -0.7562
10270SOL    HW231389   8.348   4.879   9.152 -1.3151 -1.2088  1.5573
10271SOL     OW31390   8.065   0.466   2.546  0.6170  0.5029 -0.1899
10271SOL    HW131391   7.976   0.462   2.582 -0.0603  0.5110 -1.7756
10271SOL    HW231392   8.068   0.550   2.500  1.4410  0.4803 -0.1885
10272SOL     OW31393   5.047   2.337   9.435  0.1503  0.3541 -0.6574
10272SOL    HW131394   5.103   2.266   9.405 -0.8047 -0.7348  0.0729
10272SOL    HW231395   5.090   2.371   9.514 -1.3594 -2.0788  1.3386
10273SOL     OW31396   8.643   9.779   5.106  0.3484  0.1791 -0.0117
10273SOL    HW131397   8.556   9.801   5.137  0.6416  0.7134  0.4484
10273SOL    HW231398   8.640   9.798   5.012  0.5518  2.1704  0.3304
10274SOL     OW31399   5.846   5.499   4.822 -0.0760  0.6951 -0.1331
10274SOL    HW131400   5.939   5.497   4.802 -0.0977  0.9316 -0.2615
10274SOL    HW231401   5.803   5.468   4.742  0.0070 -2.0740  0.7954
10275SOL     OW31402   8.140   4.966   7.893  0.0663  0.3074  0.1049
10275SOL    HW131403   8.107   4.940   7.980 -0.4730 -0.7748 -0.3987
10275SOL    HW231404   8.158   5.059   7.901 -0.6624  0.3786  1.1764
10276SOL     OW31405   4.200   6.767   4.356  0.0204  0.4519 -0.0725
10276SOL    HW131406   4.247   6.768   4.273  2.2453 -2.9465  0.9333
10276SOL    HW231407   4.110   6.788   4.333  0.6603  0.1903 -3.2600
10277SOL     OW31408   9.287   6.153   2.601 -0.1779  0.3837 -0.1637
10277SOL    HW131409   9.227   6.186   2.668 -1.1848 -0.6256 -0.5344
10277SOL    HW231410   9.355   6.106   2.650 -2.6911 -3.2950  0.1523
10278SOL     OW31411   8.504   5.697   6.341  0.2478 -0.5124  0.2750
10278SOL    HW131412   8.442   5.625   6.331  1.8194 -1.9122  0.2365
10278SOL    HW231413   8.489   5.729   6.431  1.1504 -2.5110  1.1949
10279SOL     OW31414   0.767   6.895   2.256 -0.1388  0.5432 -0.7124
10279SOL    HW131415   0.845   6.932   2.296 -0.5501 -0.6073  1.2795
10279SOL    HW231416   0.786   6.802   2.247 -2.1560 -0.3239  2.3840
10280SOL     OW31417   9.451   8.422   3.194 -0.5181 -0.0894 -0.0368
10280SOL    HW131418   9.455   8.482   3.119 -0.7743 -0.1001 -0.0604
10280SOL    HW231419   9.482   8.338   3.160 -0.8778 -0.1593 -0.1966
10281SOL     OW31420   2.904   1.145   5.089 -0.1944  0.6908  0.3261
10281SOL    HW131421   2.990   1.137   5.049  1.1632 -2.1441  3.3585
10281SOL    HW231422   2.869   1.056   5.092 -3.1823  1.7010 -0.5359
10282SOL     OW31423   9.249   1.255   6.051 -0.4248 -0.0144  0.1742
10282SOL    HW131424   9.315   1.261   5.982  0.2562 -2.7853  0.4658
10282SOL    HW231425   9.270   1.175   6.098 -2.8791  0.0091  1.5031
10283SOL     OW31426   1.545   6.301   6.270  0.1020  0.1410 -0.0379
10283SOL    HW131427   1.612   6.350   6.318 -1.5110  1.9896  0.4605
10283SOL    HW231428   1.530   6.352   6.190  0.2091 -0.9815 -0.8045
10284SOL     OW31429   3.935   0.381   5.166  0.0726  0.4951  0.3138
10284SOL    HW131430   3.898   0.307   5.213  0.6273 -0.8226 -1.2245
10284SOL    HW231431   3.954   0.347   5.079  1.6157  2.0708 -0.0272
10285SOL     OW31432   6.442   8.695   9.854 -0.5074  0.0572 -0.7010
10285SOL    HW131433   6.471   8.704   9.763 -1.7060 -0.0404 -1.1127
10285SOL    HW231434   6.473   8.774   9.897 -0.7717  0.5665 -1.4360
10286SOL     OW31435   8.343   6.618   2.700  0.6471 -0.7131 -0.1427
10286SOL    HW131436   8.291   6.643   2.624  1.3802 -0.1410 -0.4742
10286SOL    HW231437   8.280   6.608   2.771  0.2713  2.0931  0.0319
10287SOL     OW31438   7.789   3.264   3.487  0.3662 -0.1457 -0.3561
10287SOL    HW131439   7.825   3.186   3.528  0.8311  1.1201  1.7777
10287SOL    HW231440   7.862   3.326   3.484 -0.0599  0.3459 -1.7514
10288SOL     OW31441   1.237   2.186   8.532  0.0792 -0.3520  0.3641
10288SOL    HW131442   1.239   2.170   8.626  1.4199 -0.2821  0.3574
10288SOL    HW231443   1.240   2.099   8.493  0.7533 -0.3341  0.3761
10289SOL     OW31444   4.164   8.507   5.880 -0.2713  0.6207  0.4036
10289SOL    HW131445   4.204   8.471   5.801 -1.8974 -0.0517 -0.1653
10289SOL    HW231446   4.203   8.458   5.951  1.2010  1.2174  0.0437
10290SOL     OW31447   7.031   5.226   6.755  0.4709 -0.2560 -0.5446
10290SOL    HW131448   6.953   5.274   6.726 -0.9027 -1.9574  0.1270
10290SOL    HW231449   7.049   5.260   6.843 -1.2945 -1.7834  0.4720
10291SOL     OW31450   7.459   4.500   8.638  0.1948 -0.6685 -0.0772
10291SOL    HW131451   7.416   4.556   8.573  1.4954  1.0460  0.4634
10291SOL    HW231452   7.489   4.425   8.588  0.4561  0.2245 -1.3101
10292SOL     OW31453   1.065   7.119   6.605  0.1725 -0.6294 -0.4833
10292SOL    HW131454   1.154   7.087   6.587 -0.0054 -2.2341  1.2015
10292SOL    HW231455   1.055   7.194   6.547  2.4371 -0.7231 -1.1085
10293SOL     OW31456   9.678   1.055   6.290 -0.2792 -0.4315 -0.2992
10293SOL    HW131457   9.692   1.130   6.232  1.5851  0.3084  1.0280
10293SOL    HW231458   9.583   1.052   6.302 -0.3864  1.9346 -0.1330
10294SOL     OW31459   7.798   9.691   7.000 -0.0487  0.4398  0.4021
10294SOL    HW131460   7.740   9.678   7.075  0.2542 -0.9642  0.4326
10294SOL    HW231461   7.838   9.776   7.015 -1.2626  0.9373  0.9510
10295SOL     OW31462   5.112   7.110   0.637  0.6788 -0.7909  0.1189
10295SOL    HW131463   5.158   7.064   0.567  0.4734 -2.7421  1.1791
10295SOL    HW231464   5.040   7.155   0.593  0.9645 -1.3918 -1.0007
10296SOL     OW31465   7.069   5.150   4.047 -0.2681 -0.2940 -0.1941
10296SOL    HW131466   6.995   5.186   3.997 -0.2215 -0.6401 -0.5146
10296SOL    HW231467   7.040   5.063   4.074 -0.0352 -0.3720 -0.1924
10297SOL     OW31468   5.938   9.413   6.013  0.2941  0.4135 -0.2249
10297SOL    HW131469   6.007   9.466   5.973 -0.3293  1.2867 -0.1599
10297SOL    HW231470   5.972   9.391   6.099  2.2901 -2.6865 -1.6066
10298SOL     OW31471   2.056   1.849   2.919 -0.2197  0.6020  0.3177
10298SOL    HW131472   2.090   1.926   2.872 -3.6402  1.2081 -1.4532
10298SOL    HW231473   2.005   1.802   2.854 -1.1791 -1.2360  2.2837
10299SOL     OW31474   9.847   3.516   8.559  0.2833 -0.2014 -0.0066
10299SOL    HW131475   9.876   3.426   8.576  1.6218  0.1400 -0.3312
10299SOL    HW231476   9.921   3.570   8.588  0.6105  0.6553 -2.2353
10300SOL     OW31477   8.661   3.668   0.151  0.4071  0.1113  0.1991
10300SOL    HW131478   8.619   3.608   0.213  3.2245 -1.7261  0.5424
10300SOL    HW231479   8.593   3.731   0.128 -2.2845 -2.2598  1.0835
10301SOL     OW31480   3.912   4.656   6.102 -0.4021 -0.3630 -0.0095
10301SOL    HW131481   3.954   4.573   6.125 -1.7093 -1.1433 -0.3409
10301SOL    HW231482   3.856   4.676   6.177 -0.1020  0.2243  0.0637
10302SOL     OW31483   4.910   0.786   1.590 -0.1292 -0.7540  0.4403
10302SOL    HW131484   4.898   0.691   1.593  1.0592 -0.8899  1.6222
10302SOL    HW231485   4.907   0.806   1.496  0.2856 -2.0596  0.1118
10303SOL     OW31486   3.512   5.465   6.087 -0.4391  0.0507  0.2485
10303SOL    HW131487   3.532   5.543   6.035 -1.2116  0.5939  0.7470
10303SOL    HW231488   3.580   5.462   6.154  0.3627 -0.4614 -0.5540
10304SOL     OW31489   1.829   6.484   5.015  0.0402  0.1659  0.2082
10304SOL    HW131490   1.836   6.571   5.054  0.8476  0.5191 -0.6966
10304SOL    HW231491   1.905   6.437   5.048 -0.4011 -0.2069  0.7033
10305SOL     OW31492   2.031   4.712   9.534 -0.7919 -0.5220  0.3434
10305SOL    HW131493   1.961   4.727   9.598 -1.0452 -0.2142 -0.0047
10305SOL    HW231494   2.111   4.716   9.586 -1.0726 -1.7602  0.8976
10306SOL     OW31495   3.152   1.541   7.736 -0.2283 -0.1471  0.0869
10306SOL    HW131496   3.145   1.447   7.754  0.2261 -0.2792 -0.4116
10306SOL    HW231497   3.182   1.546   7.645  0.9827  0.4550  0.4973
10307SOL     OW31498   4.929   5.696   9.622 -0.2711  0.4012 -0.0219
10307SOL    HW131499   4.855   5.716   9.678  1.1963  3.9226  0.9234
10307SOL    HW231500   4.951   5.779   9.580  1.7892 -1.0007 -1.9477
10308SOL     OW31501   4.094   6.306   3.055 -0.8750 -0.2885  0.1919
10308SOL    HW131502   4.068   6.227   3.007 -0.7233 -0.6129  0.6392
10308SOL    HW231503   4.022   6.323   3.114 -0.8755 -0.1310  0.1461
10309SOL     OW31504   9.955   7.152   4.818  0.5539 -0.2373 -0.6620
10309SOL    HW131505   9.864   7.127   4.807  0.1913  0.2919  0.8149
10309SOL    HW231506   9.977   7.202   4.740 -1.1499  1.6003 -0.0503
10310SOL     OW31507   2.719   3.628   9.732 -0.0749 -0.5585 -0.3858
10310SOL    HW131508   2.799   3.646   9.683  0.9249 -0.0811  1.3367
10310SOL    HW231509   2.697   3.710   9.775 -0.2202 -1.2353  0.9068
10311SOL     OW31510   5.582   7.980   6.625 -0.1461  0.6254  0.4901
10311SOL    HW131511   5.529   8.006   6.701 -1.3107  0.3251 -0.1909
10311SOL    HW231512   5.551   8.037   6.554  1.7742  1.7467  0.4962
10312SOL     OW31513   6.107   8.362   7.065 -0.1701 -0.3321  0.0158
10312SOL    HW131514   6.173   8.429   7.052  0.5141 -0.7405  1.2317
10312SOL    HW231515   6.067   8.383   7.150 -0.9122 -0.6628 -0.2385
10313SOL     OW31516   6.837   1.057   7.371 -0.3248  0.0878  0.0644
10313SOL    HW131517   6.912   0.998   7.374 -1.0097 -0.7716  0.8105
10313SOL    HW231518   6.761   0.999   7.365 -1.0247  0.8863  0.9574
10314SOL     OW31519   3.886   0.172   2.723 -0.4154  0.3851  0.0651
10314SOL    HW131520   3.876   0.255   2.678  0.2181  0.6483  0.3998
10314SOL    HW231521   3.979   0.168   2.747 -0.3036 -0.6679 -0.4346
10315SOL     OW31522   8.630   5.555   4.057 -0.2893  0.1733  0.3369
10315SOL    HW131523   8.579   5.630   4.026  1.1267  1.1401  0.2784
10315SOL    HW231524   8.642   5.571   4.151 -2.9480 -1.7997  1.1362
10316SOL     OW31525   8.234   9.723   2.072  0.2077 -0.2351 -0.1667
10316SOL    HW131526   8.171   9.766   2.015 -0.1789 -0.0818  0.3661
10316SOL    HW231527   8.210   9.630   2.070 -0.9250 -0.0031  1.1094
10317SOL     OW31528   6.253   3.161   8.464 -0.3716  0.8343 -0.1358
10317SOL    HW131529   6.349   3.164   8.464 -0.3708  1.1885 -0.9866
10317SOL    HW231530   6.228   3.202   8.547  0.2358 -1.1056  1.0740
10318SOL     OW31531   8.701   2.707   9.823  0.0752 -0.0632 -0.2173
10318SOL    HW131532   8.624   2.743   9.780 -0.2605 -0.7590 -0.1933
10318SOL    HW231533   8.743   2.783   9.864 -1.7220  0.0395  1.5539
10319SOL     OW31534   5.901   9.823  10.006 -0.3800 -0.0395 -0.0250
10319SOL    HW131535   5.812   9.791   9.993 -1.1393  1.6916  0.6477
10319SOL    HW231536   5.917   9.880   9.930 -0.1175  0.1936  0.2043
10320SOL     OW31537   6.991   3.474   3.101 -0.2233  0.4505 -0.1752
10320SOL    HW131538   6.965   3.394   3.055  0.1212 -0.1353  0.6258
10320SOL    HW231539   7.077   3.495   3.066 -0.0126  0.0717  0.1067
10321SOL     OW31540   2.833   0.891   0.149 -0.2568  0.3273 -0.1349
10321SOL    HW131541   2.925   0.916   0.141 -0.5017  0.9780 -1.1749
10321SOL    HW231542   2.810   0.856   0.063 -0.8866 -0.1804  0.2320
10322SOL     OW31543   5.328   2.029   7.572  0.4750  0.5694  0.2482
10322SOL    HW131544   5.334   1.936   7.595  2.0534  0.7414  0.6125
10322SOL    HW231545   5.299   2.072   7.652 -0.2313  0.4211  0.0868
10323SOL     OW31546   1.651   4.755   8.059  0.1562 -0.4858  0.1438
10323SOL    HW131547   1.687   4.691   7.999 -0.5781 -2.3124  1.5427
10323SOL    HW231548   1.715   4.826   8.061  1.4552 -1.5970 -0.7748
10324SOL     OW31549   2.784   1.855   5.191  0.6209 -0.3536  0.2987
10324SOL    HW131550   2.795   1.770   5.234 -0.5087 -1.3334 -1.1964
10324SOL    HW231551   2.853   1.857   5.124  0.9825  0.1584  0.6815
10325SOL     OW31552   9.186   3.772   8.645  0.6428 -0.1465 -0.1243
10325SOL    HW131553   9.270   3.732   8.668  1.2319 -0.1635 -2.0988
10325SOL    HW231554   9.121   3.711   8.678  1.4561 -1.0592 -0.1472
10326SOL     OW31555   9.311   3.986   9.726 -0.0985 -0.0740  0.4349
10326SOL    HW131556   9.334   4.075   9.702  1.1163 -0.5005 -0.0902
10326SOL    HW231557   9.260   3.953   9.652  1.5739 -0.5961 -0.5320
10327SOL     OW31558   8.450   1.880   7.614 -0.1179  0.3152 -0.8127
10327SOL    HW131559   8.379   1.867   7.551 -2.0757 -0.3905  1.3482
10327SOL    HW231560   8.502   1.800   7.608 -0.6076  0.0165 -1.1683
10328SOL     OW31561   6.244   4.775   7.052  0.1947  0.0654  0.2713
10328SOL    HW131562   6.197   4.780   6.969  0.2792  0.5530  0.2499
10328SOL    HW231563   6.177   4.751   7.116 -0.0739  0.6673  0.2267
10329SOL     OW31564   5.658   9.306   8.385  0.5415  0.2764 -0.2232
10329SOL    HW131565   5.716   9.231   8.397  0.9242  0.5517 -0.3519
10329SOL    HW231566   5.619   9.292   8.298  1.3888  0.7478 -0.6927
10330SOL     OW31567   3.033   2.009   9.594  0.2511  0.0469 -0.1199
10330SOL    HW131568   2.967   1.948   9.629  2.1730 -1.6111  0.8224
10330SOL    HW231569   3.077   1.959   9.525  0.7635  0.9796 -0.4794
10331SOL     OW31570   0.508   7.135   0.301  0.0885 -0.1675  0.0415
10331SOL    HW131571   0.413   7.149   0.301  0.0455 -0.4068 -0.6722
10331SOL    HW231572   0.539   7.182   0.378 -0.4709  0.8352 -0.3228
10332SOL     OW31573   4.236   8.287   1.568 -0.1035 -0.3600 -0.1348
10332SOL    HW131574   4.244   8.262   1.476  0.3758 -2.7412  0.4851
10332SOL    HW231575   4.322   8.322   1.592 -0.2124  0.2089 -0.5695
10333SOL     OW31576   1.736   8.004   5.572 -0.4428  0.1809  0.2870
10333SOL    HW131577   1.783   7.974   5.495 -0.2340 -0.6178  0.7158
10333SOL    HW231578   1.696   8.087   5.545  0.8850  0.6854 -0.2022
10334SOL     OW31579   7.392   5.654   3.333  0.0388 -0.0774 -0.1713
10334SOL    HW131580   7.483   5.662   3.361  0.0324  0.4736 -0.2935
10334SOL    HW231581   7.394   5.670   3.239 -0.0498 -1.1036 -0.3530
10335SOL     OW31582   0.706   0.328   9.457  0.1966 -0.7531  0.6568
10335SOL    HW131583   0.639   0.321   9.525  0.2422 -2.7762  0.5247
10335SOL    HW231584   0.720   0.423   9.449 -0.1707 -0.4074  3.0852
10336SOL     OW31585   3.928   0.637   0.091 -0.0985  0.0557  0.4826
10336SOL    HW131586   3.939   0.553   0.135 -1.1076  0.2975  1.2287
10336SOL    HW231587   3.862   0.683   0.143 -0.0664  1.0369 -0.3136
10337SOL     OW31588   7.265   6.267   0.943 -0.5258  0.5661 -0.3108
10337SOL    HW131589   7.183   6.222   0.965 -0.5943  0.7233 -0.2443
10337SOL    HW231590   7.239   6.356   0.922 -0.4032  0.5395 -0.5779
10338SOL     OW31591   7.769   4.934   9.008 -0.0186 -0.6207 -0.5136
10338SOL    HW131592   7.793   4.874   8.937  1.6089 -0.4563 -0.1569
10338SOL    HW231593   7.781   5.021   8.971 -1.1501 -0.5113 -0.6451
10339SOL     OW31594   9.872   3.746   8.806 -0.1829 -0.3864 -0.4329
10339SOL    HW131595   9.950   3.703   8.841  1.0585  2.3159  0.3969
10339SOL    HW231596   9.890   3.757   8.713 -0.7350 -1.9690 -0.7662
10340SOL     OW31597   4.820   3.478   8.863  1.0124 -0.3242  0.2670
10340SOL    HW131598   4.864   3.482   8.778  3.3631  0.7695  1.4345
10340SOL    HW231599   4.728   3.494   8.843  1.5112  0.0662 -2.0581
10341SOL     OW31600   8.789   4.113   4.206 -0.1862  0.2193  0.8255
10341SOL    HW131601   8.728   4.123   4.133  0.9039  0.5909 -0.0577
10341SOL    HW231602   8.836   4.032   4.188  0.7681  0.8074  0.5712
10342SOL     OW31603   2.059   6.919   8.479 -0.9384  0.1623  0.1781
10342SOL    HW131604   2.045   6.864   8.402 -0.6160  0.2305  0.0675
10342SOL    HW231605   2.130   6.978   8.454 -1.8646  1.2366 -0.0307
10343SOL     OW31606   5.540   2.914   6.517  0.0689 -0.1608  0.4243
10343SOL    HW131607   5.449   2.915   6.488  0.2977  0.7663 -0.2956
10343SOL    HW231608   5.581   2.844   6.467 -0.4636 -1.2533  1.4764
10344SOL     OW31609   5.838   8.568   6.083 -0.1601  0.8599  0.3609
10344SOL    HW131610   5.828   8.491   6.139  1.1374  0.7462  0.4556
10344SOL    HW231611   5.930   8.567   6.056 -0.0096  2.6201  0.7087
10345SOL     OW31612   5.364   8.379   3.128  0.5023 -0.1304  0.1762
10345SOL    HW131613   5.307   8.306   3.151 -0.8109  0.4703 -0.9824
10345SOL    HW231614   5.396   8.358   3.040  1.0682  0.1359  0.3142
10346SOL     OW31615   4.240   9.192   9.600 -0.0969  0.3104  0.3157
10346SOL    HW131616   4.203   9.104   9.587  1.3857 -0.2575 -0.2686
10346SOL    HW231617   4.271   9.192   9.690  1.5733 -0.4713 -0.2095
10347SOL     OW31618   2.301   6.246   9.523  0.0507 -0.0413 -0.0682
10347SOL    HW131619   2.342   6.332   9.525 -1.8706  0.9192 -0.0301
10347SOL    HW231620   2.327   6.205   9.606 -0.2557  1.1274  0.6243
10348SOL     OW31621   1.332   6.566   6.315  0.0729  0.2966 -0.0016
10348SOL    HW131622   1.408   6.587   6.261 -0.1839 -0.4990 -0.6907
10348SOL    HW231623   1.369   6.538   6.399  0.6269 -1.4636 -0.7914
10349SOL     OW31624   7.038   4.069   3.170  0.1031 -0.0017  0.0958
10349SOL    HW131625   7.128   4.101   3.179  0.7176 -0.6219 -2.8118
10349SOL    HW231626   6.985   4.149   3.174  1.0508  0.7058 -0.7617
10350SOL     OW31627   4.272   3.683   5.871 -0.4398  0.3423  0.1141
10350SOL    HW131628   4.272   3.598   5.915 -0.0178  0.4951  0.4169
10350SOL    HW231629   4.276   3.661   5.778  0.4819  0.0306  0.2101
10351SOL     OW31630   7.941   4.396   7.686  0.1168 -0.1125 -0.0554
10351SOL    HW131631   7.884   4.335   7.639 -1.1452  0.6522  0.4405
10351SOL    HW231632   8.029   4.376   7.654 -0.3345 -1.7702 -0.3504
10352SOL     OW31633   1.535   9.629   6.039 -0.5302  0.1067 -0.2268
10352SOL    HW131634   1.564   9.652   5.951  0.4152  0.4050  0.1550
10352SOL    HW231635   1.448   9.669   6.046  0.5262  2.5458 -0.0471
10353SOL     OW31636   9.103   4.259   2.299 -0.4168  0.3630  0.0384
10353SOL    HW131637   9.018   4.223   2.327 -0.0963  0.7414  1.5673
10353SOL    HW231638   9.158   4.182   2.286 -0.7333  0.1566 -0.1204
10354SOL     OW31639   5.467   6.414   8.907  0.2846  0.6876 -0.2478
10354SOL    HW131640   5.382   6.380   8.880  0.6252  0.8815 -1.6512
10354SOL    HW231641   5.494   6.471   8.835  1.4042  0.9782  0.3729
10355SOL     OW31642   7.800   2.442   3.521  0.6447  0.0669  0.3023
10355SOL    HW131643   7.823   2.357   3.558  0.0529  0.3783  1.4228
10355SOL    HW231644   7.882   2.475   3.484  1.2331 -0.3150  1.2309
10356SOL     OW31645   7.358   0.656   4.036 -0.0364  0.0562 -0.2685
10356SOL    HW131646   7.277   0.635   3.990 -0.8459  0.4858  0.8871
10356SOL    HW231647   7.421   0.591   4.006 -1.2641 -1.3079  0.0156
10357SOL     OW31648   6.453   6.145   5.274 -0.2142  0.0954 -0.2806
10357SOL    HW131649   6.383   6.107   5.327  2.0530 -2.2157  1.3085
10357SOL    HW231650   6.460   6.087   5.198  1.2033 -0.9442  0.5846
10358SOL     OW31651   3.989   3.251   7.733  0.4168 -0.0462 -0.2202
10358SOL    HW131652   3.968   3.241   7.640 -1.1155  0.2981  0.0567
10358SOL    HW231653   3.992   3.345   7.747 -1.1316 -0.0435  0.3970
10359SOL     OW31654   2.300   4.791   1.984 -0.1956 -0.1669 -0.0165
10359SOL    HW131655   2.392   4.766   1.992  0.0397  0.8906  0.8528
10359SOL    HW231656   2.297   4.854   1.913  0.3368  2.2297  1.9555
10360SOL     OW31657   3.934   9.256   2.236 -0.4716  0.1696 -0.2139
10360SOL    HW131658   4.020   9.215   2.242 -1.0760 -0.9041  2.9705
10360SOL    HW231659   3.951   9.349   2.223  1.1948  0.0660  1.0223
10361SOL     OW31660   9.146   7.288   8.802 -0.3110  0.2806 -0.1966
10361SOL    HW131661   9.219   7.340   8.835 -1.2127  0.8776  0.9299
10361SOL    HW231662   9.177   7.197   8.806  0.5564  0.5716 -0.2527
10362SOL     OW31663   3.044   0.028   1.295 -0.5709 -0.6083  0.1579
10362SOL    HW131664   3.022   0.090   1.225 -1.4859 -1.4614 -0.3382
10362SOL    HW231665   2.962   0.018   1.345 -0.5410 -1.6708  0.0145
10363SOL     OW31666   2.493   4.114   4.391  0.2351  0.2431 -0.1306
10363SOL    HW131667   2.531   4.073   4.468 -1.5963 -0.1100  0.6555
10363SOL    HW231668   2.442   4.044   4.350  1.0518  0.4701 -1.5943
10364SOL     OW31669   6.613   6.182   2.116  0.0644 -0.5524  0.5204
10364SOL    HW131670   6.582   6.229   2.193  1.0553  2.1753 -0.6221
10364SOL    HW231671   6.547   6.114   2.101 -2.0468  1.1196  1.6913
10365SOL     OW31672   1.686   1.937   8.076  0.3688 -0.1034  0.2003
10365SOL    HW131673   1.740   2.012   8.100  0.7282 -0.5024  0.6625
10365SOL    HW231674   1.629   1.970   8.007 -0.0984  0.8349  1.0167
10366SOL     OW31675   3.453   6.243   8.210 -0.1425  0.1196 -0.5071
10366SOL    HW131676   3.475   6.272   8.298  0.5173 -0.6682 -0.4032
10366SOL    HW231677   3.371   6.288   8.189  1.3367  2.9362 -0.7674
10367SOL     OW31678   9.251   7.758   4.718  0.2560 -0.6141  0.6432
10367SOL    HW131679   9.284   7.777   4.631 -0.0711  0.5178  0.7579
10367SOL    HW231680   9.317   7.699   4.756  1.0182 -0.1380  0.0841
10368SOL     OW31681   0.329   7.524   2.067 -0.3652 -0.1308 -0.6651
10368SOL    HW131682   0.384   7.600   2.084 -0.1439 -0.4685  0.2256
10368SOL    HW231683   0.387   7.462   2.023 -0.2752 -0.1384 -0.5393
10369SOL     OW31684   4.156   0.953   9.845 -0.5149 -0.1999 -0.0957
10369SOL    HW131685   4.225   1.007   9.808 -0.0931 -1.8390 -1.8769
10369SOL    HW231686   4.075   0.990   9.812 -0.3588  0.3997  0.1811
10370SOL     OW31687   8.006   8.591   0.777 -0.5407  0.6109  0.4505
10370SOL    HW131688   8.066   8.623   0.844  0.6817 -0.7391  0.0665
10370SOL    HW231689   8.034   8.634   0.696 -0.2500  0.2059  0.3277
10371SOL     OW31690   8.358   2.866   1.145 -0.1413 -0.0615 -0.4368
10371SOL    HW131691   8.428   2.840   1.085 -1.2273 -0.8923 -1.3815
10371SOL    HW231692   8.375   2.816   1.225  1.0960  0.7618 -0.1585
10372SOL     OW31693   9.522   9.123   8.710  0.1995 -0.7259 -0.1901
10372SOL    HW131694   9.500   9.067   8.785 -1.5856  1.0547  0.7068
10372SOL    HW231695   9.456   9.100   8.644 -1.8057  1.5342  0.8866
10373SOL     OW31696   6.247   7.706   2.391 -0.0983  0.0551 -0.2208
10373SOL    HW131697   6.238   7.787   2.342 -0.5795 -0.3168 -0.7535
10373SOL    HW231698   6.216   7.638   2.332  0.8587 -0.5961 -0.0061
10374SOL     OW31699   5.941   1.182   3.404 -0.2348  0.4248  0.1020
10374SOL    HW131700   5.948   1.271   3.370 -1.6142  0.1180 -1.0831
10374SOL    HW231701   5.881   1.137   3.343  0.1762 -1.2220  0.8461
10375SOL     OW31702   7.806   6.179   9.204  0.4380 -0.4333  0.1013
10375SOL    HW131703   7.882   6.232   9.182  0.1756 -0.0145  0.1928
10375SOL    HW231704   7.785   6.132   9.124 -0.3063  0.8162 -0.4685
10376SOL     OW31705   9.439   4.847   5.972 -0.0287 -0.1014 -0.3089
10376SOL    HW131706   9.420   4.915   6.037  0.3675 -0.1725 -0.1130
10376SOL    HW231707   9.535   4.843   5.969 -0.0444 -0.1438 -0.8571
10377SOL     OW31708   2.395   8.319   4.961  0.8301 -0.9155 -0.1079
10377SOL    HW131709   2.323   8.355   5.012  0.1679 -1.1166 -0.8845
10377SOL    HW231710   2.458   8.290   5.026 -0.4583 -2.1304  0.6721
10378SOL     OW31711   7.729   9.486   6.103 -0.1431  0.1842 -0.2176
10378SOL    HW131712   7.759   9.526   6.185  0.5057 -1.6999  0.5210
10378SOL    HW231713   7.634   9.503   6.102  0.0430  1.3642  0.2342
10379SOL     OW31714   1.625   9.308   7.010 -0.1886 -0.0773 -0.2676
10379SOL    HW131715   1.583   9.223   7.023  0.3745 -0.0884  1.6843
10379SOL    HW231716   1.568   9.352   6.947 -0.6280 -1.7823 -1.1407
10380SOL     OW31717   9.399   9.820   0.440 -0.8193  0.5845 -0.9327
10380SOL    HW131718   9.330   9.811   0.375 -1.7842 -0.2363  0.1503
10380SOL    HW231719   9.355   9.806   0.524  0.8470 -1.2329 -0.2667
10381SOL     OW31720   0.545   6.278   7.836  0.2835 -0.6447 -0.0820
10381SOL    HW131721   0.541   6.191   7.795 -1.2924 -0.9813  0.6900
10381SOL    HW231722   0.458   6.315   7.821  0.4280  0.1653  0.9536
10382SOL     OW31723   7.812   8.799   9.004  0.1904  0.2482  0.0605
10382SOL    HW131724   7.881   8.797   9.070  0.3306 -0.5556 -0.1009
10382SOL    HW231725   7.855   8.770   8.923 -0.0671  0.8640 -0.3018
10383SOL     OW31726   6.218   7.393   1.553 -0.6339  0.0307  0.4266
10383SOL    HW131727   6.253   7.358   1.635 -2.1501  1.2980  1.6761
10383SOL    HW231728   6.142   7.337   1.534  1.1722 -1.9547 -1.6359
10384SOL     OW31729   3.037   1.144   6.414  0.1917  0.2290 -0.0616
10384SOL    HW131730   3.053   1.193   6.495 -0.5873  1.5846 -0.6979
10384SOL    HW231731   2.987   1.204   6.359 -0.6580 -1.2411 -0.9536
10385SOL     OW31732   9.525   6.082   6.241 -0.2252 -0.2045  0.0458
10385SOL    HW131733   9.529   6.139   6.317  1.7896 -1.4609  0.9820
10385SOL    HW231734   9.449   6.027   6.256 -1.3865  1.2780 -0.1974
10386SOL     OW31735   3.537   4.945   1.958  0.1843 -0.5490  0.1110
10386SOL    HW131736   3.514   5.024   2.007  0.6834  0.8948 -1.8302
10386SOL    HW231737   3.570   4.884   2.024 -2.3306 -0.0229  1.9816
10387SOL     OW31738   8.317   3.533   1.587 -0.1641  0.0994  0.6778
10387SOL    HW131739   8.393   3.512   1.532 -0.6893  0.7422 -0.3292
10387SOL    HW231740   8.247   3.477   1.555 -1.1400  2.1176 -0.9758
10388SOL     OW31741   7.814   3.680   3.048  0.1883  0.1044  0.1029
10388SOL    HW131742   7.833   3.711   2.959  0.8156  0.8926  0.4983
10388SOL    HW231743   7.885   3.619   3.067 -0.6459 -1.0470 -0.4018
10389SOL     OW31744   7.791   8.374   3.860 -0.0888 -0.3089 -0.2483
10389SOL    HW131745   7.835   8.310   3.804 -0.2178  0.7471 -1.6166
10389SOL    HW231746   7.858   8.440   3.878 -1.3472  2.1671 -3.6851
10390SOL     OW31747   0.211   4.476   5.088 -0.0820 -0.9483 -0.3876
10390SOL    HW131748   0.261   4.421   5.027 -0.2116 -0.5012 -0.9056
10390SOL    HW231749   0.180   4.549   5.034  1.0469  0.2534  0.5258
10391SOL     OW31750   9.694   0.187   5.867  0.0959 -0.4959 -0.2321
10391SOL    HW131751   9.729   0.238   5.794 -1.7742  0.7571 -0.3132
10391SOL    HW231752   9.630   0.128   5.827 -0.0409 -0.6784  0.2455
10392SOL     OW31753   1.377   9.928   7.524  1.3186 -0.3725  0.9170
10392SOL    HW131754   1.468   9.900   7.532  1.0530 -1.7775 -0.5246
10392SOL    HW231755   1.375   9.983   7.446  0.6901 -1.6221  0.0186
10393SOL     OW31756   9.772   5.146   8.821 -0.5217  0.1265 -0.2339
10393SOL    HW131757   9.710   5.205   8.778 -2.4405 -1.6338 -0.0329
10393SOL    HW231758   9.840   5.204   8.856 -1.4045  2.0305 -1.4988
10394SOL     OW31759   6.077   5.907   0.341 -0.1955 -0.5107  0.1934
10394SOL    HW131760   6.059   5.885   0.432 -1.1221 -1.3468 -0.1671
10394SOL    HW231761   5.992   5.936   0.307 -0.0057 -0.8194 -0.5596
10395SOL     OW31762   1.337   3.238   6.973  0.1671 -0.3709 -0.3626
10395SOL    HW131763   1.421   3.256   6.931 -0.0524 -1.1450 -1.1660
10395SOL    HW231764   1.315   3.149   6.945 -0.9119 -0.1844 -0.1502
10396SOL     OW31765   0.872   1.857   9.418 -0.1541  0.1662 -0.7612
10396SOL    HW131766   0.823   1.874   9.338 -1.0866  0.7128 -0.1044
10396SOL    HW231767   0.936   1.928   9.422 -1.3376  1.2544 -0.1089
10397SOL     OW31768   4.469   8.286   1.303 -0.0582  0.1027 -0.2262
10397SOL    HW131769   4.460   8.191   1.312  0.3588  0.0997  0.2383
10397SOL    HW231770   4.509   8.314   1.386 -1.2229  0.8387  0.1132
10398SOL     OW31771   8.140   1.543   6.503 -0.2594  0.2809 -0.1227
10398SOL    HW131772   8.133   1.448   6.505 -0.3298  0.2744  2.4693
10398SOL    HW231773   8.160   1.568   6.593 -2.0468  2.8484 -0.3126
10399SOL     OW31774   2.234   5.127   5.881 -0.0436 -0.2691 -0.3341
10399SOL    HW131775   2.210   5.191   5.813  1.2718  1.1712  0.4848
10399SOL    HW231776   2.176   5.149   5.955  0.6762  0.2749  0.0853
10400SOL     OW31777   4.449   8.737   0.172 -0.0501  0.4943 -0.3173
10400SOL    HW131778   4.479   8.700   0.256  0.0003  0.4078 -0.3732
10400SOL    HW231779   4.429   8.661   0.118  1.3568  0.4982 -0.9114
10401SOL     OW31780   5.392   6.087   0.687  0.3224 -0.4057 -0.0300
10401SOL    HW131781   5.418   6.177   0.707 -1.0251 -0.0746  0.3403
10401SOL    HW231782   5.305   6.078   0.728 -0.5889 -1.1225 -2.0210
10402SOL     OW31783   7.263   7.529   2.265  0.0422 -0.2404  0.3318
10402SOL    HW131784   7.271   7.500   2.356  0.0687  0.2082  0.4746
10402SOL    HW231785   7.262   7.448   2.214  3.4141 -0.5108  0.4555
10403SOL     OW31786   3.751   5.131   2.532  0.2894 -0.7315 -0.1717
10403SOL    HW131787   3.814   5.091   2.473  0.2042  0.5486 -1.1663
10403SOL    HW231788   3.801   5.197   2.580  0.2243 -1.3554  0.7861
10404SOL     OW31789   9.446   5.852   8.581  0.0496  0.1354  0.0486
10404SOL    HW131790   9.520   5.892   8.536 -1.4381  2.3584 -0.5818
10404SOL    HW231791   9.377   5.849   8.515 -0.9491 -0.2835  1.0920
10405SOL     OW31792   1.353   8.096   9.788  0.0827  0.5337 -0.2806
10405SOL    HW131793   1.277   8.044   9.814  0.3124 -0.5144 -1.6159
10405SOL    HW231794   1.318   8.184   9.774 -0.3276  0.7848  1.9116
10406SOL     OW31795   8.278   2.843   3.425 -0.0937 -1.1949 -0.4711
10406SOL    HW131796   8.295   2.846   3.519  0.8537 -1.9930 -0.6004
10406SOL    HW231797   8.364   2.854   3.384 -0.7594  1.4797 -1.3285
10407SOL     OW31798   4.626   7.376   9.209  0.2210  0.0604  0.0558
10407SOL    HW131799   4.610   7.466   9.180  0.2000  0.3839  1.0440
10407SOL    HW231800   4.600   7.322   9.134 -0.6128  0.8292 -0.2272
10408SOL     OW31801   8.857   2.389   1.873  0.4224 -0.1235  0.0891
10408SOL    HW131802   8.914   2.315   1.851  0.1735 -0.4290  0.4687
10408SOL    HW231803   8.905   2.466   1.842  0.8065 -0.4187 -0.0595
10409SOL     OW31804   0.867   0.466   6.479 -0.6335 -0.4567 -0.3464
10409SOL    HW131805   0.827   0.511   6.404  0.6115  0.8890 -0.2633
10409SOL    HW231806   0.815   0.493   6.554 -0.1356  0.5862 -0.3532
10410SOL     OW31807   0.538   4.489   1.598 -0.4375 -0.1391 -0.6243
10410SOL    HW131808   0.552   4.566   1.653  0.4659 -1.1825  0.7178
10410SOL    HW231809   0.486   4.430   1.653 -1.0761 -0.5068 -1.6022
10411SOL     OW31810   9.120   9.667   4.971  0.1167  0.4378 -0.2673
10411SOL    HW131811   9.091   9.610   5.042  1.3632  1.3205  1.0142
10411SOL    HW231812   9.039   9.695   4.928 -0.7726  0.7634  1.5269
10412SOL     OW31813   2.009   8.353   0.012 -0.1087 -0.0655 -0.3698
10412SOL    HW131814   1.979   8.331   0.100 -0.6879 -1.4625 -0.8919
10412SOL    HW231815   1.973   8.284  -0.044 -1.7055  2.0214 -2.0872
10413SOL     OW31816   4.838   7.027   4.386  0.2550 -0.0280 -0.5831
10413SOL    HW131817   4.892   6.960   4.428 -0.3112  0.1288  0.4473
10413SOL    HW231818   4.895   7.104   4.380 -0.3467  0.7693  2.3100
10414SOL     OW31819   5.988   2.914   2.149 -1.0118 -0.2372 -0.9011
10414SOL    HW131820   5.951   3.002   2.162  1.1061  0.6575 -0.4457
10414SOL    HW231821   6.026   2.917   2.062  1.2188  0.2194  0.0052
10415SOL     OW31822   5.623   6.665   9.759 -0.4434 -0.6409  0.1821
10415SOL    HW131823   5.691   6.731   9.769 -1.0046 -0.3172  2.5633
10415SOL    HW231824   5.555   6.709   9.707 -0.4378  0.4056  1.0086
10416SOL     OW31825   0.666   8.580   9.743  0.3215 -0.2285 -0.1773
10416SOL    HW131826   0.686   8.670   9.714 -1.3168  0.7834  1.5721
10416SOL    HW231827   0.740   8.528   9.713  0.4602  1.3380 -2.8851
10417SOL     OW31828   8.963   2.300   7.359  0.2209 -0.0503  0.1994
10417SOL    HW131829   8.994   2.237   7.294  1.2377  0.0264  0.5922
10417SOL    HW231830   8.875   2.270   7.383  0.4118 -0.8985 -0.1471
10418SOL     OW31831   5.236   6.973   2.690  0.2047 -0.1528 -0.5025
10418SOL    HW131832   5.265   6.916   2.761  0.3022 -0.8356 -1.0796
10418SOL    HW231833   5.180   6.917   2.636 -1.6255  0.9203  0.1832
10419SOL     OW31834   3.911   1.136   5.836  0.2440 -0.0041  0.2945
10419SOL    HW131835   3.967   1.141   5.758  0.3366 -0.0940  0.3547
10419SOL    HW231836   3.959   1.183   5.903 -0.0657  0.5012  0.1631
10420SOL     OW31837   1.412   1.894   2.266 -0.9115 -0.1577 -0.1970
10420SOL    HW131838   1.413   1.924   2.175 -2.9593  0.2665 -0.1159
10420SOL    HW231839   1.370   1.808   2.264 -0.9229 -0.1729  0.3433
10421SOL     OW31840   6.955   2.683   0.700  0.4320  0.4246  0.0390
10421SOL    HW131841   7.023   2.750   0.700 -1.2530  2.2435 -1.0465
10421SOL    HW231842   6.891   2.714   0.764  0.4065 -1.0450  0.7574
10422SOL     OW31843   0.090   8.273   4.539 -0.0969  0.2084 -0.2248
10422SOL    HW131844   0.024   8.218   4.496 -1.2947  1.1901  0.2922
10422SOL    HW231845   0.106   8.345   4.478  1.7685 -0.8472 -1.0790
10423SOL     OW31846   4.425   9.683   9.352  0.3074 -0.2825  0.3722
10423SOL    HW131847   4.332   9.705   9.347  0.2560 -0.3866  0.8004
10423SOL    HW231848   4.426   9.588   9.363  0.4323 -0.2073  1.0748
10424SOL     OW31849   8.289   3.850   8.122 -0.0985 -0.9482 -0.4910
10424SOL    HW131850   8.241   3.774   8.091 -1.7479  0.2207 -0.9752
10424SOL    HW231851   8.254   3.866   8.210 -0.7080 -0.0614 -0.8667
10425SOL     OW31852   1.629   5.962   5.632  0.2056  0.2142 -0.0804
10425SOL    HW131853   1.627   5.867   5.648 -2.8520  0.2464  0.2787
10425SOL    HW231854   1.681   5.971   5.552  0.8988 -1.6988  0.0844
10426SOL     OW31855   6.486   1.316   4.243  0.3498  0.0126 -0.1751
10426SOL    HW131856   6.475   1.240   4.300  0.5347 -0.6766 -1.0428
10426SOL    HW231857   6.565   1.359   4.276 -0.8558  1.0049  1.5973
10427SOL     OW31858   5.079   1.033   0.978 -0.1139  0.6462 -0.2820
10427SOL    HW131859   5.097   0.945   1.011 -4.6928 -0.3668  0.2685
10427SOL    HW231860   5.105   1.091   1.050 -1.1184 -0.7192  1.2496
10428SOL     OW31861   1.271   7.409   3.473 -0.7184  0.1055 -0.6972
10428SOL    HW131862   1.278   7.486   3.416 -0.5144  0.7473  0.1844
10428SOL    HW231863   1.337   7.348   3.439 -0.6218  0.4708 -1.1728
10429SOL     OW31864   3.045   8.733   1.918 -0.0280 -0.3164  0.9938
10429SOL    HW131865   3.010   8.809   1.964 -0.4214  0.7516 -0.9783
10429SOL    HW231866   2.987   8.721   1.843  1.5345 -0.9407 -0.1684
10430SOL     OW31867   6.793   4.661   5.226 -0.4085 -0.5285  0.0018
10430SOL    HW131868   6.854   4.661   5.152 -1.1768 -0.5970 -0.6457
10430SOL    HW231869   6.744   4.742   5.218 -1.2635 -1.0580 -0.2146
10431SOL     OW31870   5.007   1.081   3.670 -0.7150 -1.2809 -0.0775
10431SOL    HW131871   5.032   1.174   3.668  1.0720 -1.6906  0.9622
10431SOL    HW231872   4.992   1.058   3.578  0.4048 -0.3476 -0.5194
10432SOL     OW31873   8.874   5.235   7.298 -0.2938 -0.2847 -0.0245
10432SOL    HW131874   8.863   5.312   7.243 -0.9270 -0.2554  0.1359
10432SOL    HW231875   8.965   5.238   7.326  0.1199 -0.4670 -1.3061
10433SOL     OW31876   7.044   9.244   7.302  0.3657  0.1535  0.0190
10433SOL    HW131877   6.977   9.254   7.369  0.1602 -1.0545  0.0213
10433SOL    HW231878   7.124   9.281   7.341 -0.2836  1.6755 -0.0149
10434SOL     OW31879   1.555   3.490   9.234 -0.3533  0.0658  0.4304
10434SOL    HW131880   1.626   3.502   9.297 -0.8016  1.8280  0.6563
10434SOL    HW231881   1.552   3.395   9.218  1.4513 -0.1305  1.0772
10435SOL     OW31882   6.607   2.040   4.236  0.3307 -0.0722  0.0161
10435SOL    HW131883   6.660   1.987   4.175  3.7503  1.4626  1.3881
10435SOL    HW231884   6.598   2.125   4.192 -1.2284 -0.3623 -0.2670
10436SOL     OW31885   5.209   9.150   9.991  0.2571  0.1990  1.1284
10436SOL    HW131886   5.216   9.171   9.898  1.3859 -0.2312  1.1042
10436SOL    HW231887   5.141   9.209  10.023 -0.8106 -0.2635 -0.1453
10437SOL     OW31888   3.873   4.031   9.567 -0.7755 -0.0236  0.2879
10437SOL    HW131889   3.843   4.103   9.622 -3.5173 -1.3786  0.7328
10437SOL    HW231890   3.943   3.990   9.618  0.2737  1.7655  0.3755
10438SOL     OW31891   2.866   9.153   7.430 -0.3641 -0.9513 -0.2416
10438SOL    HW131892   2.858   9.247   7.417 -1.7435 -1.1276 -0.8515
10438SOL    HW231893   2.856   9.141   7.525  0.5458 -0.4363 -0.0742
10439SOL     OW31894   3.427   7.670   5.710  0.7717  0.6737  0.0505
10439SOL    HW131895   3.355   7.628   5.757 -0.0292  2.0915  0.1362
10439SOL    HW231896   3.402   7.763   5.706  1.8216  0.9184 -1.3487
10440SOL     OW31897   6.630   6.744   0.883  0.0826 -0.2985  0.3811
10440SOL    HW131898   6.605   6.683   0.953 -0.0957 -0.9777 -0.2599
10440SOL    HW231899   6.563   6.732   0.816 -0.6068  1.4441  0.7142
10441SOL     OW31900   0.615   1.227   8.947  0.1014  0.3419  0.2793
10441SOL    HW131901   0.599   1.161   9.015  0.4269  0.1454  0.1710
10441SOL    HW231902   0.692   1.194   8.900  1.2523  1.5815  1.2227
10442SOL     OW31903   5.933   8.727   0.192  0.2197 -0.2167  0.2270
10442SOL    HW131904   5.951   8.645   0.146 -0.2131 -1.1324  1.6198
10442SOL    HW231905   6.002   8.733   0.258  1.0385  1.2511 -0.6986
10443SOL     OW31906   4.068   3.970   4.035  0.1844  0.5851 -0.0406
10443SOL    HW131907   4.084   3.924   3.953  0.4001  1.6377 -0.6135
10443SOL    HW231908   4.155   3.976   4.077  0.0450 -0.1079  0.3589
10444SOL     OW31909   6.801   8.625   5.185  0.2458  0.4550  0.5508
10444SOL    HW131910   6.752   8.550   5.151  2.9255 -0.4883 -1.6194
10444SOL    HW231911   6.774   8.699   5.131 -0.8440  0.6433  1.3092
10445SOL     OW31912   3.339   8.242   9.200  0.3609 -0.1065  0.1163
10445SOL    HW131913   3.265   8.232   9.140 -0.6662 -2.3580  1.5712
10445SOL    HW231914   3.378   8.154   9.204  0.2875 -0.1033  2.7394
10446SOL     OW31915   8.025   8.143   5.837 -0.0228 -0.1241  0.2260
10446SOL    HW131916   8.089   8.130   5.768  0.1266 -0.3524  0.4047
10446SOL    HW231917   8.057   8.090   5.910 -1.3517 -1.7071 -0.2817
10447SOL     OW31918   2.035   5.663   0.271 -0.5633 -0.0663  0.0461
10447SOL    HW131919   1.977   5.598   0.230  0.7294 -0.8142 -0.6751
10447SOL    HW231920   2.105   5.611   0.309 -0.6170  0.7899  1.3706
10448SOL     OW31921   3.760   0.211   8.514 -0.5281  0.1130  0.1063
10448SOL    HW131922   3.682   0.184   8.562 -0.7604  0.0732 -0.2885
10448SOL    HW231923   3.777   0.300   8.545 -1.0114  0.3018 -0.1550
10449SOL     OW31924   1.279   3.374   1.723 -0.0507  0.3162 -0.3661
10449SOL    HW131925   1.275   3.282   1.748  1.1145  0.3928  0.2073
10449SOL    HW231926   1.254   3.422   1.802 -1.2175  0.5008 -0.8280
10450SOL     OW31927   3.379   4.843   4.922  0.3907 -0.3560 -0.1864
10450SOL    HW131928   3.398   4.872   4.832 -0.3378 -1.2313 -0.6443
10450SOL    HW231929   3.284   4.855   4.931  0.4419 -0.4000  0.4190
10451SOL     OW31930   1.740   2.940   2.950 -0.1194  0.0049  0.4470
10451SOL    HW131931   1.730   2.845   2.960 -0.0754  0.1258  1.8917
10451SOL    HW231932   1.706   2.976   3.032 -1.4063  1.3354 -0.6209
10452SOL     OW31933   2.614   7.408   7.309 -0.0010  0.1461 -0.3337
10452SOL    HW131934   2.631   7.350   7.384 -1.6264  1.5795  1.2260
10452SOL    HW231935   2.688   7.469   7.308 -0.0897  0.2687  0.2650
10453SOL     OW31936   9.766   5.124   0.282 -0.4296  0.7064  0.2109
10453SOL    HW131937   9.698   5.117   0.350  0.0736  1.3643  0.7962
10453SOL    HW231938   9.787   5.034   0.259 -0.4940  0.4716  1.0523
10454SOL     OW31939   6.968   2.230   4.184 -0.6990 -0.3182  0.0721
10454SOL    HW131940   6.967   2.256   4.276  0.4564 -2.3789  0.7047
10454SOL    HW231941   6.893   2.171   4.175 -0.4181 -0.6423 -0.1430
10455SOL     OW31942   7.785   8.005   5.862 -0.4550  0.3395 -0.3349
10455SOL    HW131943   7.751   8.019   5.951  0.3444 -0.2084  0.0644
10455SOL    HW231944   7.859   8.066   5.855  0.3339 -0.5755 -0.1289
10456SOL     OW31945   7.684   9.736   7.467 -0.2652 -0.1156 -0.0355
10456SOL    HW131946   7.680   9.764   7.376 -0.8865  0.8195  0.2531
10456SOL    HW231947   7.653   9.813   7.516  1.2163 -0.1727  1.0479
10457SOL     OW31948   7.343   9.754   7.552  0.5683  0.2681  0.3666
10457SOL    HW131949   7.381   9.810   7.620  0.2209 -0.6755  1.3641
10457SOL    HW231950   7.249   9.754   7.571  0.5721 -0.7018  0.4266
10458SOL     OW31951   3.172   3.962   4.393  0.1102 -0.2846  0.0443
10458SOL    HW131952   3.193   3.987   4.483  0.4302  0.7941 -0.3094
10458SOL    HW231953   3.134   4.042   4.355  2.0357 -0.0000 -1.4289
10459SOL     OW31954   3.307   1.192   7.134 -0.3247 -0.6771 -0.1842
10459SOL    HW131955   3.353   1.223   7.057  0.5505  0.2721  0.6885
10459SOL    HW231956   3.215   1.213   7.118  0.0694  1.2050 -0.2130
10460SOL     OW31957   6.332   3.488   7.267 -0.1756  0.1669  0.2129
10460SOL    HW131958   6.331   3.540   7.186 -0.8743 -1.4885 -0.8789
10460SOL    HW231959   6.333   3.554   7.337  0.1582  1.6420 -1.1219
10461SOL     OW31960   9.065   8.341   3.417  0.0956 -0.4706  0.4649
10461SOL    HW131961   9.000   8.395   3.462  1.4485  2.2035 -0.6095
10461SOL    HW231962   9.023   8.318   3.334 -0.8899 -2.1009  1.3515
10462SOL     OW31963   9.595   9.104   6.470  0.5354  0.4504  0.1733
10462SOL    HW131964   9.642   9.140   6.395  0.0117 -0.6394 -0.7073
10462SOL    HW231965   9.599   9.009   6.458 -2.2349  0.3002 -0.1831
10463SOL     OW31966   0.056   7.435   9.850  0.3377  0.7418 -0.0482
10463SOL    HW131967   0.076   7.526   9.828  3.1793 -0.1975 -1.7794
10463SOL    HW231968   0.011   7.401   9.772 -0.5583  0.5565  0.5293
10464SOL     OW31969   8.204   5.930   0.512 -0.5901  0.1265  0.0965
10464SOL    HW131970   8.198   5.845   0.468 -1.3819 -0.3626  1.1195
10464SOL    HW231971   8.141   5.925   0.583 -0.1580  1.3331  0.5898
10465SOL     OW31972   6.329   7.704   1.318  0.4803  0.3672  0.3046
10465SOL    HW131973   6.235   7.687   1.327  0.6546 -1.0983 -0.2997
10465SOL    HW231974   6.370   7.641   1.378  1.0971  0.6895  0.2294
10466SOL     OW31975   9.908   7.905   4.603 -0.2293 -0.3526 -0.1974
10466SOL    HW131976   9.883   7.979   4.549  0.8944  0.4785  0.3778
10466SOL    HW231977   9.947   7.842   4.542 -0.9853 -0.3894 -0.6551
10467SOL     OW31978   2.152   8.901   8.707  0.6443 -0.0567 -0.3856
10467SOL    HW131979   2.062   8.883   8.682 -0.3410  0.8199  2.2243
10467SOL    HW231980   2.182   8.821   8.750  0.7437  0.0033 -0.3411
10468SOL     OW31981   6.910   7.393   0.912 -0.2954 -0.6180  0.4427
10468SOL    HW131982   6.852   7.439   0.851 -2.0918 -1.2042  1.6211
10468SOL    HW231983   6.980   7.358   0.858 -1.0642  0.0908 -1.0565
10469SOL     OW31984   6.935   4.298   9.164 -0.1357  0.1933  0.0197
10469SOL    HW131985   6.895   4.226   9.115  0.5598  0.2803 -0.6818
10469SOL    HW231986   6.991   4.343   9.101  0.4625  0.5586  0.7904
10470SOL     OW31987   8.415   4.502   5.850 -0.2954  0.1816 -0.4449
10470SOL    HW131988   8.440   4.421   5.805 -1.1406 -0.1371 -0.3706
10470SOL    HW231989   8.441   4.487   5.941  0.4426  0.3981 -0.6119
10471SOL     OW31990   0.159   1.176   8.687 -0.2990 -0.1263 -0.4386
10471SOL    HW131991   0.141   1.251   8.744 -2.7402 -0.3888 -0.7335
10471SOL    HW231992   0.076   1.161   8.641  1.0900 -0.9487 -2.8601
10472SOL     OW31993   1.360   6.562   9.491  0.3068 -0.0141  0.3245
10472SOL    HW131994   1.447   6.583   9.458  0.3256  0.0632  0.4236
10472SOL    HW231995   1.325   6.499   9.428 -0.1078  0.9900 -0.4932
10473SOL     OW31996   4.494   8.335   5.841  0.0469 -0.0102  0.1342
10473SOL    HW131997   4.505   8.387   5.921 -2.7930  0.2854  0.4334
10473SOL    HW231998   4.574   8.283   5.836  1.5022  1.8931  1.6828
10474SOL     OW31999   7.082   4.626   9.665 -0.0286  0.5682  0.1607
10474SOL    HW132000   7.139   4.606   9.739  0.1587  0.8259  0.0875
10474SOL    HW232001   7.142   4.639   9.591 -0.2260  0.0732 -0.0933
10475SOL     OW32002   3.174   6.622   8.218 -0.4965 -0.2991  0.1707
10475SOL    HW132003   3.172   6.651   8.127 -1.6970 -0.1880  0.2218
10475SOL    HW232004   3.267   6.624   8.241 -0.3228  1.3949 -0.4987
10476SOL     OW32005   6.615   2.183   9.824  0.0552 -0.5181 -0.8501
10476SOL    HW132006   6.656   2.097   9.827  0.3579 -0.4669 -2.4398
10476SOL    HW232007   6.661   2.229   9.754 -0.1923  0.9007 -0.1154
10477SOL     OW32008   4.588   7.692   4.918 -0.3896 -0.5645 -0.2720
10477SOL    HW132009   4.683   7.693   4.916 -0.3916  0.1587 -0.0098
10477SOL    HW232010   4.561   7.750   4.847 -0.6185  0.3974  0.5830
10478SOL     OW32011   7.738   3.488   6.071  0.5201 -0.2926  0.4579
10478SOL    HW132012   7.826   3.515   6.045 -0.0378  0.2829 -0.9291
10478SOL    HW232013   7.700   3.566   6.111  0.4817 -0.4009  0.6328
10479SOL     OW32014   9.243   2.228   4.331 -0.4294 -0.3646  0.2298
10479SOL    HW132015   9.227   2.304   4.387  3.1681  0.2503  0.6654
10479SOL    HW232016   9.243   2.264   4.242  0.4814  0.0060  0.3730
10480SOL     OW32017   0.116   3.250   4.876 -0.2631 -0.2862  0.4603
10480SOL    HW132018   0.023   3.232   4.869  0.3808 -3.8682 -0.9426
10480SOL    HW232019   0.128   3.282   4.965 -2.7202 -0.3991  0.8804
10481SOL     OW32020   7.360   5.828   7.157 -0.8302  0.6243  0.5197
10481SOL    HW132021   7.296   5.761   7.179 -0.2248  0.4964  1.9979
10481SOL    HW232022   7.355   5.891   7.228  1.7413 -0.1814  1.5577
10482SOL     OW32023   6.814   6.367   0.751 -0.4184 -0.1499  0.0749
10482SOL    HW132024   6.874   6.410   0.691  0.0745  0.1244  0.7459
10482SOL    HW232025   6.799   6.281   0.712  0.6138 -0.3180  0.0140
10483SOL     OW32026   9.697   3.174   5.490  0.1063 -0.0407  0.4796
10483SOL    HW132027   9.785   3.141   5.474  0.9028  1.6185  1.1888
10483SOL    HW232028   9.654   3.170   5.404  1.2451  0.1393 -0.1195
10484SOL     OW32029   3.578   3.833   4.613  0.1009 -0.4584  0.6527
10484SOL    HW132030   3.618   3.914   4.644  1.6704 -0.4510 -1.1936
10484SOL    HW232031   3.647   3.767   4.622 -0.8352 -1.3907  1.2113
10485SOL     OW32032   9.210   4.662   7.258 -0.0074 -0.3275  0.6860
10485SOL    HW132033   9.295   4.666   7.214  0.7748 -0.5779  2.1168
10485SOL    HW232034   9.214   4.582   7.310 -1.3419 -0.6295  0.3596
10486SOL     OW32035   2.316   5.937   6.145  0.2843  0.3814 -0.5100
10486SOL    HW132036   2.223   5.959   6.150  0.1447  0.0496 -1.4423
10486SOL    HW232037   2.343   5.965   6.058  0.9347  0.0113 -0.4363
10487SOL     OW32038   5.652   7.209   2.201 -0.2313 -0.2359 -0.2129
10487SOL    HW132039   5.726   7.187   2.145 -1.4242 -1.2214 -1.4731
10487SOL    HW232040   5.615   7.288   2.161  0.5420  0.7026  0.8552
10488SOL     OW32041   4.286   9.430   1.603  0.0509 -0.0801 -0.6284
10488SOL    HW132042   4.261   9.420   1.695 -0.3589 -0.2082 -0.7484
10488SOL    HW232043   4.334   9.513   1.600  1.1769 -0.6997 -0.0788
10489SOL     OW32044   7.157   2.087   3.566  0.3615  0.1652  0.2745
10489SOL    HW132045   7.127   2.151   3.630  0.9240  0.1051  0.6122
10489SOL    HW232046   7.093   2.017   3.569 -0.9421  1.2538 -0.9868
10490SOL     OW32047   6.178   5.849   4.374 -0.2594  0.2180 -0.1951
10490SOL    HW132048   6.193   5.759   4.404  0.1276  0.6547  1.0063
10490SOL    HW232049   6.114   5.841   4.304 -0.1163 -1.0088 -0.2065
10491SOL     OW32050   4.819   2.786   1.746 -0.0637  0.1498  0.2447
10491SOL    HW132051   4.790   2.876   1.728 -2.6625 -0.4048  1.2625
10491SOL    HW232052   4.751   2.731   1.708  0.4549 -1.3248  1.3622
10492SOL     OW32053   2.238   3.039   6.307  0.8772  0.2614  0.0421
10492SOL    HW132054   2.272   2.951   6.294  0.0437 -0.1240  0.3930
10492SOL    HW232055   2.273   3.066   6.392 -0.1409 -0.3715  0.6883
10493SOL     OW32056   6.489   8.521   6.751 -0.5000 -0.2807 -0.5037
10493SOL    HW132057   6.455   8.603   6.789 -1.8151 -0.7103 -0.6972
10493SOL    HW232058   6.411   8.469   6.734  0.2462 -1.1070 -1.4982
10494SOL     OW32059   8.755   0.543   1.359  0.0183 -0.5003  0.3334
10494SOL    HW132060   8.741   0.504   1.273 -0.1263 -1.0948  0.6197
10494SOL    HW232061   8.830   0.496   1.395 -0.0606 -0.4053  0.6265
10495SOL     OW32062   7.747   6.645   4.767  0.1971  0.4292 -0.0001
10495SOL    HW132063   7.704   6.675   4.847 -1.4573  1.5006 -1.2134
10495SOL    HW232064   7.821   6.593   4.797  0.4564  1.9448  2.2229
10496SOL     OW32065   4.342   4.772   9.829  0.1205 -0.2025 -0.0079
10496SOL    HW132066   4.272   4.782   9.894 -0.9037 -0.7966 -0.9875
10496SOL    HW232067   4.422   4.774   9.881 -0.5972  0.5981  1.1421
10497SOL     OW32068   6.468   0.762   2.541 -0.2358 -0.1429  0.0890
10497SOL    HW132069   6.545   0.736   2.490 -1.1646 -1.6470 -0.5853
10497SOL    HW232070   6.394   0.725   2.494 -1.3652  0.9740  0.9329
10498SOL     OW32071   5.529   9.787   6.333  0.4872  0.2211 -0.1927
10498SOL    HW132072   5.473   9.716   6.302  0.6599 -0.0688  0.1516
10498SOL    HW232073   5.529   9.777   6.429  0.2583  0.8734 -0.1210
10499SOL     OW32074   3.597   1.606   4.882  0.3672  0.4328 -0.0390
10499SOL    HW132075   3.552   1.523   4.867 -0.7605  0.8269  0.9640
10499SOL    HW232076   3.689   1.587   4.864  0.2191 -1.1760  0.7101
10500SOL     OW32077   6.732   7.253   1.604 -0.1602 -0.0065 -0.4547
10500SOL    HW132078   6.751   7.347   1.604 -0.0333  0.0142  1.6027
10500SOL    HW232079   6.809   7.213   1.645 -1.7199 -0.5721  2.1634
10501SOL     OW32080   6.825   2.846   5.464  0.1384 -0.2356  0.1870
10501SOL    HW132081   6.818   2.941   5.472 -0.1311 -0.0408 -1.8552
10501SOL    HW232082   6.735   2.816   5.457  0.2295 -0.6301  0.6879
10502SOL     OW32083   5.046   8.214   7.200 -0.1312  0.1343  0.3699
10502SOL    HW132084   5.021   8.168   7.120  0.8414  1.3197 -0.6581
10502SOL    HW232085   5.095   8.149   7.251 -0.2753 -0.4690 -0.2504
10503SOL     OW32086   6.232   3.201   2.931  0.1868  0.3427  0.4922
10503SOL    HW132087   6.311   3.252   2.947  0.4147  0.4137 -0.7786
10503SOL    HW232088   6.256   3.141   2.861 -1.0068  0.6406 -0.2029
10504SOL     OW32089   3.105   5.936   6.328  0.1267  0.2951  0.3259
10504SOL    HW132090   3.126   6.014   6.276 -2.0404 -0.4471 -1.9175
10504SOL    HW232091   3.184   5.881   6.323  0.6952  1.1565 -0.4427
10505SOL     OW32092   9.351   5.407   1.983  0.3122 -0.5173 -0.3723
10505SOL    HW132093   9.396   5.334   2.025 -0.0609 -1.1858 -1.1140
10505SOL    HW232094   9.372   5.482   2.038  0.1752 -1.2916  0.7747
10506SOL     OW32095   8.996   8.619   0.905  0.1373 -0.1455  0.1706
10506SOL    HW132096   9.002   8.523   0.902  1.3517 -0.0692 -0.4395
10506SOL    HW232097   9.002   8.645   0.813  0.7317  0.5554  0.4031
10507SOL     OW32098   0.403   9.453   6.282 -0.2567  0.5868  0.0760
10507SOL    HW132099   0.313   9.464   6.314 -0.5888  1.2091 -1.0364
10507SOL    HW232100   0.434   9.542   6.266  0.1861  0.3257 -0.5515
10508SOL     OW32101   3.310   3.874   0.070  0.1122 -0.5046 -0.3764
10508SOL    HW132102   3.405   3.874   0.065  0.1986  1.1763  0.5767
10508SOL    HW232103   3.291   3.847   0.160 -0.4209 -2.4904 -1.0147
10509SOL     OW32104   4.276   2.501   7.574 -0.4616 -0.4208 -0.1643
10509SOL    HW132105   4.277   2.407   7.587 -1.3990 -0.5728 -1.0325
10509SOL    HW232106   4.284   2.538   7.662 -2.2290 -1.3234  0.4210
10510SOL     OW32107   2.203   2.966   1.488  0.5646 -0.0256  0.0324
10510SOL    HW132108   2.152   2.964   1.407  0.9999  2.0839 -0.3687
10510SOL    HW232109   2.275   2.905   1.473  1.3559  1.2639 -1.7343
10511SOL     OW32110   0.955   9.737   5.767  0.1059  0.5342 -0.2876
10511SOL    HW132111   1.009   9.802   5.812  1.8209 -0.5105 -0.7429
10511SOL    HW232112   0.867   9.775   5.766  0.5789  1.7868  1.4937
10512SOL     OW32113   5.504   6.405   8.138  0.5437 -0.5798 -0.0851
10512SOL    HW132114   5.584   6.420   8.088  0.0747 -2.0699 -1.3789
10512SOL    HW232115   5.457   6.338   8.088  0.0355 -2.1953  2.3843
10513SOL     OW32116   2.039   1.329   0.563 -0.4459 -0.0489 -0.8707
10513SOL    HW132117   2.001   1.368   0.485 -1.7892 -0.3516 -0.3844
10513SOL    HW232118   2.051   1.402   0.624  1.4312  0.3410 -1.6371
10514SOL     OW32119   8.880   0.402   6.815  0.0381  0.0786  0.0378
10514SOL    HW132120   8.846   0.477   6.866 -1.1289  0.0881 -0.7182
10514SOL    HW232121   8.824   0.399   6.738  0.6941 -1.0071 -0.4063
10515SOL     OW32122   5.451   2.085   8.479  0.6617 -0.0458  0.1718
10515SOL    HW132123   5.396   2.070   8.556  0.9553 -0.2012  0.3507
10515SOL    HW232124   5.540   2.070   8.510  0.7397 -0.6451 -0.3321
10516SOL     OW32125   2.745   1.223   4.887 -0.3978  0.9107  0.2512
10516SOL    HW132126   2.785   1.225   4.974  0.4607  1.1663 -0.1366
10516SOL    HW232127   2.815   1.192   4.830 -0.9407  0.7986 -0.3534
10517SOL     OW32128   3.463   4.424   1.219  0.6771 -0.0286  0.0670
10517SOL    HW132129   3.554   4.450   1.208  0.4460  1.4155  1.2412
10517SOL    HW232130   3.423   4.497   1.266 -0.7084 -1.3217  0.9840
10518SOL     OW32131   9.856   8.359   4.721  0.3640  0.0843  0.1310
10518SOL    HW132132   9.944   8.334   4.694  1.4802  2.5019  1.2137
10518SOL    HW232133   9.810   8.276   4.733  1.4907 -1.2156 -3.3992
10519SOL     OW32134   5.999   6.049  -0.026 -0.0364 -0.6131  0.4051
10519SOL    HW132135   6.081   6.019   0.011 -0.0561 -2.0327 -0.6333
10519SOL    HW232136   5.932   6.013   0.032  0.0332  0.3004  1.0821
10520SOL     OW32137   6.260   1.288   3.324  0.2854  0.3685  0.0942
10520SOL    HW132138   6.321   1.362   3.321 -1.2726  1.7071 -0.3162
10520SOL    HW232139   6.198   1.313   3.393 -1.1766  0.2158 -1.1356
10521SOL     OW32140   0.694   5.052   3.355 -0.2115  0.7204 -0.1882
10521SOL    HW132141   0.601   5.054   3.337 -0.8557  0.0562  2.5785
10521SOL    HW232142   0.723   4.965   3.327 -0.7368  0.4136  0.2157
10522SOL     OW32143   8.866   0.417   5.724  0.1488 -0.8838 -0.1856
10522SOL    HW132144   8.946   0.411   5.775 -0.2043 -1.9849  0.2787
10522SOL    HW232145   8.894   0.408   5.633  0.8099  1.3258 -0.2478
10523SOL     OW32146   1.176   9.734   6.295 -0.4434 -0.4673  0.3701
10523SOL    HW132147   1.180   9.638   6.296  0.2321 -0.4681 -0.6471
10523SOL    HW232148   1.189   9.759   6.386  0.6450 -1.3189  0.4728
10524SOL     OW32149   5.261   0.692   2.124 -0.5205 -0.3990  0.1073
10524SOL    HW132150   5.313   0.772   2.135 -0.6776 -0.0914 -1.2172
10524SOL    HW232151   5.218   0.680   2.209 -0.3427  0.8153  0.3953
10525SOL     OW32152   9.714   8.077   3.870 -1.1421  0.4791  0.4233
10525SOL    HW132153   9.667   8.062   3.788 -1.1345 -1.9535  0.8127
10525SOL    HW232154   9.645   8.078   3.937 -0.8527 -1.6087  0.8173
10526SOL     OW32155   6.301   3.736   1.520 -0.0106  0.2148  0.8402
10526SOL    HW132156   6.354   3.658   1.506 -0.1726 -0.1786  2.2837
10526SOL    HW232157   6.210   3.706   1.514 -0.0731  0.4901  0.3846
10527SOL     OW32158   6.127   9.237   5.879  0.4891  0.1743 -0.4173
10527SOL    HW132159   6.089   9.296   5.944  0.4723 -0.2024 -0.0776
10527SOL    HW232160   6.169   9.294   5.816  1.2957  0.5229  0.4188
10528SOL     OW32161   8.647   8.558   5.219 -0.1046 -0.6284 -0.0716
10528SOL    HW132162   8.732   8.542   5.178 -0.2703 -0.0214 -0.6726
10528SOL    HW232163   8.600   8.476   5.209  0.0789 -0.6803 -0.5742
10529SOL     OW32164   3.771   4.735   3.358  0.2560 -0.3468 -0.3930
10529SOL    HW132165   3.792   4.697   3.443  0.1442 -0.1134 -0.2602
10529SOL    HW232166   3.687   4.778   3.371  0.6293  0.3900 -0.4033
10530SOL     OW32167   3.853   4.016   5.336 -0.4866 -0.3601 -0.3756
10530SOL    HW132168   3.840   4.064   5.418  1.0470 -0.9797  0.2880
10530SOL    HW232169   3.838   4.080   5.268  0.3602  0.7781  0.4630
10531SOL     OW32170   4.506   4.197   5.438  0.5348  0.2157 -0.3722
10531SOL    HW132171   4.508   4.201   5.342  0.3766  0.6284 -0.3606
10531SOL    HW232172   4.556   4.118   5.460  1.3025  0.5862 -0.7584
10532SOL     OW32173   1.651   1.704   4.904  0.3060  0.5331  0.5269
10532SOL    HW132174   1.683   1.619   4.934  0.1656  0.2503 -0.1025
10532SOL    HW232175   1.726   1.744   4.860  0.8968  1.4946  2.3187
10533SOL     OW32176   5.960   1.077   1.471  0.0611  0.0787 -0.9742
10533SOL    HW132177   5.916   0.992   1.477 -0.8005  0.6036  3.1845
10533SOL    HW232178   5.907   1.126   1.408 -2.1144 -1.0845 -0.1620
10534SOL     OW32179   7.399   9.755   0.459  0.4124  0.3255 -0.6275
10534SOL    HW132180   7.492   9.754   0.479  0.6717  2.0004 -1.5726
10534SOL    HW232181   7.359   9.806   0.530  0.5467  1.4488 -1.3317
10535SOL     OW32182   5.840   3.105   0.648  0.0056 -0.7542 -0.4532
10535SOL    HW132183   5.761   3.122   0.595  0.8448 -1.1947 -1.9121
10535SOL    HW232184   5.843   3.010   0.655  1.0103 -0.8203 -1.4242
10536SOL     OW32185   5.698   3.372   3.124 -0.2435 -0.2816  0.1060
10536SOL    HW132186   5.731   3.284   3.104  1.4936  0.2646  0.4133
10536SOL    HW232187   5.604   3.360   3.137 -0.2908 -1.8346 -1.3479
10537SOL     OW32188   5.211   7.601   0.254 -0.5833 -0.2564  0.2938
10537SOL    HW132189   5.129   7.562   0.284 -0.3861 -0.2823  0.8101
10537SOL    HW232190   5.275   7.576   0.321 -0.5463  1.3520  0.9187
10538SOL     OW32191   5.224   2.483   4.094 -0.6526  0.3026 -0.2807
10538SOL    HW132192   5.273   2.462   4.173  0.4691  1.9488 -0.4729
10538SOL    HW232193   5.292   2.503   4.029 -1.5617  1.3938 -0.9333
10539SOL     OW32194   4.660   7.470   2.680 -0.1345  0.2256  0.1650
10539SOL    HW132195   4.664   7.452   2.586 -1.9203 -0.6341  0.2076
10539SOL    HW232196   4.750   7.464   2.710  0.8542  2.8851 -1.8821
10540SOL     OW32197   3.281   7.266   7.955 -0.3467  0.2857 -0.0207
10540SOL    HW132198   3.191   7.235   7.964  0.4136 -1.8963  0.8984
10540SOL    HW232199   3.327   7.193   7.914  1.6671 -0.0869  2.6156
10541SOL     OW32200   8.988   3.205   7.976 -0.1423 -0.3548 -0.4637
10541SOL    HW132201   8.979   3.265   8.050  2.7902 -0.7849  0.3460
10541SOL    HW232202   8.935   3.130   8.000 -0.5442  0.1936  0.4264
10542SOL     OW32203   4.925   0.318   3.931  0.4098  0.3170 -0.0526
10542SOL    HW132204   4.873   0.397   3.939  0.5571  0.3270  0.8824
10542SOL    HW232205   4.962   0.304   4.018  0.6629 -0.5894 -0.2917
10543SOL     OW32206   8.578   5.638   8.844 -0.3170 -0.4159 -0.3184
10543SOL    HW132207   8.581   5.550   8.882  0.8874 -1.6778 -3.0837
10543SOL    HW232208   8.668   5.669   8.849 -0.6213  0.4355  0.0638
10544SOL     OW32209   3.338   4.149   5.573  0.1231 -0.0880  0.0867
10544SOL    HW132210   3.300   4.071   5.613 -0.3629  0.4853  0.7702
10544SOL    HW232211   3.322   4.219   5.637 -0.7726  0.8737 -1.1289
10545SOL     OW32212   6.251   2.982   1.570  0.7764 -0.3279  0.1754
10545SOL    HW132213   6.218   2.892   1.567 -0.7660  0.0580  2.6971
10545SOL    HW232214   6.172   3.036   1.574  1.6984  1.0379  0.3282
10546SOL     OW32215   5.561   4.851   7.749 -0.3383 -0.1097 -0.3521
10546SOL    HW132216   5.533   4.815   7.665 -0.7010  0.3535 -0.4309
10546SOL    HW232217   5.649   4.885   7.733 -0.0130 -0.8885 -0.2934
10547SOL     OW32218   6.387   8.106   7.529  0.1965 -0.6170  0.1290
10547SOL    HW132219   6.394   8.181   7.469 -2.3623 -0.3762 -0.0022
10547SOL    HW232220   6.386   8.029   7.471  2.4431 -0.7772  0.2391
10548SOL     OW32221   6.133   2.888   9.966 -0.0969  0.3790  0.0018
10548SOL    HW132222   6.183   2.893   9.884 -0.8233 -0.1460 -0.4892
10548SOL    HW232223   6.061   2.951   9.954 -0.4406  0.0007  0.0693
10549SOL     OW32224   5.075   9.894   3.964 -0.1079  0.1039 -0.5502
10549SOL    HW132225   5.022   9.867   3.889  1.3620  0.5875 -1.8270
10549SOL    HW232226   5.119   9.974   3.934  0.8577  0.0661  0.6878
10550SOL     OW32227   3.771   6.942   8.577  0.2078 -0.5724 -0.1397
10550SOL    HW132228   3.800   7.032   8.561 -1.1456 -0.2848 -1.1374
10550SOL    HW232229   3.810   6.891   8.506 -0.2000 -0.4949 -0.4298
10551SOL     OW32230   2.070   3.083   6.637 -0.2267  0.3537  0.2779
10551SOL    HW132231   2.048   3.135   6.560 -0.6294 -1.3520 -0.8171
10551SOL    HW232232   2.122   3.011   6.603  2.3056  1.2219  2.0751
10552SOL     OW32233   8.609   7.504   3.897 -0.0889  0.3036  0.1120
10552SOL    HW132234   8.587   7.558   3.822  0.6083  2.5202  1.4091
10552SOL    HW232235   8.533   7.446   3.908 -0.5164  0.4305 -1.8027
10553SOL     OW32236   7.399   6.505   4.083  0.4004  0.0884 -0.6721
10553SOL    HW132237   7.367   6.530   3.997 -1.7392  0.6483  0.2205
10553SOL    HW232238   7.378   6.580   4.139 -0.0286 -1.0257  0.7250
10554SOL     OW32239   8.802   6.020   1.699  0.1095 -0.2448  0.1334
10554SOL    HW132240   8.861   5.984   1.765 -1.5169 -1.9471  0.7687
10554SOL    HW232241   8.735   5.953   1.689 -1.8773  1.7005 -0.3414
10555SOL     OW32242   2.804   5.789   6.501 -0.2033  0.4892 -0.3416
10555SOL    HW132243   2.788   5.718   6.438 -1.7921 -0.4750  1.0720
10555SOL    HW232244   2.721   5.837   6.504 -0.6543 -0.3478  2.0315
10556SOL     OW32245   0.192   2.165   5.149  0.6756 -0.2682  0.7224
10556SOL    HW132246   0.145   2.248   5.148 -1.0222 -1.1754  0.5086
10556SOL    HW232247   0.272   2.181   5.099 -1.0774  0.4486 -2.0140
10557SOL     OW32248   5.250   0.469   0.674 -0.4835 -0.0069  0.1835
10557SOL    HW132249   5.155   0.480   0.677 -0.4789 -0.0472  0.4796
10557SOL    HW232250   5.282   0.514   0.752 -0.1008  1.5685 -0.8548
10558SOL     OW32251   3.183   0.309   3.694  0.1266  0.4007 -1.0139
10558SOL    HW132252   3.245   0.380   3.711 -0.2692  0.3304  0.8898
10558SOL    HW232253   3.184   0.257   3.774 -1.8915  0.0271 -1.1918
10559SOL     OW32254   2.309   8.820   5.678 -0.0248 -0.0273 -0.2896
10559SOL    HW132255   2.293   8.885   5.610  2.4323  0.9666 -0.0225
10559SOL    HW232256   2.347   8.746   5.632 -2.1833 -1.0935 -0.4931
10560SOL     OW32257   3.998   5.536   7.113 -0.3628  0.1663 -0.7958
10560SOL    HW132258   3.906   5.532   7.137 -0.4994  2.2277 -0.7688
10560SOL    HW232259   4.014   5.457   7.063 -1.4448 -1.5769  1.4319
10561SOL     OW32260   6.276   0.508   3.634 -0.0837  0.3024  0.4138
10561SOL    HW132261   6.217   0.577   3.603  2.1608  2.1954  0.0339
10561SOL    HW232262   6.281   0.521   3.729  1.5437  1.8215  0.1853
10562SOL     OW32263   1.912   6.703   9.407 -0.0660  0.3887  0.2682
10562SOL    HW132264   1.864   6.739   9.481 -0.7874  0.3102 -0.1543
10562SOL    HW232265   1.850   6.706   9.334  1.1138  1.9796 -0.7453
10563SOL     OW32266   3.014   3.883   0.179  0.4313 -0.3731  0.3698
10563SOL    HW132267   2.999   3.929   0.262 -2.8986 -0.2115 -0.1730
10563SOL    HW232268   2.961   3.931   0.116  3.7623  0.2328 -2.2597
10564SOL     OW32269   2.160   8.999   2.331  0.7382 -0.4221  0.6001
10564SOL    HW132270   2.073   8.958   2.326  1.9094 -2.9627 -0.3229
10564SOL    HW232271   2.171   9.020   2.424 -1.5283  1.7109  0.5210
10565SOL     OW32272   0.870   2.873   3.969 -0.4360  0.0360  0.7060
10565SOL    HW132273   0.827   2.958   3.970 -0.6106 -0.0189 -0.5575
10565SOL    HW232274   0.961   2.892   3.993 -0.5392  0.5433  0.7112
10566SOL     OW32275   2.917   1.602   6.429  0.2958  0.0604 -0.0043
10566SOL    HW132276   2.913   1.683   6.479 -0.2537  0.3704 -0.5342
10566SOL    HW232277   2.893   1.628   6.340  1.3423 -0.4585 -0.4538
10567SOL     OW32278   8.748   8.140   2.200 -0.3259  0.2554  0.4373
10567SOL    HW132279   8.791   8.095   2.273 -0.4245  1.0289  0.9810
10567SOL    HW232280   8.818   8.190   2.158  0.1687 -1.7126 -1.2488
10568SOL     OW32281   0.784   4.072   2.969  0.6659  0.1543  0.4224
10568SOL    HW132282   0.817   4.161   2.956  0.2416  0.3856  0.9064
10568SOL    HW232283   0.771   4.065   3.063  0.5278 -0.3628  0.3668
10569SOL     OW32284   9.368   3.370   5.139  0.1454  0.2085 -0.0963
10569SOL    HW132285   9.274   3.386   5.149  0.4702  0.8986  2.4159
10569SOL    HW232286   9.395   3.427   5.067 -1.5253 -0.9143 -1.7075
10570SOL     OW32287   1.683   5.376   5.490 -0.0160 -0.1046  0.0342
10570SOL    HW132288   1.677   5.471   5.502 -0.4176 -0.1246 -0.0009
10570SOL    HW232289   1.748   5.365   5.421  0.8372  0.0963  0.7786
10571SOL     OW32290   6.019   5.207   4.300 -0.3724 -0.2604  0.0920
10571SOL    HW132291   6.043   5.233   4.211  0.7970  0.8969  0.7220
10571SOL    HW232292   5.937   5.159   4.289 -2.2322  2.9038 -1.2568
10572SOL     OW32293   7.731   7.734   8.571  0.0032 -0.4013  0.1360
10572SOL    HW132294   7.743   7.673   8.497  1.9296 -1.1650  1.0095
10572SOL    HW232295   7.796   7.706   8.635  0.5807  2.2594  0.8152
10573SOL     OW32296   3.198   8.504   7.699  0.1765 -0.0212 -0.1387
10573SOL    HW132297   3.203   8.453   7.779  1.2420 -0.8648 -0.7246
10573SOL    HW232298   3.288   8.530   7.681 -0.2221  1.2625 -0.3735
10574SOL     OW32299   3.438   9.864   6.292  0.9045  0.1152 -0.7996
10574SOL    HW132300   3.496   9.940   6.301  0.2992  0.4471  0.5127
10574SOL    HW232301   3.469   9.803   6.359 -0.4265  0.4302  0.1360
10575SOL     OW32302   4.246   3.034   4.443  0.1359  0.2957 -0.9642
10575SOL    HW132303   4.180   3.015   4.510  1.5418 -1.1104  0.0986
10575SOL    HW232304   4.196   3.042   4.362 -1.3696 -0.6607 -0.1770
10576SOL     OW32305   4.479   8.523   3.757 -0.2745 -0.4955  0.4988
10576SOL    HW132306   4.559   8.542   3.806 -0.0247  0.3476 -0.2147
10576SOL    HW232307   4.424   8.474   3.819 -0.1831  0.9561  1.8163
10577SOL     OW32308   8.933   4.246   1.277  0.7616 -0.5268 -0.4449
10577SOL    HW132309   8.905   4.274   1.190  1.4781 -0.0002 -0.5175
10577SOL    HW232310   8.942   4.328   1.326  1.6197 -0.7230 -0.2621
10578SOL     OW32311   1.750   4.130   0.566 -0.2839 -0.0810 -0.0392
10578SOL    HW132312   1.784   4.064   0.627  1.2151  0.5980 -0.0880
10578SOL    HW232313   1.687   4.180   0.618 -1.8412 -1.8353 -0.1505
10579SOL     OW32314   3.018   9.842   6.361 -0.6244  0.6883  0.5357
10579SOL    HW132315   3.108   9.847   6.393  0.2612 -1.7918 -1.2001
10579SOL    HW232316   3.017   9.897   6.283  0.0185 -0.8150 -0.5765
10580SOL     OW32317   5.544   5.881   4.426 -0.0845 -0.2566  0.1004
10580SOL    HW132318   5.575   5.964   4.462 -0.6991  0.4675 -0.9926
10580SOL    HW232319   5.451   5.879   4.449  0.1273 -1.1266  0.9731
10581SOL     OW32320   5.385   2.430   4.292 -0.0810  0.7583 -0.0687
10581SOL    HW132321   5.413   2.504   4.345 -0.5193  1.3176 -0.6044
10581SOL    HW232322   5.412   2.353   4.342 -0.3536  1.2750  0.8836
10582SOL     OW32323   5.020   8.203   6.924  0.3712  0.3191  0.1358
10582SOL    HW132324   5.106   8.165   6.908  0.0007 -0.7706  0.5975
10582SOL    HW232325   4.993   8.238   6.839  1.3936  0.9732  0.0610
10583SOL     OW32326   4.467   7.491   6.396  0.2225  0.7266  0.4432
10583SOL    HW132327   4.515   7.570   6.373  0.5232  0.5535  0.4661
10583SOL    HW232328   4.377   7.520   6.408  0.1261  0.8824 -0.5785
10584SOL     OW32329   1.046   9.851   1.825 -0.1962 -0.5536  0.1547
10584SOL    HW132330   1.092   9.810   1.752  1.3854  0.9455  0.2244
10584SOL    HW232331   0.954   9.847   1.801  0.1945 -1.1552 -1.3577
10585SOL     OW32332   7.660   5.866   7.193 -0.0259  0.4057 -0.1360
10585SOL    HW132333   7.569   5.885   7.216  0.1920  0.8585  0.3666
10585SOL    HW232334   7.654   5.824   7.107 -0.5847  2.1678 -1.0161
10586SOL     OW32335   0.664   9.202   6.903 -0.0418 -0.5431 -0.3066
10586SOL    HW132336   0.747   9.155   6.900  0.8081  0.9645 -1.7681
10586SOL    HW232337   0.664   9.256   6.825 -0.6590  2.4265  1.5914
10587SOL     OW32338   2.871   3.982   7.890 -0.4903 -0.1453  0.3233
10587SOL    HW132339   2.880   3.910   7.953 -2.0767  0.8168  1.7430
10587SOL    HW232340   2.950   4.035   7.903 -0.7736  0.0131  1.5209
10588SOL     OW32341   3.857   9.886   2.535  0.1126  0.4119 -0.1403
10588SOL    HW132342   3.815   9.827   2.472  0.0338  1.1646 -0.8136
10588SOL    HW232343   3.819   9.972   2.515  1.1641  0.9084 -0.0197
10589SOL     OW32344   1.716   7.466   0.613 -0.1700  0.5876  0.1104
10589SOL    HW132345   1.637   7.517   0.632 -0.9329  0.0539 -1.4142
10589SOL    HW232346   1.730   7.414   0.691 -2.6483 -0.9221 -0.3350
10590SOL     OW32347   7.198   8.030   8.214 -0.0748 -0.3697  0.2450
10590SOL    HW132348   7.175   8.024   8.122  2.5279 -0.8442 -0.4449
10590SOL    HW232349   7.232   7.943   8.237  0.8357  0.2019  1.1792
10591SOL     OW32350   4.280   4.214   2.958  0.4593 -0.2820 -0.2339
10591SOL    HW132351   4.197   4.261   2.952 -0.0387 -0.9974  0.8599
10591SOL    HW232352   4.338   4.261   2.897 -0.2320  1.2877  0.2561
10592SOL     OW32353   4.486   3.667   1.226  0.1810 -0.1406 -0.0580
10592SOL    HW132354   4.469   3.706   1.140 -0.1468  0.7636  0.4023
10592SOL    HW232355   4.405   3.622   1.249 -0.2357  0.8355  0.4048
10593SOL     OW32356   4.615   2.291   8.338 -0.2912  0.7145  0.1576
10593SOL    HW132357   4.683   2.280   8.405 -0.3274  2.7618  0.6263
10593SOL    HW232358   4.538   2.317   8.388 -0.7599  0.6957 -0.5524
10594SOL     OW32359   5.980   5.776   4.188 -0.5303  0.7224 -0.2665
10594SOL    HW132360   5.902   5.827   4.208 -1.2169 -0.0510 -0.8710
10594SOL    HW232361   5.948   5.686   4.182  0.5540  0.2883  0.2485
10595SOL     OW32362   5.424   7.585   1.867 -0.3519 -0.1684  0.0441
10595SOL    HW132363   5.390   7.615   1.783 -1.8696 -1.6959  0.0791
10595SOL    HW232364   5.352   7.596   1.929 -0.2380 -1.7302  0.5169
10596SOL     OW32365   0.939   0.087   4.255 -0.6662 -0.9446  0.6027
10596SOL    HW132366   0.989   0.054   4.329  0.0288  0.6148  0.8754
10596SOL    HW232367   0.877   0.149   4.294 -0.2743 -0.0802 -0.1087
10597SOL     OW32368   2.676   4.057   8.450 -0.2196 -0.1109 -0.1270
10597SOL    HW132369   2.679   3.984   8.387  2.4821  0.1802 -0.4607
10597SOL    HW232370   2.687   4.015   8.535  0.9771 -0.1805 -0.2911
10598SOL     OW32371   6.454   1.070   9.472  0.2894 -0.7489 -0.1051
10598SOL    HW132372   6.381   1.015   9.499 -1.4937  1.2649 -0.5735
10598SOL    HW232373   6.462   1.056   9.378  0.2741 -0.6893 -0.1148
10599SOL     OW32374   7.142   5.090   9.753 -0.5675  0.7153  0.3285
10599SOL    HW132375   7.163   5.004   9.788 -1.5298  0.1869 -0.3615
10599SOL    HW232376   7.222   5.117   9.707 -0.9292 -0.7419 -1.2609
10600SOL     OW32377   8.924   6.276   1.975  0.2964 -0.2285 -0.2191
10600SOL    HW132378   8.951   6.353   2.025  1.5194 -0.3071 -0.7237
10600SOL    HW232379   8.966   6.287   1.890  2.0618 -2.3329  0.2928
10601SOL     OW32380   9.751   0.443   7.035 -0.2635 -0.4118 -0.1253
10601SOL    HW132381   9.656   0.445   7.043 -0.3092  1.9709 -0.4618
10601SOL    HW232382   9.768   0.471   6.946  0.7773 -1.4303 -0.2740
10602SOL     OW32383   4.960   8.719   0.464  0.5255 -0.0688  0.2961
10602SOL    HW132384   4.956   8.636   0.416  2.4797  0.8411 -1.6185
10602SOL    HW232385   4.883   8.767   0.436  0.5129 -0.4060 -0.2551
10603SOL     OW32386   6.451   4.035   0.249 -0.1077  0.0581 -0.2707
10603SOL    HW132387   6.472   4.129   0.245 -0.3602  0.1757  0.9965
10603SOL    HW232388   6.470   4.003   0.160  0.3108  1.2327 -0.6240
10604SOL     OW32389   8.972   4.868   0.514  0.1893 -0.4133  0.0731
10604SOL    HW132390   8.966   4.899   0.604 -0.5627 -1.3109  0.3441
10604SOL    HW232391   9.052   4.909   0.480  0.1728  0.3953  0.9550
10605SOL     OW32392   4.802   3.343   7.780  0.1450 -0.0441 -0.1650
10605SOL    HW132393   4.811   3.366   7.687  0.1172 -1.2414 -0.4840
10605SOL    HW232394   4.892   3.341   7.813  0.1244  0.8547 -0.0360
10606SOL     OW32395   3.041   6.727   6.475 -0.3056  0.4358  0.8366
10606SOL    HW132396   3.113   6.688   6.525  0.4813  0.6276 -0.1095
10606SOL    HW232397   2.962   6.691   6.515  0.3332 -0.3667  1.4236
10607SOL     OW32398   7.201   7.419   4.338  0.7197 -0.0921  0.0116
10607SOL    HW132399   7.245   7.465   4.267  0.3672 -0.8003 -0.6861
10607SOL    HW232400   7.246   7.335   4.344  0.4255 -0.2339  0.2899
10608SOL     OW32401   6.873   1.195   2.010  0.2328  0.3996 -0.6012
10608SOL    HW132402   6.937   1.150   2.065 -2.2763 -0.7343  1.6762
10608SOL    HW232403   6.859   1.135   1.936  1.3860  0.4139 -0.8381
10609SOL     OW32404   8.225   5.681   8.007  0.3338  0.1239 -0.0936
10609SOL    HW132405   8.313   5.656   8.036  0.3333  0.3435  0.0976
10609SOL    HW232406   8.178   5.703   8.087 -0.1126 -0.6613 -0.1286
10610SOL     OW32407   8.499   0.461   7.081  0.3750 -0.3532 -0.1983
10610SOL    HW132408   8.464   0.391   7.136  1.9216 -1.4355 -0.5186
10610SOL    HW232409   8.589   0.433   7.061  1.2226  1.9586  0.0618
10611SOL     OW32410   8.172   8.187   3.529  0.0378  0.1076  0.3840
10611SOL    HW132411   8.221   8.203   3.448  0.3062 -1.7510  0.1363
10611SOL    HW232412   8.228   8.127   3.579 -1.3248 -0.9234  0.7277
10612SOL     OW32413   3.929   2.673   0.820 -0.0000 -0.1746 -0.2678
10612SOL    HW132414   3.976   2.589   0.818 -0.3492 -0.3841  0.1407
10612SOL    HW232415   3.883   2.673   0.904  1.1935  1.0973  0.4150
10613SOL     OW32416   1.130   0.587   5.845  0.4693 -0.4699 -0.3035
10613SOL    HW132417   1.041   0.621   5.838  0.7596  0.6173  0.8391
10613SOL    HW232418   1.119   0.495   5.868 -0.3670 -0.4003 -0.3972
10614SOL     OW32419   8.234   2.995   5.752 -0.4080 -0.5594 -0.6040
10614SOL    HW132420   8.276   2.931   5.809  1.2704 -0.3759 -1.5718
10614SOL    HW232421   8.165   3.033   5.806  1.4020 -0.0241  1.4909
10615SOL     OW32422   7.332   3.865   4.257  0.2455 -0.3127  0.6195
10615SOL    HW132423   7.360   3.815   4.180 -1.6715  0.0082 -0.3404
10615SOL    HW232424   7.270   3.807   4.302  0.3646  0.0126  1.2228
10616SOL     OW32425   6.850   6.850   0.721 -0.3474  0.1136  0.2317
10616SOL    HW132426   6.789   6.849   0.647  1.2864  1.1351 -1.2145
10616SOL    HW232427   6.797   6.824   0.796 -2.1347 -0.7529 -1.2426
10617SOL     OW32428   4.256   2.660   9.353  0.1013 -0.3537  0.4826
10617SOL    HW132429   4.244   2.595   9.422 -0.9677 -0.9747 -0.2447
10617SOL    HW232430   4.289   2.610   9.278  0.0416  0.0854  0.1563
10618SOL     OW32431   5.948   2.329   7.092 -0.2719 -0.0274 -0.5482
10618SOL    HW132432   5.899   2.263   7.043 -1.0019  1.1607 -1.4603
10618SOL    HW232433   5.970   2.396   7.028 -0.2626  1.0276  0.5170
10619SOL     OW32434   3.604   7.614   0.954 -0.0147 -0.6460 -0.4350
10619SOL    HW132435   3.689   7.654   0.971 -0.3509  1.5129 -3.0816
10619SOL    HW232436   3.619   7.520   0.961  2.4971 -0.2984 -0.4537
10620SOL     OW32437   0.765   7.412   1.546  0.8725 -0.1474  0.0525
10620SOL    HW132438   0.859   7.395   1.550  0.6652 -1.1736  0.9775
10620SOL    HW232439   0.755   7.477   1.476  2.5816  2.3327  1.9122
10621SOL     OW32440   8.841   9.023   4.499 -0.0918 -0.2540  0.2545
10621SOL    HW132441   8.924   9.070   4.508 -0.3335  0.6213 -1.5283
10621SOL    HW232442   8.859   8.936   4.535  1.6296 -0.0987 -0.1031
10622SOL     OW32443   6.881   5.995   8.517 -0.4522 -0.3782 -0.3521
10622SOL    HW132444   6.870   5.913   8.468 -0.7743 -1.1755  0.9877
10622SOL    HW232445   6.795   6.012   8.556  0.2074 -0.7964  1.4147
10623SOL     OW32446   8.020   0.102   3.913  0.0530 -0.1420  0.2447
10623SOL    HW132447   7.975   0.121   3.996 -2.1603 -1.0328 -0.6526
10623SOL    HW232448   8.022   0.007   3.909  3.3586 -0.1927  0.8291
10624SOL     OW32449   6.083   4.764   5.879 -0.2853  0.5437  0.0765
10624SOL    HW132450   6.070   4.859   5.871  1.3547  0.7812 -0.1381
10624SOL    HW232451   6.073   4.731   5.790 -1.8415  0.3520  0.2997
10625SOL     OW32452   8.929   6.964   4.309 -0.1593  0.0322  0.4879
10625SOL    HW132453   8.841   6.970   4.347 -0.4503  2.9254 -0.4032
10625SOL    HW232454   8.932   7.034   4.244  3.0034  0.3983  0.8739
10626SOL     OW32455   1.769   9.433   0.671 -0.5495  0.0787  0.1919
10626SOL    HW132456   1.817   9.372   0.727 -0.5873 -1.8577 -1.7441
10626SOL    HW232457   1.828   9.507   0.660  0.8782 -1.0412  0.0574
10627SOL     OW32458   6.868   0.304   3.104  0.4314  0.1393  0.1450
10627SOL    HW132459   6.888   0.215   3.075  0.8175  0.7682 -1.6422
10627SOL    HW232460   6.929   0.360   3.055 -1.2623  1.5701 -0.4353
10628SOL     OW32461   8.548   3.566   3.364 -0.5026 -0.5369 -0.0488
10628SOL    HW132462   8.621   3.608   3.410  1.2273 -0.8175 -2.3403
10628SOL    HW232463   8.470   3.591   3.413  0.8759  1.9301  1.0273
10629SOL     OW32464   7.419   5.297   8.525 -0.2535  0.5243  0.0604
10629SOL    HW132465   7.342   5.353   8.534 -0.4998  0.6070 -2.0199
10629SOL    HW232466   7.475   5.342   8.462  1.0430 -0.0424  0.7508
10630SOL     OW32467   9.088   4.027   6.404  0.5240  0.4048 -0.1369
10630SOL    HW132468   9.034   4.104   6.388 -1.0997 -0.6884 -0.1894
10630SOL    HW232469   9.156   4.031   6.337 -1.5425  0.0520 -2.4188
10631SOL     OW32470   0.317   8.711   9.540  0.2746  0.3804  0.5741
10631SOL    HW132471   0.225   8.730   9.524 -0.3436 -1.3650  1.7855
10631SOL    HW232472   0.355   8.703   9.452 -1.5997 -2.7056 -0.0960
10632SOL     OW32473   8.721   9.125   4.982 -0.1469  0.6866  0.0614
10632SOL    HW132474   8.745   9.129   4.890 -0.6720  1.4163 -0.0532
10632SOL    HW232475   8.625   9.118   4.981 -0.0285 -2.2946  0.4954
10633SOL     OW32476   6.801   5.270   9.846  0.0816 -0.5910  0.2145
10633SOL    HW132477   6.815   5.225   9.929 -0.5081 -1.7344 -0.2824
10633SOL    HW232478   6.881   5.322   9.833  0.3939 -0.7975  1.2421
10634SOL     OW32479   3.007   2.255   3.954 -0.3692  0.0811  0.5410
10634SOL    HW132480   2.981   2.230   4.043 -0.1761  0.0710  0.5955
10634SOL    HW232481   2.943   2.212   3.898 -0.4033 -0.0360  0.6684
10635SOL     OW32482   5.483   3.636   0.527  0.6786 -0.4861  0.1879
10635SOL    HW132483   5.490   3.542   0.515  0.5197 -0.6042  0.9577
10635SOL    HW232484   5.434   3.647   0.609 -0.9382  0.2788 -0.8442
10636SOL     OW32485   1.347   7.558   5.961  0.4381  0.7212  0.3463
10636SOL    HW132486   1.376   7.534   6.049 -0.5220 -2.5774 -0.0854
10636SOL    HW232487   1.253   7.568   5.968  0.5982  2.9237  0.0943
10637SOL     OW32488   6.240   3.261   7.044  0.3571 -0.3548  0.1036
10637SOL    HW132489   6.170   3.201   7.071 -1.4144  2.3041  1.9953
10637SOL    HW232490   6.321   3.220   7.075 -0.6918 -1.9776  0.8410
10638SOL     OW32491   6.212   1.667   0.310 -0.4527 -0.7090 -0.1692
10638SOL    HW132492   6.303   1.686   0.289 -0.9506  1.9855 -0.2149
10638SOL    HW232493   6.206   1.572   0.305  2.1749 -0.9209 -0.8437
10639SOL     OW32494   5.542   5.402   8.617  0.0548  0.1874  0.0266
10639SOL    HW132495   5.625   5.359   8.597  0.1665  0.9520 -1.2423
10639SOL    HW232496   5.540   5.479   8.560 -0.9494  0.8923  0.9633
10640SOL     OW32497   5.035   4.270   8.563  0.1096 -0.4888  0.0211
10640SOL    HW132498   4.954   4.258   8.612  0.2883 -0.3818  0.3463
10640SOL    HW232499   5.046   4.365   8.557 -0.3547 -0.4834 -0.9701
10641SOL     OW32500   0.293   9.462  -0.001  0.5537  0.3172 -0.4656
10641SOL    HW132501   0.216   9.417  -0.036  1.0186 -0.4532 -0.5335
10641SOL    HW232502   0.329   9.402   0.064  0.6585  1.0094  0.1355
10642SOL     OW32503   9.352   0.817   5.960 -0.1873  0.9417  0.2122
10642SOL    HW132504   9.441   0.842   5.935 -0.1211  0.7966  0.3018
10642SOL    HW232505   9.357   0.722   5.976  0.2829  1.3347  2.8443
10643SOL     OW32506   4.100   5.766   0.981 -0.2324  0.4022  0.4984
10643SOL    HW132507   4.037   5.721   1.037 -0.2071 -1.2491 -0.7207
10643SOL    HW232508   4.112   5.707   0.906  0.8452  1.8453 -0.5258
10644SOL     OW32509   2.770   5.049   2.654 -0.3873 -0.6732  0.0865
10644SOL    HW132510   2.693   5.099   2.627 -1.7860 -1.1267  2.8427
10644SOL    HW232511   2.823   5.111   2.703 -0.4045 -1.0419  0.5784
10645SOL     OW32512   3.813   0.905   9.055 -0.1585 -0.2504  0.0152
10645SOL    HW132513   3.759   0.870   8.984 -0.9315 -0.8738  0.8896
10645SOL    HW232514   3.750   0.934   9.121  0.5561 -0.1078  0.6503
10646SOL     OW32515   8.091   8.596   4.337  0.2079  0.3271  0.3671
10646SOL    HW132516   8.055   8.627   4.420  0.6327  0.4782  0.5017
10646SOL    HW232517   8.154   8.528   4.362 -0.0931 -0.0408  0.1278
10647SOL     OW32518   0.772   2.867   4.303 -0.3316 -0.1652  0.1602
10647SOL    HW132519   0.678   2.881   4.295  0.2631  3.8739 -3.5895
10647SOL    HW232520   0.811   2.937   4.251  4.8512 -1.0494  2.2546
10648SOL     OW32521   0.389   9.542   5.366 -0.0079  0.5153 -0.8758
10648SOL    HW132522   0.476   9.547   5.407 -0.0407  0.7121 -0.8311
10648SOL    HW232523   0.329   9.573   5.433 -0.4656 -2.2922  0.1568
10649SOL     OW32524   0.443   2.402   6.362  0.1013  0.1889  0.2648
10649SOL    HW132525   0.385   2.453   6.419 -0.4335 -0.4250  0.2853
10649SOL    HW232526   0.518   2.380   6.417  1.2865  2.5680 -0.2862
10650SOL     OW32527   8.268   3.206   5.468  0.4372  0.6478 -0.2798
10650SOL    HW132528   8.308   3.180   5.385  1.3130 -1.8266  0.8121
10650SOL    HW232529   8.189   3.153   5.474  0.2862  0.9435  0.3821
10651SOL     OW32530   5.693   9.006   1.961  0.1232  0.0939 -0.1023
10651SOL    HW132531   5.650   8.958   2.031 -0.7035 -0.2842 -0.8407
10651SOL    HW232532   5.772   8.955   1.942  0.2460  0.0891  0.4133
10652SOL     OW32533   1.136   8.420   6.422  0.0657 -0.3680 -0.1296
10652SOL    HW132534   1.218   8.459   6.453 -0.2556  0.8359 -0.7550
10652SOL    HW232535   1.145   8.326   6.442  0.9989 -0.0450  1.0790
10653SOL     OW32536   9.738   1.019   4.033 -0.0919  0.5306 -0.0268
10653SOL    HW132537   9.743   0.990   4.125  1.1331  0.3737 -0.1279
10653SOL    HW232538   9.818   0.985   3.993 -1.5545 -1.2230 -1.6986
10654SOL     OW32539   3.113   8.284   7.355 -0.3746  0.4551  0.5314
10654SOL    HW132540   3.199   8.243   7.367 -1.1325 -0.5889  3.0911
10654SOL    HW232541   3.119   8.367   7.403 -1.1210 -0.2012  1.8197
10655SOL     OW32542   9.227   3.061   6.752  0.3313 -0.0150  0.2491
10655SOL    HW132543   9.236   3.142   6.803 -0.9180  0.0807  0.3717
10655SOL    HW232544   9.311   3.050   6.708  0.5642  1.2875  0.3226
10656SOL     OW32545   4.447   0.748   6.405 -0.0338 -0.0821  0.4052
10656SOL    HW132546   4.508   0.773   6.336 -0.1136  2.0249  1.0439
10656SOL    HW232547   4.463   0.811   6.475 -2.4720  0.0967  0.8667
10657SOL     OW32548   7.006   5.553   9.569 -0.5129 -0.2220  0.1433
10657SOL    HW132549   7.007   5.463   9.538 -1.9591 -0.2450  0.1171
10657SOL    HW232550   7.075   5.556   9.636  0.9099 -0.8151 -1.2337
10658SOL     OW32551   8.076   6.490   9.441  0.2465 -0.1518  0.2698
10658SOL    HW132552   8.042   6.553   9.505  1.5779  2.4474 -1.3948
10658SOL    HW232553   8.109   6.417   9.493 -0.5314  0.9414  2.3860
10659SOL     OW32554   5.955   4.139   6.321 -1.1089  0.2870  0.0489
10659SOL    HW132555   6.021   4.197   6.284 -0.4705 -0.0770  0.6156
10659SOL    HW232556   5.974   4.135   6.414 -0.6269 -1.4648 -0.0885
10660SOL     OW32557   7.052   8.306   5.633  0.0331  0.1926 -0.1190
10660SOL    HW132558   7.010   8.251   5.567 -3.1322  0.6143  1.3056
10660SOL    HW232559   7.087   8.245   5.697 -0.8681 -0.2385 -0.0136
10661SOL     OW32560   8.623   4.394   7.326  0.5813  0.0848 -0.1392
10661SOL    HW132561   8.686   4.420   7.394  0.5466  0.3101 -0.1938
10661SOL    HW232562   8.595   4.476   7.287  0.2030 -0.0123 -0.0734
10662SOL     OW32563   1.645   6.451   5.678 -0.1736 -0.3926  0.3299
10662SOL    HW132564   1.661   6.437   5.772  1.3631  0.6950  0.2654
10662SOL    HW232565   1.726   6.489   5.645 -0.8973 -0.2090 -1.3389
10663SOL     OW32566   5.323   6.358   5.938  0.5259 -0.2052  0.5135
10663SOL    HW132567   5.287   6.286   5.887  1.7543 -0.1640 -0.4743
10663SOL    HW232568   5.289   6.345   6.027  1.9241 -2.9286  0.7557
10664SOL     OW32569   5.381   2.599   3.554 -0.0631  0.0487  0.0750
10664SOL    HW132570   5.314   2.574   3.490 -0.1332 -1.2963  0.6387
10664SOL    HW232571   5.332   2.622   3.633  0.1168 -3.0677  1.2210
10665SOL     OW32572   4.561   5.248   0.626  0.0890 -0.5448 -0.6412
10665SOL    HW132573   4.473   5.245   0.587 -0.2098 -1.4920  0.0613
10665SOL    HW232574   4.619   5.219   0.556 -0.2001 -0.2684 -0.9998
10666SOL     OW32575   7.964   1.315   8.087  0.2456 -0.0558  0.0636
10666SOL    HW132576   7.889   1.363   8.121 -0.0192  0.2316 -0.8923
10666SOL    HW232577   8.004   1.374   8.023  0.7064 -0.5848 -0.1474
10667SOL     OW32578   6.600   4.911   6.252 -0.0572  0.1451  0.1004
10667SOL    HW132579   6.628   4.885   6.164  0.3117 -0.4749  0.3947
10667SOL    HW232580   6.590   5.006   6.247  0.1524  0.1362 -0.5590
10668SOL     OW32581   4.043   0.343   6.649 -0.4339  0.2646  0.2821
10668SOL    HW132582   3.973   0.322   6.710 -0.5548  0.8299  0.3475
10668SOL    HW232583   4.009   0.416   6.597 -0.4251 -0.3726 -0.6325
10669SOL     OW32584   9.832   1.202   1.991  0.1134  0.3638 -0.0735
10669SOL    HW132585   9.747   1.177   2.028  0.3487 -0.7874 -0.2661
10669SOL    HW232586   9.894   1.188   2.064  0.0118  2.3227  0.4414
10670SOL     OW32587   1.721   4.338   8.329  0.1424 -0.3615  0.3532
10670SOL    HW132588   1.739   4.247   8.355  0.2940 -0.8000 -1.1979
10670SOL    HW232589   1.631   4.335   8.296  0.7683 -0.3794 -1.4478
10671SOL     OW32590   8.862   1.396   9.924  0.0098  0.2325 -0.1863
10671SOL    HW132591   8.924   1.340   9.876 -0.7163 -0.0400 -0.8289
10671SOL    HW232592   8.796   1.337   9.957  0.6139  0.3928  1.3935
10672SOL     OW32593   6.504   2.782   2.533  0.1640 -0.1514  0.0298
10672SOL    HW132594   6.560   2.854   2.560 -0.6696  0.0373  1.3142
10672SOL    HW232595   6.424   2.824   2.501 -0.0739 -0.4884  0.1768
10673SOL     OW32596   8.175   9.001   1.420  0.2142  0.3723  0.5778
10673SOL    HW132597   8.189   8.937   1.350 -0.6463  0.6989  0.0929
10673SOL    HW232598   8.192   9.086   1.379  0.0957  0.5419  0.8731
10674SOL     OW32599   8.392   3.399   8.706 -0.1118  0.0792  0.0028
10674SOL    HW132600   8.403   3.317   8.657 -0.0945 -0.3683  0.7425
10674SOL    HW232601   8.471   3.449   8.688  0.5240 -0.6622  0.6459
10675SOL     OW32602   4.234   4.159   4.422 -0.4187 -0.1330 -0.3145
10675SOL    HW132603   4.258   4.249   4.443  0.2658 -0.8175  2.1196
10675SOL    HW232604   4.155   4.141   4.473 -1.0592 -0.6855 -1.4388
10676SOL     OW32605   8.902   6.273   0.096 -0.4827 -0.0560 -0.1258
10676SOL    HW132606   8.852   6.354   0.086  1.1323  1.1325  0.9519
10676SOL    HW232607   8.844   6.214   0.143 -1.9559  0.1877 -1.5569
10677SOL     OW32608   4.293   9.906   8.408 -0.2202 -0.0407 -0.0446
10677SOL    HW132609   4.346   9.944   8.337 -0.5472  0.3880 -0.0666
10677SOL    HW232610   4.304   9.812   8.399  0.3506  0.0383 -0.1966
10678SOL     OW32611   7.473   4.288   1.201 -0.0399  0.8071  0.3971
10678SOL    HW132612   7.407   4.329   1.258  0.4559  0.9123  0.9063
10678SOL    HW232613   7.480   4.199   1.235  1.7360  1.4417  1.8562
10679SOL     OW32614   4.711   3.668   9.758  0.5109 -0.6435 -0.0533
10679SOL    HW132615   4.651   3.727   9.804  0.5602 -0.2749 -0.4549
10679SOL    HW232616   4.759   3.725   9.698 -1.1580 -1.4434 -2.2623
10680SOL     OW32617   0.883   0.663   0.247 -0.5414  0.0864 -0.1583
10680SOL    HW132618   0.880   0.630   0.337 -0.0796 -1.3989 -0.6611
10680SOL    HW232619   0.800   0.637   0.208 -1.7041  2.6177  0.4068
10681SOL     OW32620   0.793   0.153   0.764  0.4497  0.4096 -0.1011
10681SOL    HW132621   0.860   0.117   0.706 -0.3539  1.0270 -1.4773
10681SOL    HW232622   0.740   0.078   0.789  1.7551 -0.1344  1.2188
10682SOL     OW32623   4.932   0.798   0.815 -0.4708  0.7368  0.1599
10682SOL    HW132624   4.850   0.828   0.775 -0.0108  2.5825  0.5335
10682SOL    HW232625   4.998   0.860   0.784  0.4126  0.4843  1.4868
10683SOL     OW32626   1.176   3.474   9.684  0.5613  0.0896  0.9955
10683SOL    HW132627   1.176   3.394   9.736 -0.0537 -1.8246 -1.7481
10683SOL    HW232628   1.257   3.469   9.633 -1.4356 -1.1971 -2.4024
10684SOL     OW32629   4.588   9.210   6.192 -0.0641 -0.2191  0.0055
10684SOL    HW132630   4.526   9.282   6.193  1.7529  1.4195  0.7600
10684SOL    HW232631   4.575   9.168   6.106 -1.3141  0.8510 -0.3477
10685SOL     OW32632   4.607   3.063   9.056 -0.0026 -0.6644 -0.6809
10685SOL    HW132633   4.539   3.002   9.086  0.9799 -1.5203 -0.1313
10685SOL    HW232634   4.579   3.088   8.968 -1.5614 -0.1863 -0.0774
10686SOL     OW32635   0.110   2.728   0.706  0.2122  0.8336  0.3009
10686SOL    HW132636   0.073   2.676   0.634  0.2685 -0.0859  0.9086
10686SOL    HW232637   0.095   2.674   0.784  0.6805  1.5440  0.8973
10687SOL     OW32638   1.841   6.925   7.469  0.0556 -0.0288  0.4091
10687SOL    HW132639   1.867   6.843   7.425  2.2722  0.8705 -0.0868
10687SOL    HW232640   1.751   6.909   7.496 -0.4247 -1.7507 -1.8157
10688SOL     OW32641   2.511   7.581   5.553  0.3364  0.4996  0.0391
10688SOL    HW132642   2.578   7.567   5.485 -0.4297  0.1180 -0.6626
10688SOL    HW232643   2.466   7.497   5.560  0.3923  0.5424  1.0224
10689SOL     OW32644   0.837   7.296   0.769 -0.2530 -0.6750  0.6726
10689SOL    HW132645   0.774   7.261   0.833  0.6585 -1.6621  1.0583
10689SOL    HW232646   0.922   7.263   0.798  1.1236  3.6348  2.4239
10690SOL     OW32647   5.298   1.171   2.500  0.6126 -0.8758  0.5206
10690SOL    HW132648   5.208   1.142   2.487  0.0857 -0.4185  2.6412
10690SOL    HW232649   5.295   1.266   2.490  1.0478 -0.9408 -0.2676
10691SOL     OW32650   8.209   6.646   6.847 -0.1546  0.2133 -0.2371
10691SOL    HW132651   8.118   6.635   6.821 -1.1318  0.1621  2.8056
10691SOL    HW232652   8.251   6.689   6.773 -2.5448 -0.1053 -1.8614
10692SOL     OW32653   4.956   6.707   7.170 -0.1244 -0.1664  0.2102
10692SOL    HW132654   4.995   6.703   7.083  0.6454 -1.6217  0.5890
10692SOL    HW232655   4.867   6.739   7.155  0.1413  0.0291 -1.0494
10693SOL     OW32656   1.533   1.400   7.044  0.4249  0.3506  0.2914
10693SOL    HW132657   1.484   1.406   6.962  1.3357 -0.5659 -0.3410
10693SOL    HW232658   1.621   1.428   7.022  0.2389  1.9949  1.4258
10694SOL     OW32659   7.962   1.183   9.315  1.0146  0.2102  0.3604
10694SOL    HW132660   7.930   1.156   9.229  0.1096  0.4548  0.6134
10694SOL    HW232661   7.989   1.101   9.357  3.4519  0.2643 -0.9053
10695SOL     OW32662   7.512   7.208   7.961 -0.3474 -0.1949  0.1286
10695SOL    HW132663   7.543   7.142   7.898  0.8114 -0.3536  0.8401
10695SOL    HW232664   7.522   7.167   8.046 -1.6641  0.1219  0.4543
10696SOL     OW32665   2.438   8.115   7.940  0.0320 -0.3994  0.2262
10696SOL    HW132666   2.398   8.051   8.000  0.9498 -1.3629 -0.1637
10696SOL    HW232667   2.506   8.066   7.895  0.0091  0.5827 -0.9063
10697SOL     OW32668   4.679   0.082   4.189  0.1782 -0.1549  0.0418
10697SOL    HW132669   4.705   0.083   4.097  0.5236 -0.7782  0.1291
10697SOL    HW232670   4.590   0.048   4.189 -0.7790  2.1511 -0.2754
10698SOL     OW32671   9.106   3.566   4.528 -0.2614 -0.1921  0.0774
10698SOL    HW132672   9.023   3.573   4.574 -0.1872  0.3794  0.1395
10698SOL    HW232673   9.138   3.656   4.524  1.1224 -0.5623  1.4718
10699SOL     OW32674   5.987   5.034   6.858 -0.0520 -0.6520 -0.7577
10699SOL    HW132675   6.043   4.967   6.818 -0.5335 -0.5360 -1.6298
10699SOL    HW232676   6.005   5.114   6.810  1.2106  0.1120  0.8785
10700SOL     OW32677   3.144   4.029   9.901  0.0527 -0.4790 -0.2433
10700SOL    HW132678   3.215   4.085   9.868  0.5472 -1.7199 -1.3804
10700SOL    HW232679   3.182   3.985   9.977  0.2691 -0.5982 -0.4172
10701SOL     OW32680   9.100   6.804   3.446 -0.0156 -0.0025  0.0637
10701SOL    HW132681   9.169   6.763   3.498  0.4453  1.6002  0.7957
10701SOL    HW232682   9.048   6.852   3.510  1.0558  2.7173 -0.9303
10702SOL     OW32683   4.480   2.929   2.937  0.1918 -0.2963  0.0683
10702SOL    HW132684   4.547   2.996   2.924 -0.3277  0.0133 -1.2279
10702SOL    HW232685   4.409   2.974   2.982 -0.3797  0.2076 -1.2774
10703SOL     OW32686   5.544   3.877   4.980 -0.3553  0.3750  0.1580
10703SOL    HW132687   5.549   3.800   4.923  0.1177  0.6842 -0.2182
10703SOL    HW232688   5.602   3.941   4.940 -1.0391  1.0724  0.2564
10704SOL     OW32689   1.612   2.411   3.549  0.1786 -0.4047 -0.3563
10704SOL    HW132690   1.659   2.411   3.633  0.2635  0.5698 -0.3902
10704SOL    HW232691   1.534   2.464   3.565 -0.8555 -1.8574 -0.3543
10705SOL     OW32692   0.409   9.554   6.773  0.0547 -0.2803 -0.5243
10705SOL    HW132693   0.359   9.472   6.765 -0.2813 -0.0840 -0.4650
10705SOL    HW232694   0.467   9.554   6.697 -0.2233 -0.3885 -0.7399
10706SOL     OW32695   7.825   2.158   5.235 -0.1360 -0.2601  0.1328
10706SOL    HW132696   7.836   2.253   5.235 -1.5723 -0.0530  1.7598
10706SOL    HW232697   7.908   2.123   5.268 -0.9540  0.7116  3.5368
10707SOL     OW32698   6.747   0.257   9.221  0.0822  0.3166  0.5707
10707SOL    HW132699   6.803   0.324   9.261 -1.6959  1.4516  1.3026
10707SOL    HW232700   6.670   0.254   9.277  0.0150 -2.2884  0.4742
10708SOL     OW32701   2.686   8.708   9.233 -0.4209  0.4585  0.3311
10708SOL    HW132702   2.754   8.757   9.187 -1.3910  0.1495 -1.5094
10708SOL    HW232703   2.729   8.677   9.313  1.0074  1.9182  0.1847
10709SOL     OW32704   4.896   0.802   9.324  0.4190 -0.5675  0.3384
10709SOL    HW132705   4.907   0.721   9.374  1.2364  0.5914  2.1243
10709SOL    HW232706   4.892   0.871   9.390 -0.6759  0.8337 -1.1224
10710SOL     OW32707   6.930   7.692   8.094 -0.3574  0.1272  0.3813
10710SOL    HW132708   7.022   7.719   8.098 -0.1471 -0.4115 -0.5791
10710SOL    HW232709   6.896   7.710   8.182 -0.0486  2.8185  0.0398
10711SOL     OW32710   2.404   0.489   4.550  0.2369  0.0837 -0.3885
10711SOL    HW132711   2.415   0.527   4.637 -2.8070 -0.4702  0.3460
10711SOL    HW232712   2.493   0.487   4.514  1.4703  1.2651  2.2732
10712SOL     OW32713   9.901   6.423   0.670  0.0920 -0.1171  0.2694
10712SOL    HW132714   9.915   6.459   0.582 -1.2514 -0.3708 -0.0685
10712SOL    HW232715   9.899   6.500   0.727 -3.4137  0.5570 -0.5287
10713SOL     OW32716   8.018   8.152   2.606  0.3413 -0.0229 -0.3166
10713SOL    HW132717   8.100   8.166   2.655  1.0813 -3.6500 -0.1862
10713SOL    HW232718   8.044   8.159   2.514  1.1505 -2.1444 -0.3110
10714SOL     OW32719   7.265   2.371   9.938  0.1713 -0.8233 -0.5985
10714SOL    HW132720   7.174   2.340   9.943  0.1279 -0.5212  1.6509
10714SOL    HW232721   7.256   2.467   9.933  0.2729 -0.5672  2.1987
10715SOL     OW32722   7.490   6.658   1.567 -0.4390  0.2984  1.2738
10715SOL    HW132723   7.521   6.748   1.558  1.8294 -0.5821 -1.4387
10715SOL    HW232724   7.405   6.658   1.523  0.1112  0.9089  0.1611
10716SOL     OW32725   7.776   0.482   5.715 -0.4148 -0.2909 -0.3583
10716SOL    HW132726   7.797   0.409   5.775  0.1820 -0.3383 -0.6161
10716SOL    HW232727   7.784   0.443   5.628 -0.9119 -0.1241 -0.4773
10717SOL     OW32728   6.415   0.334   7.039 -0.3544 -0.1451  0.2500
10717SOL    HW132729   6.409   0.286   6.956  0.1366 -0.4482  0.3858
10717SOL    HW232730   6.435   0.267   7.104  0.8521  0.2989  0.3625
10718SOL     OW32731   7.645   0.984   1.610 -0.3125  0.7550  0.5975
10718SOL    HW132732   7.660   0.986   1.516  0.5637  0.7927  0.7285
10718SOL    HW232733   7.723   0.942   1.646 -1.4166 -0.9223  1.1656
10719SOL     OW32734   5.919   6.191   7.852  0.0110  1.0303  0.7500
10719SOL    HW132735   5.898   6.280   7.825  1.4832  1.7347  1.8117
10719SOL    HW232736   5.929   6.144   7.769  0.7290  2.2300  0.1228
10720SOL     OW32737   8.982   4.966   9.366 -0.0780 -0.0494  0.0160
10720SOL    HW132738   8.891   4.958   9.340 -0.2814  1.9610 -0.0207
10720SOL    HW232739   9.003   4.881   9.407 -1.2773 -1.3355 -1.8962
10721SOL     OW32740   3.741   8.490   8.216  0.4099  0.0638 -0.5538
10721SOL    HW132741   3.829   8.460   8.237  1.5651  1.3852 -3.0165
10721SOL    HW232742   3.706   8.423   8.157 -1.2713 -1.6643  2.2060
10722SOL     OW32743   2.750   5.264   7.975 -0.1491 -0.2755  0.0540
10722SOL    HW132744   2.842   5.242   7.987  0.2104  0.8017 -0.6409
10722SOL    HW232745   2.703   5.198   8.026  1.0254 -0.4551  0.9346
10723SOL     OW32746   8.964   9.589   7.949  0.4751  0.3067 -0.1507
10723SOL    HW132747   8.986   9.585   8.042  0.1850 -1.5151 -0.1294
10723SOL    HW232748   9.047   9.570   7.904  0.2268 -0.7034 -0.2029
10724SOL     OW32749   3.691   4.219   8.715  0.5190 -0.6992 -0.3526
10724SOL    HW132750   3.618   4.236   8.655  0.6613  2.6591  0.2519
10724SOL    HW232751   3.766   4.203   8.658  0.1672  0.0270 -1.0317
10725SOL     OW32752   7.107   6.197   7.697 -0.2984 -0.1972 -0.1743
10725SOL    HW132753   7.050   6.236   7.763 -0.5627 -1.2646  0.2433
10725SOL    HW232754   7.060   6.118   7.668  0.9392 -1.0668  0.1429
10726SOL     OW32755   7.616   7.854   6.774  0.1956 -0.2057  0.4672
10726SOL    HW132756   7.580   7.939   6.801 -0.5600 -0.5770  0.6399
10726SOL    HW232757   7.612   7.800   6.852 -3.2372 -1.7128 -0.5698
10727SOL     OW32758   3.231   6.559   1.329 -0.2629 -0.2186 -0.1396
10727SOL    HW132759   3.314   6.591   1.364 -0.6470  1.7616 -0.8920
10727SOL    HW232760   3.245   6.465   1.317  2.1372  0.1434 -0.8970
10728SOL     OW32761   6.646   9.204   2.850 -0.6266  0.4137  0.3664
10728SOL    HW132762   6.730   9.239   2.822 -0.6297 -1.5635 -2.6314
10728SOL    HW232763   6.668   9.127   2.903 -0.5235  0.3569  0.2433
10729SOL     OW32764   6.334   4.345   9.567  0.1605  0.4332 -0.4589
10729SOL    HW132765   6.296   4.402   9.500  0.7683 -0.0863 -1.2586
10729SOL    HW232766   6.411   4.394   9.599 -1.8774  2.1787  2.2254
10730SOL     OW32767   1.554   5.004   6.894 -0.1940  0.1825 -0.0893
10730SOL    HW132768   1.538   5.056   6.815  0.4861  0.9962  0.2889
10730SOL    HW232769   1.649   5.005   6.904 -0.2659 -0.0425  0.6610
10731SOL     OW32770   3.347   9.666   5.926  0.3419 -0.1431 -0.0842
10731SOL    HW132771   3.418   9.602   5.918 -0.4707 -1.0785  0.0073
10731SOL    HW232772   3.381   9.745   5.884  0.6301 -1.2466 -2.0766
10732SOL     OW32773   7.990   9.003   8.040  0.5040 -0.1912  0.5392
10732SOL    HW132774   8.003   8.920   7.993  0.6894 -0.6790  1.4130
10732SOL    HW232775   8.046   9.065   7.994  0.8961 -0.7211  0.2840
10733SOL     OW32776   6.844   9.616   3.673  0.0426  0.0014 -0.2856
10733SOL    HW132777   6.790   9.545   3.640  2.0040 -0.7135 -2.2650
10733SOL    HW232778   6.794   9.695   3.654 -0.5711 -0.6601 -1.5331
10734SOL     OW32779   3.819   6.560   5.047  0.0143 -0.3054  0.2721
10734SOL    HW132780   3.843   6.505   5.121 -3.9808  0.2040  2.2133
10734SOL    HW232781   3.871   6.639   5.058  0.8521 -0.9899  1.4493
10735SOL     OW32782   5.714   0.060   8.999 -0.2432 -0.2892  0.0310
10735SOL    HW132783   5.693   0.021   8.914 -0.9137  0.0052  0.0638
10735SOL    HW232784   5.638   0.042   9.053 -0.7034  1.3270 -0.0307
10736SOL     OW32785   3.609   0.428   4.299 -0.3686 -0.2338 -0.1096
10736SOL    HW132786   3.635   0.505   4.350 -2.6117  1.0384 -0.7650
10736SOL    HW232787   3.536   0.458   4.246 -0.4499 -2.5033 -1.3890
10737SOL     OW32788   9.252   5.747   0.651 -0.5433 -0.6602  0.0183
10737SOL    HW132789   9.321   5.682   0.638  1.8068  1.5884  0.5367
10737SOL    HW232790   9.223   5.732   0.741 -0.3754 -1.3017 -0.0276
10738SOL     OW32791   5.858   8.356   7.704 -0.0992 -0.2357 -0.2512
10738SOL    HW132792   5.775   8.324   7.669  0.3676  0.1146 -1.7091
10738SOL    HW232793   5.924   8.294   7.672  0.5569  1.0338 -1.4777
10739SOL     OW32794   3.690   8.058   0.295 -0.1620 -0.2838  0.0845
10739SOL    HW132795   3.724   8.028   0.379 -2.5246 -3.1285  0.1812
10739SOL    HW232796   3.641   8.138   0.316  0.1165 -0.3973  1.2383
10740SOL     OW32797   2.185   7.963   9.654 -0.3466 -0.1173 -0.2384
10740SOL    HW132798   2.163   8.021   9.726  0.7946  0.1615 -0.0890
10740SOL    HW232799   2.278   7.980   9.637 -0.3516 -0.8757 -1.1307
10741SOL     OW32800   6.518   5.304   6.708  0.3172 -0.2745  0.0772
10741SOL    HW132801   6.509   5.381   6.651  0.2452  0.2818  0.8326
10741SOL    HW232802   6.532   5.340   6.795 -2.7916 -1.0320  1.0295
10742SOL     OW32803   8.585   3.024   0.410  0.7694 -1.0224  0.2184
10742SOL    HW132804   8.619   2.935   0.421  1.5067 -0.8113 -0.2571
10742SOL    HW232805   8.663   3.080   0.411  0.3778 -0.4503 -0.2013
10743SOL     OW32806   3.495   3.828   2.573  0.0087 -0.6526  0.2674
10743SOL    HW132807   3.534   3.825   2.485  1.2927 -2.4929  0.8107
10743SOL    HW232808   3.571   3.836   2.631 -0.5467 -2.3613  1.2935
10744SOL     OW32809   9.666   3.033   0.320 -0.6405 -0.3984 -0.1473
10744SOL    HW132810   9.652   3.098   0.251  2.0888 -0.7061 -1.1300
10744SOL    HW232811   9.632   3.075   0.399  0.3709  2.0091 -0.8680
10745SOL     OW32812   1.254   8.852   1.074 -0.4298  0.2110  0.1356
10745SOL    HW132813   1.348   8.840   1.087 -0.6138  0.6560  2.1895
10745SOL    HW232814   1.214   8.777   1.119 -1.0929  0.9976  0.8980
10746SOL     OW32815   8.005   5.964   8.950 -0.1732  0.2877  0.0654
10746SOL    HW132816   8.093   6.000   8.956  0.6649 -1.6447 -0.0399
10746SOL    HW232817   8.017   5.869   8.941 -2.2803 -0.2371  1.6741
10747SOL     OW32818   5.752   4.948   5.227 -0.5911 -0.0494  0.6053
10747SOL    HW132819   5.781   5.016   5.288 -1.5617  0.0349  0.9943
10747SOL    HW232820   5.658   4.964   5.216 -0.3223  0.3907 -1.5011
10748SOL     OW32821   2.098   4.425   8.688  0.4669 -0.1364 -0.1095
10748SOL    HW132822   2.017   4.436   8.737  2.5591  1.2809  3.4919
10748SOL    HW232823   2.092   4.489   8.617 -1.2107  0.5226  0.5775
10749SOL     OW32824   2.051   5.036   4.610 -0.4606  0.3926  0.3462
10749SOL    HW132825   2.054   5.098   4.537  0.3676 -0.6029 -0.5102
10749SOL    HW232826   1.968   4.990   4.599 -0.3134  0.2087 -0.0140
10750SOL     OW32827   3.000   0.610   5.489  0.3576  0.3947 -0.1152
10750SOL    HW132828   3.002   0.523   5.449  1.3299  0.7858 -0.9535
10750SOL    HW232829   3.090   0.624   5.520  0.0408  0.8276  0.6354
10751SOL     OW32830   7.197   4.442   2.684 -0.3133 -0.1426  0.2353
10751SOL    HW132831   7.212   4.425   2.777  1.9397  1.6772  0.3061
10751SOL    HW232832   7.113   4.487   2.681 -0.4506 -0.2828  1.3735
10752SOL     OW32833   2.761   7.962   0.688  0.1127  0.4519  0.7935
10752SOL    HW132834   2.680   8.002   0.719 -0.3002 -0.1992  0.5700
10752SOL    HW232835   2.744   7.941   0.596  0.2830 -0.3197  0.9300
10753SOL     OW32836   4.495   6.913   2.337 -0.1212 -0.6228  0.3665
10753SOL    HW132837   4.483   6.983   2.273 -0.8470 -1.7062 -0.7190
10753SOL    HW232838   4.557   6.853   2.296 -1.0087 -1.6123  0.4184
10754SOL     OW32839   6.222   1.433   0.962  0.4563  0.4236 -0.0339
10754SOL    HW132840   6.136   1.401   0.986 -1.0095  2.8479 -1.6396
10754SOL    HW232841   6.233   1.515   1.010  1.8641  0.1729  0.1261
10755SOL     OW32842   8.863   2.156   7.950  0.0670  0.0379  0.3840
10755SOL    HW132843   8.928   2.169   8.019 -0.9612  1.1316  1.1852
10755SOL    HW232844   8.913   2.121   7.876  1.3338 -0.3682  1.3940
10756SOL     OW32845   7.634   1.147   0.197 -0.2918 -0.2869 -0.1681
10756SOL    HW132846   7.661   1.237   0.183 -2.0179  0.5651  1.4901
10756SOL    HW232847   7.599   1.146   0.286 -2.9229 -1.8798 -1.1084
10757SOL     OW32848   6.867   2.291   1.603  0.4249  0.1107  0.0517
10757SOL    HW132849   6.888   2.198   1.608 -0.2509 -0.0421  0.1105
10757SOL    HW232850   6.952   2.334   1.597  0.7154 -0.5668 -0.9952
10758SOL     OW32851   2.757   3.144   4.752  0.5564 -0.0854 -0.4718
10758SOL    HW132852   2.764   3.191   4.835 -1.1106  1.4979 -1.1573
10758SOL    HW232853   2.668   3.109   4.751  1.9883 -4.2856  0.4166
10759SOL     OW32854   2.444   7.339   2.701 -1.3480 -0.8934 -0.1877
10759SOL    HW132855   2.352   7.316   2.685 -1.7848 -1.3008  2.4538
10759SOL    HW232856   2.449   7.433   2.685 -2.4006 -0.7525  0.2483
10760SOL     OW32857   8.247   3.668   0.006 -0.3589  0.3815  0.0211
10760SOL    HW132858   8.316   3.654   0.071 -0.4544 -2.5073 -0.3741
10760SOL    HW232859   8.171   3.695   0.058 -0.2273 -1.1770  1.0960
10761SOL     OW32860   0.823   5.371   7.713 -0.2649  0.2885  0.1747
10761SOL    HW132861   0.847   5.460   7.688 -0.9016  0.6164  0.7045
10761SOL    HW232862   0.903   5.320   7.702  0.2446  1.0369  0.3752
10762SOL     OW32863   5.049   2.122   6.022 -0.5582  0.2490  0.1245
10762SOL    HW132864   5.073   2.215   6.026  0.4276  0.0919 -1.4556
10762SOL    HW232865   5.096   2.083   6.096  0.3632  0.7433 -0.1760
10763SOL     OW32866   6.015   5.269   6.669  0.4712 -0.3770 -0.2481
10763SOL    HW132867   6.055   5.249   6.584 -0.8963  0.5898 -1.1631
10763SOL    HW232868   6.081   5.320   6.715  0.7439  0.2295 -1.2775
10764SOL     OW32869   7.960   0.352   7.263  0.0561 -0.6888 -0.1489
10764SOL    HW132870   7.871   0.387   7.269  0.5996  0.9270 -0.9288
10764SOL    HW232871   8.013   0.412   7.317  0.9622 -0.4547 -1.2553
10765SOL     OW32872   9.016   9.159   8.985 -0.9269 -0.0826 -0.4047
10765SOL    HW132873   9.100   9.162   8.939 -1.5865  0.1439 -1.6421
10765SOL    HW232874   8.957   9.114   8.925 -2.1170  1.2286 -0.2790
10766SOL     OW32875   7.346   7.973   2.843 -0.0234  0.1847  0.3439
10766SOL    HW132876   7.389   7.887   2.835  1.5228  1.0464 -1.6215
10766SOL    HW232877   7.255   7.955   2.822  0.2570 -1.0259  0.0308
10767SOL     OW32878   1.711   7.984   0.089  0.1520  0.2887 -0.3433
10767SOL    HW132879   1.674   7.900   0.117 -1.0576  1.6113  2.4239
10767SOL    HW232880   1.806   7.970   0.092 -0.0264 -1.1346 -0.4812
10768SOL     OW32881   7.700   8.191   8.662  0.0166  0.1316  0.2492
10768SOL    HW132882   7.711   8.174   8.756  0.4481 -1.2412 -0.0419
10768SOL    HW232883   7.786   8.222   8.633  1.1778 -3.3311 -0.4693
10769SOL     OW32884   2.676   5.415   8.855 -0.1715  0.7272 -0.1333
10769SOL    HW132885   2.665   5.320   8.845 -0.6476  0.5425  1.8229
10769SOL    HW232886   2.587   5.450   8.851 -0.0698  1.0034  0.0137
10770SOL     OW32887   2.141   5.285   9.660  0.4568 -0.3168  0.5393
10770SOL    HW132888   2.229   5.309   9.689  0.5077 -1.0956  1.0586
10770SOL    HW232889   2.099   5.251   9.738 -1.0172  1.9210  0.8037
10771SOL     OW32890   6.166   7.286   3.216 -0.5973  0.7973  0.0690
10771SOL    HW132891   6.108   7.361   3.205  0.0484  1.8109  2.6323
10771SOL    HW232892   6.126   7.235   3.287  0.2435  0.0767  0.0450
10772SOL     OW32893   8.321   2.952   6.469  0.5981  0.0559 -0.8968
10772SOL    HW132894   8.398   2.949   6.526 -0.3280 -0.1086  0.3974
10772SOL    HW232895   8.275   2.869   6.487  0.4869 -0.1805 -2.1943
10773SOL     OW32896   1.958   5.256   3.061 -0.8003  0.0819 -0.4538
10773SOL    HW132897   1.988   5.187   3.000  0.0242  0.2988 -0.3001
10773SOL    HW232898   1.948   5.333   3.005  0.4570  0.4205 -0.2576
10774SOL     OW32899   6.330   1.965   5.164  0.9271  0.0965 -0.1679
10774SOL    HW132900   6.334   1.871   5.185  1.3246 -0.2023 -1.5039
10774SOL    HW232901   6.257   1.998   5.217 -0.4227 -1.3516 -1.0510
10775SOL     OW32902   0.981   5.224   0.822 -0.1909  0.3236  0.5800
10775SOL    HW132903   1.012   5.206   0.911 -0.7101  1.1586  0.9379
10775SOL    HW232904   0.921   5.151   0.804  1.0394 -0.6645  0.3222
10776SOL     OW32905   9.634   7.583   8.467  0.0005  0.2822  0.4469
10776SOL    HW132906   9.614   7.554   8.378 -0.6416 -0.8583  0.9407
10776SOL    HW232907   9.729   7.597   8.466  0.1966 -0.9157 -0.1047
10777SOL     OW32908   1.084   0.908   3.269 -0.1994  0.4656 -0.6483
10777SOL    HW132909   1.031   0.831   3.288  0.4814  0.3292  0.7703
10777SOL    HW232910   1.165   0.894   3.317  0.1432  1.8303 -0.8009
10778SOL     OW32911   6.905   6.066   2.892  0.1383  0.7598 -0.2124
10778SOL    HW132912   6.864   6.153   2.885 -1.0844  0.0992 -1.6264
10778SOL    HW232913   6.953   6.055   2.810 -1.4737 -0.7283 -1.0228
10779SOL     OW32914   3.894   2.272   1.703  0.3139 -0.5143  0.0383
10779SOL    HW132915   3.877   2.180   1.723  1.6819 -0.9512 -0.6824
10779SOL    HW232916   3.921   2.310   1.787 -1.1154 -0.5307  0.5315
10780SOL     OW32917   6.598   7.013   1.652 -0.4593 -0.1453 -0.0266
10780SOL    HW132918   6.644   7.097   1.654  1.8274 -1.2578 -1.5747
10780SOL    HW232919   6.612   6.976   1.739  2.6047 -0.8713 -0.7156
10781SOL     OW32920   1.006   3.169   4.319 -0.6111  0.1487 -0.5150
10781SOL    HW132921   1.088   3.214   4.335  0.3754 -1.5501 -0.5198
10781SOL    HW232922   0.971   3.151   4.407 -1.1582  1.1728 -0.5193
10782SOL     OW32923   9.951   0.739   4.068  1.0885  0.0202  0.2202
10782SOL    HW132924   9.958   0.797   3.993  1.8446 -0.6524 -0.2453
10782SOL    HW232925  10.028   0.761   4.122  1.2820 -0.4227  0.1271
10783SOL     OW32926   0.877   4.401   1.076 -0.0033  0.4514 -0.2461
10783SOL    HW132927   0.798   4.452   1.093  0.7452  1.2387  0.9521
10783SOL    HW232928   0.936   4.462   1.033 -0.2707 -0.3334 -1.8107
10784SOL     OW32929   0.231   1.960   6.863 -0.3987  0.0875 -0.3321
10784SOL    HW132930   0.200   2.030   6.921 -0.0940  1.3509 -1.6331
10784SOL    HW232931   0.279   2.006   6.794 -1.0344 -1.3196 -1.7739
10785SOL     OW32932   0.951   9.308   8.732  0.4529 -0.5344  0.1679
10785SOL    HW132933   0.911   9.374   8.789 -0.4427 -0.8097 -0.1260
10785SOL    HW232934   1.042   9.334   8.727 -0.1555  1.5922 -1.1445
10786SOL     OW32935   4.097   2.362   9.413  0.1643 -0.5499  0.1313
10786SOL    HW132936   4.042   2.290   9.383 -0.6285  0.3789 -0.7659
10786SOL    HW232937   4.036   2.421   9.459  0.8156 -0.5049  0.9629
10787SOL     OW32938   7.089   7.300   3.973 -0.6099  0.1788 -0.7411
10787SOL    HW132939   7.145   7.244   4.026  0.7781  0.5626 -1.7290
10787SOL    HW232940   7.133   7.385   3.973 -1.1795  0.4888 -1.5566
10788SOL     OW32941   7.955   0.937   0.528  0.3303 -0.2830 -0.4960
10788SOL    HW132942   7.930   1.004   0.465  2.5816  0.2453 -0.9115
10788SOL    HW232943   7.984   0.986   0.606  0.5746 -0.8169 -0.2437
10789SOL     OW32944   6.758   9.125   2.212 -0.1077  0.7218 -0.2733
10789SOL    HW132945   6.703   9.075   2.153  0.1715  0.2948 -0.1731
10789SOL    HW232946   6.699   9.189   2.252 -0.7377 -0.3362  0.5379
10790SOL     OW32947   8.133   1.574   0.915 -0.3288 -0.2623  0.3064
10790SOL    HW132948   8.050   1.608   0.949 -0.2470  1.1153 -0.7481
10790SOL    HW232949   8.122   1.575   0.820  1.1110  0.5819  0.1198
10791SOL     OW32950   2.523   2.938   4.481  0.0814 -0.2534  0.9096
10791SOL    HW132951   2.435   2.913   4.452  0.6413 -1.0322 -0.2003
10791SOL    HW232952   2.548   2.868   4.542  0.8352 -1.3574 -0.6046
10792SOL     OW32953   9.207   9.634   9.524 -0.5081 -0.2162 -0.3039
10792SOL    HW132954   9.233   9.588   9.444 -0.0083  0.6072 -0.6368
10792SOL    HW232955   9.124   9.594   9.549 -0.0473 -1.3481 -0.5180
10793SOL     OW32956   2.453   5.897   9.640 -0.0028  0.0312 -0.5646
10793SOL    HW132957   2.428   5.806   9.658 -3.3712  0.6216 -1.4099
10793SOL    HW232958   2.503   5.892   9.559  1.2053 -1.1690  0.2143
10794SOL     OW32959   8.460   8.035   1.327 -0.0409  0.0323 -0.2952
10794SOL    HW132960   8.412   8.116   1.342  0.5328  0.5960 -1.3693
10794SOL    HW232961   8.397   7.965   1.347  0.0626  0.6495  2.6875
10795SOL     OW32962   3.121   8.512   9.448  0.2546 -0.5728 -0.6834
10795SOL    HW132963   3.083   8.553   9.525  4.3475 -0.7710  1.7072
10795SOL    HW232964   3.122   8.419   9.468  0.7695 -0.6981 -1.2589
10796SOL     OW32965   1.001   5.334   7.423 -0.2436 -0.0920  0.3820
10796SOL    HW132966   0.921   5.285   7.443 -0.6078  0.5740  0.5913
10796SOL    HW232967   0.972   5.401   7.361  0.5911 -1.2498 -1.3246
10797SOL     OW32968   7.310   2.835   2.223  0.1196 -0.5854 -0.1028
10797SOL    HW132969   7.294   2.928   2.241  0.0347 -0.5154 -0.5226
10797SOL    HW232970   7.275   2.789   2.299  1.5790 -0.1830  0.8602
10798SOL     OW32971   7.685   9.415   9.224  0.9742  0.1413 -0.7402
10798SOL    HW132972   7.594   9.436   9.205  0.5112 -2.4372 -1.6473
10798SOL    HW232973   7.731   9.428   9.141  1.1479 -0.0379 -0.6736
10799SOL     OW32974   7.840   1.577   9.997 -0.6408  0.2231  0.3907
10799SOL    HW132975   7.756   1.617   9.973  0.0659  0.8130 -1.1727
10799SOL    HW232976   7.876   1.544   9.915 -0.3703 -2.1181  1.3562
10800SOL     OW32977   2.440   8.859   7.460  0.1266 -0.3436 -0.3601
10800SOL    HW132978   2.378   8.891   7.526  0.3483 -1.0312  0.1961
10800SOL    HW232979   2.526   8.868   7.502  0.2963 -0.4933 -0.6782
10801SOL     OW32980   0.569   3.730   5.698 -0.2508 -0.3967  0.5292
10801SOL    HW132981   0.646   3.686   5.736  0.0435 -0.3896 -0.0482
10801SOL    HW232982   0.513   3.749   5.774 -0.3958 -1.7652  0.8061
10802SOL     OW32983   9.886   7.032   2.356 -0.3359  0.4152  0.0867
10802SOL    HW132984   9.916   6.990   2.276  1.8765 -2.2373  2.1006
10802SOL    HW232985   9.942   7.108   2.367 -0.6238  0.7644 -0.8318
10803SOL     OW32986   7.447   0.443   4.965  0.2431 -0.4171  0.0345
10803SOL    HW132987   7.444   0.450   5.061  0.7470  1.6606 -0.0596
10803SOL    HW232988   7.503   0.367   4.949  2.1983  0.6156  1.4370
10804SOL     OW32989   6.795   0.333   2.324 -0.1171  0.2273 -0.0759
10804SOL    HW132990   6.886   0.339   2.295  0.0820  1.2032  0.6781
10804SOL    HW232991   6.763   0.423   2.318 -1.3482 -0.2534 -1.2744
10805SOL     OW32992   5.494   6.851   3.957 -0.2437  0.5059 -0.2014
10805SOL    HW132993   5.551   6.811   4.022 -0.5101  0.3466 -0.0645
10805SOL    HW232994   5.427   6.785   3.939 -0.9320  1.0373  0.3378
10806SOL     OW32995   2.710   7.123   9.436  0.3300  0.5584 -0.0779
10806SOL    HW132996   2.678   7.151   9.351  0.9909 -2.0184 -1.2815
10806SOL    HW232997   2.643   7.064   9.469  0.1570  1.4058  1.1749
10807SOL     OW32998   1.444   7.974   3.813 -0.0236 -0.0504 -0.2800
10807SOL    HW132999   1.511   8.037   3.788 -1.1036  2.3380  2.3883
10807SOL    HW233000   1.492   7.906   3.861  0.9125 -0.4471 -1.6907
10808SOL     OW33001   4.278   7.130   0.920 -0.6011 -0.6283 -0.9488
10808SOL    HW133002   4.342   7.069   0.883 -0.1480  0.2266 -1.5940
10808SOL    HW233003   4.206   7.130   0.857 -0.9321 -1.0514 -0.5766
10809SOL     OW33004   9.486   8.501   1.937 -0.6086  0.0562 -0.2351
10809SOL    HW133005   9.507   8.428   1.879 -0.3465  0.1599 -0.2737
10809SOL    HW233006   9.453   8.569   1.879 -1.1307 -0.1320 -0.1658
10810SOL     OW33007   5.322   6.747   0.267 -0.4789 -0.5708  0.8053
10810SOL    HW133008   5.354   6.665   0.303  0.0296 -0.2669  1.0632
10810SOL    HW233009   5.332   6.737   0.172 -1.2190 -1.1272  0.7851
10811SOL     OW33010   1.725   0.779   5.840  0.2681  0.0022  0.1716
10811SOL    HW133011   1.704   0.873   5.839 -0.2986 -0.0819  1.5800
10811SOL    HW233012   1.650   0.738   5.797  0.2075  0.1411  0.1418
10812SOL     OW33013   8.830   8.183   8.717 -0.3379  0.0708 -0.2407
10812SOL    HW133014   8.843   8.230   8.800 -1.5725 -1.0421  0.6176
10812SOL    HW233015   8.906   8.207   8.664 -1.1581  3.5707 -0.1302
10813SOL     OW33016   1.353   5.614   7.430  0.3036  0.1259  0.6639
10813SOL    HW133017   1.310   5.528   7.434 -4.7115  2.2207 -1.1157
10813SOL    HW233018   1.409   5.609   7.352 -1.3686 -1.0333 -0.5331
10814SOL     OW33019   2.655   2.984   2.863 -0.1210  0.1397  0.7341
10814SOL    HW133020   2.698   3.043   2.926  0.0338 -1.1720  1.9071
10814SOL    HW233021   2.568   2.970   2.899 -0.2272 -0.1960  0.3507
10815SOL     OW33022   2.685   9.111   6.174 -0.2589  0.0380 -0.4538
10815SOL    HW133023   2.769   9.156   6.165  0.5836 -1.4082 -0.1565
10815SOL    HW233024   2.620   9.181   6.170  0.9044  1.1233 -1.4500
10816SOL     OW33025   9.525   0.125   2.119  0.3083  0.2246  0.2206
10816SOL    HW133026   9.540   0.219   2.123 -0.0973  0.3231 -0.3872
10816SOL    HW233027   9.590   0.092   2.057 -0.2203  0.2657 -0.3698
10817SOL     OW33028   6.633   3.909   1.692  0.0412 -0.5028  0.0525
10817SOL    HW133029   6.651   3.915   1.598  1.2853 -1.8955  0.1699
10817SOL    HW233030   6.667   3.991   1.728  0.8448 -0.5645 -0.5340
10818SOL     OW33031   0.498   2.090   3.680  0.9036  0.2120 -0.1524
10818SOL    HW133032   0.516   2.030   3.607  0.5440  0.8496 -0.7776
10818SOL    HW233033   0.568   2.155   3.675  0.3500  0.7989 -0.5350
10819SOL     OW33034   3.580   1.014   2.731 -0.0912 -0.3775 -0.1910
10819SOL    HW133035   3.622   0.967   2.804 -0.0460  0.0557  0.0605
10819SOL    HW233036   3.640   1.000   2.657  0.5853  0.3551  0.2001
10820SOL     OW33037   7.470   2.381   4.833 -0.3062 -0.3772 -0.2264
10820SOL    HW133038   7.426   2.442   4.892 -1.0121 -1.9371  0.9683
10820SOL    HW233039   7.539   2.342   4.887  1.1124  0.4318 -1.4148
10821SOL     OW33040   3.469   9.753   3.687  0.0089 -0.3908 -0.2729
10821SOL    HW133041   3.475   9.820   3.756 -0.4182  0.8741 -1.4096
10821SOL    HW233042   3.451   9.803   3.608  0.9671 -1.7620 -1.4018
10822SOL     OW33043   4.355   6.772   7.666  0.5353  0.1780  0.4713
10822SOL    HW133044   4.280   6.758   7.724 -0.9475  1.5222 -1.0011
10822SOL    HW233045   4.326   6.842   7.607  2.9449  0.6759 -0.2110
10823SOL     OW33046   1.369   5.744   2.128 -0.6393  0.0158 -0.8041
10823SOL    HW133047   1.288   5.790   2.110  0.2784  2.3027  0.5044
10823SOL    HW233048   1.433   5.784   2.069  0.1911  0.4278  0.3630
10824SOL     OW33049   9.161   1.397   8.500  0.7375 -0.6431  0.5237
10824SOL    HW133050   9.108   1.329   8.540  0.0856 -0.4701 -0.0281
10824SOL    HW233051   9.207   1.352   8.428  1.5777 -0.8588  1.1830
10825SOL     OW33052   1.668   8.772   2.819 -0.6495 -0.0077 -0.1507
10825SOL    HW133053   1.698   8.776   2.728 -2.2291  1.0488 -0.6607
10825SOL    HW233054   1.577   8.741   2.813 -0.6360 -0.3640  1.1189
10826SOL     OW33055   8.958   6.004   7.323  0.6653 -0.4380 -0.6470
10826SOL    HW133056   8.901   6.075   7.293  0.6597 -0.0359  0.2643
10826SOL    HW233057   8.906   5.925   7.313 -0.7716  0.0978  1.8230
10827SOL     OW33058   9.032   7.054   3.771  0.4004 -0.4909  0.7726
10827SOL    HW133059   8.968   6.994   3.731  0.2267 -0.8784  1.6185
10827SOL    HW233060   9.076   7.001   3.837 -0.6538  0.6407  2.4486
10828SOL     OW33061   0.039   2.381   5.781  0.5589 -0.2628  0.0752
10828SOL    HW133062   0.107   2.387   5.714 -0.6586 -1.8709 -1.3915
10828SOL    HW233063  -0.037   2.422   5.741 -0.2455 -1.4113  0.3784
10829SOL     OW33064   4.163   3.670   4.496  0.0728 -0.2791 -0.4549
10829SOL    HW133065   4.099   3.734   4.525  0.5655  0.3738 -0.7879
10829SOL    HW233066   4.241   3.721   4.475  0.4703 -0.9815 -0.7379
10830SOL     OW33067   2.973   3.542   6.808  0.0565  0.2629  0.1040
10830SOL    HW133068   2.985   3.523   6.901  1.0718 -1.5506 -0.3409
10830SOL    HW233069   2.878   3.540   6.795 -0.0838  0.2755  1.0542
10831SOL     OW33070   3.954   8.521   7.739  0.8297 -0.1541  0.3356
10831SOL    HW133071   3.979   8.437   7.778 -1.3212 -0.6757  0.7054
10831SOL    HW233072   4.012   8.530   7.663  1.5600 -1.6440  0.6775
10832SOL     OW33073   8.641   4.644   1.381 -0.3322 -0.0688 -0.3955
10832SOL    HW133074   8.553   4.626   1.413 -0.1328 -1.8730 -0.7065
10832SOL    HW233075   8.628   4.679   1.293 -0.8129 -4.3511 -2.2770
10833SOL     OW33076   4.740   1.310   8.497  0.1140 -0.0845 -0.5957
10833SOL    HW133077   4.808   1.261   8.542  1.0537  0.9966 -0.7642
10833SOL    HW233078   4.688   1.244   8.451  1.0313 -0.9435 -0.4272
10834SOL     OW33079   2.623   1.986   4.743  0.2273  0.5315  0.0441
10834SOL    HW133080   2.603   1.952   4.831 -1.1119 -0.9276 -0.7514
10834SOL    HW233081   2.718   1.985   4.738  0.3128 -0.0279  1.2448
10835SOL     OW33082   4.556   3.671   3.583  0.4004  0.7764  0.4509
10835SOL    HW133083   4.533   3.581   3.607  0.3798  0.9249  1.0003
10835SOL    HW233084   4.476   3.708   3.547  0.2828  0.7263  0.6666
10836SOL     OW33085   3.092   4.706   3.043  0.1839  0.5916  0.0530
10836SOL    HW133086   3.156   4.649   3.000 -1.0998 -0.3627 -0.6444
10836SOL    HW233087   3.129   4.722   3.130  0.2000 -2.0336  0.6025
10837SOL     OW33088   9.224   3.299   4.555 -0.4765  0.2567 -0.8634
10837SOL    HW133089   9.223   3.392   4.577 -2.1909  0.3923 -1.3604
10837SOL    HW233090   9.147   3.287   4.499 -0.4690 -1.5308 -0.5462
10838SOL     OW33091   2.748   4.890   0.365  0.3230 -0.1643 -0.2295
10838SOL    HW133092   2.771   4.923   0.452 -3.6767  1.8097  0.3273
10838SOL    HW233093   2.795   4.947   0.304  0.0585  1.1268  0.7345
10839SOL     OW33094   1.594   1.975   0.602 -0.7334 -0.3201 -1.2358
10839SOL    HW133095   1.514   1.992   0.553 -2.3802  2.3095  1.9835
10839SOL    HW233096   1.641   2.058   0.602  0.0396 -0.7225  0.1566
10840SOL     OW33097   6.025   7.381   4.742 -0.9579 -0.5378 -0.5518
10840SOL    HW133098   5.936   7.349   4.729 -1.5880  1.2285 -0.9434
10840SOL    HW233099   6.025   7.468   4.702  0.6220 -0.0316  0.4487
10841SOL     OW33100   9.019   6.662   5.118 -0.0022  0.1180  0.3233
10841SOL    HW133101   8.932   6.696   5.097 -1.0680 -2.6066 -0.0445
10841SOL    HW233102   9.007   6.613   5.200  1.4675  0.5796  0.8600
10842SOL     OW33103   8.632   0.708   7.545  0.1234  0.0026 -0.4370
10842SOL    HW133104   8.647   0.708   7.451  0.1891  0.2146 -0.4262
10842SOL    HW233105   8.703   0.759   7.582  0.3648 -0.4757 -0.2248
10843SOL     OW33106   6.498   0.327   4.732 -0.5805  0.1789 -0.2699
10843SOL    HW133107   6.500   0.421   4.714  0.7714  0.0264 -1.0267
10843SOL    HW233108   6.573   0.291   4.685 -1.6750 -1.4522 -0.8937
10844SOL     OW33109   4.835   6.186   6.067 -0.4883  0.5677 -0.4317
10844SOL    HW133110   4.865   6.114   6.011 -1.1383 -0.2275  0.2254
10844SOL    HW233111   4.827   6.147   6.154 -1.8980  1.1535 -0.2720
10845SOL     OW33112   6.697   9.128   7.258 -0.4508  0.7458 -0.1934
10845SOL    HW133113   6.630   9.170   7.204 -0.5007 -0.8244 -1.4070
10845SOL    HW233114   6.754   9.085   7.196 -0.5720 -1.2301  0.9985
10846SOL     OW33115   5.291   9.790   0.340 -0.4839  0.2970  0.3712
10846SOL    HW133116   5.270   9.880   0.316 -2.6759 -0.4552 -0.8591
10846SOL    HW233117   5.237   9.772   0.417  0.1035  0.0990  0.7412
10847SOL     OW33118   4.611   4.512   8.558  0.4775 -0.6652  0.1796
10847SOL    HW133119   4.632   4.604   8.544 -1.0143 -0.3415 -0.1107
10847SOL    HW233120   4.593   4.478   8.470  1.6006 -1.4064  0.2170
10848SOL     OW33121   8.218   2.392   4.545  0.1139  0.5095 -0.2420
10848SOL    HW133122   8.192   2.333   4.474  2.1887 -1.9101  0.8647
10848SOL    HW233123   8.152   2.379   4.613  0.3655 -0.3104 -0.1449
10849SOL     OW33124   4.989   2.138   6.882 -0.3632 -0.6177  0.2904
10849SOL    HW133125   4.933   2.114   6.808 -0.4032 -3.2839  1.0746
10849SOL    HW233126   5.039   2.058   6.900  3.1730  1.3618  0.1659
10850SOL     OW33127   6.642   9.934   9.356 -0.2678  0.2314 -0.7576
10850SOL    HW133128   6.571   9.980   9.312 -0.0817 -0.1582 -1.4850
10850SOL    HW233129   6.683  10.000   9.412 -0.3847  0.7956 -1.3229
10851SOL     OW33130   6.124   6.948   1.274  0.6306  0.5106 -0.9622
10851SOL    HW133131   6.117   6.877   1.338 -0.7372 -0.8469 -2.5295
10851SOL    HW233132   6.213   6.982   1.286  0.8997 -0.6463  0.6665
10852SOL     OW33133   8.075   9.606   7.359 -0.4477 -0.2622 -0.1022
10852SOL    HW133134   8.013   9.577   7.425  0.7887 -1.4387  0.6074
10852SOL    HW233135   8.158   9.614   7.406  0.0312  0.9224 -1.0875
10853SOL     OW33136   6.237   4.081   3.662  0.6795  0.1421 -0.2835
10853SOL    HW133137   6.227   4.064   3.755 -0.1642  0.0125 -0.3877
10853SOL    HW233138   6.311   4.026   3.635  1.1441  0.4418  0.3695
10854SOL     OW33139   2.617   2.032   3.138 -0.4827  0.4264  0.4594
10854SOL    HW133140   2.601   2.057   3.047 -0.4664 -1.6122 -0.1459
10854SOL    HW233141   2.712   2.036   3.148 -0.3757 -0.6488 -0.0371
10855SOL     OW33142   5.247   5.858   5.734 -0.3829  0.0819  0.1605
10855SOL    HW133143   5.263   5.812   5.817  2.2166 -0.9371 -0.8029
10855SOL    HW233144   5.227   5.788   5.672 -3.9488  0.9535  0.1502
10856SOL     OW33145   9.450   4.079   5.249  0.4887 -0.5279 -0.8723
10856SOL    HW133146   9.374   4.068   5.306 -0.6167  0.1509 -2.1489
10856SOL    HW233147   9.525   4.085   5.309 -0.6480  0.4457  0.5195
10857SOL     OW33148   3.926   1.604   3.882 -0.0098 -0.0834  0.1962
10857SOL    HW133149   3.877   1.637   3.957 -2.0656 -0.3712 -0.9618
10857SOL    HW233150   3.862   1.600   3.811  1.8666  0.2181 -1.6094
10858SOL     OW33151   5.773   5.451   3.936 -0.2014  0.5155  0.1209
10858SOL    HW133152   5.723   5.415   3.863  0.4310  0.1037 -0.1215
10858SOL    HW233153   5.864   5.428   3.916 -0.1525 -1.0963  1.8447
10859SOL     OW33154   7.912   7.221   6.797 -0.2267 -0.2127  0.2043
10859SOL    HW133155   7.883   7.312   6.802 -1.1063 -0.4865  0.2111
10859SOL    HW233156   7.925   7.204   6.703 -0.1383 -0.1014  0.1972
10860SOL     OW33157   5.064   2.504   6.481 -0.6342 -0.1809 -0.1112
10860SOL    HW133158   5.055   2.590   6.522  0.7287 -0.0669 -0.0026
10860SOL    HW233159   5.011   2.446   6.536  1.6282 -0.1587  2.3287
10861SOL     OW33160   4.293   2.551   3.925  0.0975  0.2013 -0.3254
10861SOL    HW133161   4.277   2.645   3.918  0.8113  0.2915 -0.9353
10861SOL    HW233162   4.379   2.545   3.966  0.1306 -0.1820 -0.4502
10862SOL     OW33163   6.094   3.088   8.246 -0.3220 -0.1407  0.1893
10862SOL    HW133164   6.156   3.110   8.314 -0.5938 -2.8980  1.4650
10862SOL    HW233165   6.016   3.139   8.267  0.7654  1.8306 -0.2908
10863SOL     OW33166   9.532   2.412   2.097  0.6005 -0.6232  0.0745
10863SOL    HW133167   9.594   2.398   2.025 -0.4548 -0.3804 -0.9160
10863SOL    HW233168   9.499   2.501   2.083  0.3818 -0.5785  0.8619
10864SOL     OW33169   7.825   5.693   3.164 -0.3232  0.1063 -0.5011
10864SOL    HW133170   7.900   5.645   3.126 -0.4187 -0.0954 -0.4350
10864SOL    HW233171   7.783   5.629   3.221  0.0794  0.5387  0.2991
10865SOL     OW33172   9.603   6.595   5.378 -0.2136  0.1495  0.6647
10865SOL    HW133173   9.604   6.500   5.363 -1.6295  0.3406 -0.8965
10865SOL    HW233174   9.693   6.615   5.405  0.4145 -1.4777 -0.0615
10866SOL     OW33175   5.044   6.309   4.241 -0.0470 -0.1156 -0.1874
10866SOL    HW133176   4.990   6.380   4.207 -1.4473 -1.5906 -1.2297
10866SOL    HW233177   5.008   6.230   4.200  2.3578 -1.2859 -0.2292
10867SOL     OW33178   8.030   8.338   8.905 -0.5707 -0.0101 -0.1583
10867SOL    HW133179   8.020   8.376   8.992  1.0660  0.9913 -0.3785
10867SOL    HW233180   7.965   8.382   8.851 -0.4434  0.5887  0.1778
10868SOL     OW33181   3.131   9.183   4.035 -0.2810  0.0519  0.0824
10868SOL    HW133182   3.193   9.138   3.977  0.8823  1.8113 -0.0923
10868SOL    HW233183   3.183   9.248   4.081 -1.4408 -0.4687  2.2391
10869SOL     OW33184   7.716   3.743   5.381  0.2494 -0.3651 -0.4809
10869SOL    HW133185   7.682   3.831   5.359 -1.4832 -1.0840 -0.8707
10869SOL    HW233186   7.694   3.732   5.473  2.5192  0.4594  0.2188
10870SOL     OW33187   0.195   7.343   3.308  0.3599 -0.0635 -0.2867
10870SOL    HW133188   0.249   7.410   3.268 -0.2255 -0.4407 -1.7792
10870SOL    HW233189   0.252   7.299   3.371  1.0855  1.0354 -0.1609
10871SOL     OW33190   3.230   3.945   7.908  0.2980 -0.4262 -0.2475
10871SOL    HW133191   3.165   3.954   7.839  0.8478 -0.8845 -0.8365
10871SOL    HW233192   3.292   4.016   7.893  1.4785 -1.6423 -1.4215
10872SOL     OW33193   3.472   1.363   9.456 -0.7592  0.1044  0.2479
10872SOL    HW133194   3.481   1.298   9.386 -1.7859 -0.1412  0.3315
10872SOL    HW233195   3.558   1.404   9.461 -0.1149 -1.1717  0.1182
10873SOL     OW33196   7.026   0.934   8.053 -0.3316  0.0294  0.1711
10873SOL    HW133197   7.013   0.846   8.089 -0.2906  0.2539  0.7568
10873SOL    HW233198   7.063   0.984   8.126 -0.1810  0.4851 -0.2116
10874SOL     OW33199   8.701   5.235   2.359  0.6872  0.4829  0.4937
10874SOL    HW133200   8.634   5.295   2.325 -0.2241 -0.6823  0.1961
10874SOL    HW233201   8.666   5.148   2.344  2.5427 -0.1954 -0.2141
10875SOL     OW33202   9.170   7.400   6.947  0.1757 -0.1876 -0.1469
10875SOL    HW133203   9.114   7.332   6.985  0.2255 -0.0414  0.1965
10875SOL    HW233204   9.127   7.424   6.865  0.7570 -1.4409 -0.8523
10876SOL     OW33205   2.461   1.305   1.498 -0.2633 -0.0433  0.2126
10876SOL    HW133206   2.409   1.237   1.455 -1.1022  2.4474 -3.1014
10876SOL    HW233207   2.400   1.343   1.562 -0.6884 -0.6249  0.1715
10877SOL     OW33208   0.751   1.676   9.599  0.4265 -0.1894  0.0895
10877SOL    HW133209   0.789   1.726   9.671  4.4120 -0.1108 -1.8043
10877SOL    HW233210   0.737   1.740   9.530  0.1296 -0.7994 -0.4206
10878SOL     OW33211   2.167   9.733   0.703 -0.1417  0.0977  0.0395
10878SOL    HW133212   2.172   9.824   0.732 -0.8812  0.0929  0.2211
10878SOL    HW233213   2.112   9.691   0.770 -0.0770 -0.4026 -0.2232
10879SOL     OW33214   1.952   2.229   9.735 -0.3364 -0.5639  0.9247
10879SOL    HW133215   1.925   2.309   9.781  3.3246  1.1451  0.4507
10879SOL    HW233216   2.011   2.184   9.795  1.9774  0.0447 -0.7392
10880SOL     OW33217   6.462   4.088   7.008  0.2411 -0.3140 -0.2667
10880SOL    HW133218   6.521   4.030   6.958  0.1360 -0.5055 -0.1716
10880SOL    HW233219   6.517   4.161   7.035  0.1449  0.1303 -1.2302
10881SOL     OW33220   8.001   5.992   6.891 -0.1113  0.4648  0.3286
10881SOL    HW133221   8.015   6.008   6.984  1.5458  1.3524 -0.0185
10881SOL    HW233222   8.049   6.063   6.847  0.4030 -0.7576 -1.2087
10882SOL     OW33223   0.465   8.010   4.807  0.0601 -0.3220 -0.6714
10882SOL    HW133224   0.485   7.960   4.727  0.6733 -0.3383 -0.5101
10882SOL    HW233225   0.380   8.050   4.789  0.5067  0.2396 -1.6128
10883SOL     OW33226   5.426   2.261   5.589  0.4133 -0.4357  0.1159
10883SOL    HW133227   5.430   2.201   5.664  1.1881  1.6555  1.8207
10883SOL    HW233228   5.496   2.230   5.531  0.7681 -1.2340  0.9319
10884SOL     OW33229   0.523   6.658   7.241  0.0895  0.1569 -0.0084
10884SOL    HW133230   0.579   6.731   7.214 -1.2075  1.0748 -0.3667
10884SOL    HW233231   0.434   6.689   7.221 -0.6385 -0.7286  1.6749
10885SOL     OW33232   6.671   7.876   2.489  0.3951  0.6952  0.0884
10885SOL    HW133233   6.723   7.829   2.554  0.1155  1.2010  0.6909
10885SOL    HW233234   6.581   7.867   2.519  0.3021  1.2583 -0.0074
10886SOL     OW33235   0.269   1.550   5.818  0.0536  0.4480  0.2393
10886SOL    HW133236   0.177   1.532   5.840 -0.1762  1.1210 -0.1342
10886SOL    HW233237   0.265   1.631   5.767  0.5859 -0.9224 -2.1072
10887SOL     OW33238   8.429   6.206   4.208 -0.2286  0.4775  0.1951
10887SOL    HW133239   8.365   6.205   4.279 -0.2409 -0.9929  0.1940
10887SOL    HW233240   8.514   6.215   4.251 -0.0283 -2.6886  0.6489
10888SOL     OW33241   6.820   2.889   0.881  0.0333 -0.2725 -0.4419
10888SOL    HW133242   6.756   2.870   0.950 -0.5960 -0.8865 -1.1820
10888SOL    HW233243   6.883   2.946   0.923 -0.1651 -0.8915  0.7469
10889SOL     OW33244   5.189   1.768   8.456  0.1057  0.0973  0.1918
10889SOL    HW133245   5.156   1.816   8.532 -0.6018 -0.8791  0.5081
10889SOL    HW233246   5.270   1.727   8.487 -0.4134 -0.6644  0.5626
10890SOL     OW33247   0.789   1.595   3.600 -0.2225  0.5499  0.1935
10890SOL    HW133248   0.718   1.582   3.664  0.7433  0.6283  1.3142
10890SOL    HW233249   0.869   1.588   3.652  0.6047  0.3352 -1.0777
10891SOL     OW33250   3.594   7.163   6.087 -0.0808 -0.1042 -0.1251
10891SOL    HW133251   3.635   7.134   6.006 -0.3774  1.8497 -1.0170
10891SOL    HW233252   3.508   7.121   6.087 -0.1031 -0.0655 -0.8387
10892SOL     OW33253   9.370   7.881   9.026 -0.4415 -0.6447  0.1988
10892SOL    HW133254   9.295   7.825   9.046 -0.0687 -1.1174  0.2909
10892SOL    HW233255   9.343   7.968   9.053 -0.9415 -0.8207  0.2776
10893SOL     OW33256   9.868   3.387   1.319 -0.2318  0.0991  0.0034
10893SOL    HW133257   9.853   3.324   1.389  1.5928  1.7569  2.0279
10893SOL    HW233258   9.793   3.446   1.323 -0.5612 -0.3174 -0.0279
10894SOL     OW33259   3.697   1.603   9.875 -0.1425 -0.1234  0.2903
10894SOL    HW133260   3.697   1.520   9.827 -0.5916  0.5571 -0.9288
10894SOL    HW233261   3.654   1.665   9.816  2.9160  1.7609 -0.1510
10895SOL     OW33262   6.290   5.798   4.000 -0.2880 -0.4152 -0.2382
10895SOL    HW133263   6.214   5.854   3.985 -0.2977  0.6817  3.1405
10895SOL    HW233264   6.361   5.858   4.022  1.2858 -1.5005 -2.0956
10896SOL     OW33265   0.880   1.911   1.521  0.0094 -0.5068 -0.0209
10896SOL    HW133266   0.902   1.824   1.486  1.5157 -0.1748  0.0126
10896SOL    HW233267   0.964   1.957   1.523 -0.8256  1.0843 -0.3954
10897SOL     OW33268   7.643   1.834   7.207 -0.2328  0.0679  0.3854
10897SOL    HW133269   7.576   1.821   7.274 -0.6137  0.7129  0.1314
10897SOL    HW233270   7.631   1.924   7.177  1.4099  0.5482  1.0653
10898SOL     OW33271   5.316   5.542   1.792  0.5362 -0.2992 -0.0406
10898SOL    HW133272   5.398   5.564   1.749  0.4315  0.5080  0.1618
10898SOL    HW233273   5.334   5.459   1.836  0.9048 -0.6938 -0.9061
10899SOL     OW33274   3.075   4.378   7.225 -0.4530  0.1446 -0.2950
10899SOL    HW133275   3.134   4.406   7.295 -1.2232  0.6613  0.1480
10899SOL    HW233276   3.078   4.282   7.228  0.9639  0.1464 -0.7906
10900SOL     OW33277   1.891   5.571   0.773 -0.1954 -0.3867  0.1581
10900SOL    HW133278   1.912   5.622   0.695 -0.7122 -2.1423 -1.1842
10900SOL    HW233279   1.804   5.536   0.757 -0.1901 -1.0349  1.3880
10901SOL     OW33280   6.388   3.882   0.981 -0.0432 -0.3692 -0.4206
10901SOL    HW133281   6.441   3.889   0.902  0.4504 -0.8957 -0.1474
10901SOL    HW233282   6.387   3.788   1.000 -0.6703 -0.3130 -0.1448
10902SOL     OW33283   5.368   3.304   5.403 -0.5755  0.3739  0.2659
10902SOL    HW133284   5.338   3.391   5.430 -0.3967  0.1248  1.3335
10902SOL    HW233285   5.398   3.264   5.484 -1.7041 -1.1024 -0.0079
10903SOL     OW33286   0.536   2.039   6.089 -0.2910 -0.3551 -0.0247
10903SOL    HW133287   0.520   2.112   6.028 -1.4895  0.0124  0.6903
10903SOL    HW233288   0.519   1.960   6.037  0.2310 -0.1067 -0.5852
10904SOL     OW33289   7.238   9.384   5.424 -0.3167  0.1067 -0.1092
10904SOL    HW133290   7.328   9.358   5.444 -0.9920 -1.0508  1.7623
10904SOL    HW233291   7.190   9.301   5.419 -1.1358  0.6432 -2.0770
10905SOL     OW33292   9.772   9.847   7.954  0.0789  0.4328  0.4035
10905SOL    HW133293   9.702   9.907   7.982  0.3947  1.0316 -0.0692
10905SOL    HW233294   9.788   9.792   8.031 -1.7578 -0.5535  0.1577
10906SOL     OW33295   3.420   1.022   3.864  0.5974  0.3806  0.4926
10906SOL    HW133296   3.437   1.050   3.954  1.0729 -1.5559  1.0456
10906SOL    HW233297   3.401   0.929   3.871  3.6442 -0.5470 -1.7397
10907SOL     OW33298   3.486   6.271   0.910 -0.2151  0.0432 -0.5289
10907SOL    HW133299   3.420   6.339   0.921 -0.8021 -0.7712  1.4383
10907SOL    HW233300   3.437   6.189   0.914  0.8290 -0.5631  0.3808
10908SOL     OW33301   5.133   2.857   5.107 -0.5417  0.0742  0.8649
10908SOL    HW133302   5.050   2.841   5.064 -0.3891  1.1834  0.1258
10908SOL    HW233303   5.145   2.951   5.103  0.7625 -0.0676  0.9396
10909SOL     OW33304   1.170   3.116   2.800  0.0376 -0.7386  0.5155
10909SOL    HW133305   1.254   3.070   2.809  0.7471  0.6630  1.5263
10909SOL    HW233306   1.153   3.150   2.888 -2.2292 -1.9947  0.6385
10910SOL     OW33307   8.408   0.421   6.644 -0.5747  0.3481 -0.3941
10910SOL    HW133308   8.441   0.498   6.690 -2.1882  0.9692 -0.2328
10910SOL    HW233309   8.370   0.456   6.563  0.7655 -0.5525 -1.4768
10911SOL     OW33310   9.769   8.812   0.201 -0.1182  0.2097  0.3593
10911SOL    HW133311   9.712   8.867   0.255 -1.4783  0.1657 -0.9900
10911SOL    HW233312   9.804   8.747   0.262 -1.4069  0.3171  1.2560
10912SOL     OW33313   2.175   9.315   7.875  0.2842 -0.1546 -0.2735
10912SOL    HW133314   2.107   9.378   7.898 -1.6842 -2.0834 -0.4322
10912SOL    HW233315   2.191   9.266   7.956  2.2228  0.8507  0.0114
10913SOL     OW33316   1.214   9.417   1.834 -0.4921 -0.2897  0.2325
10913SOL    HW133317   1.277   9.484   1.809 -0.1185 -0.3290  1.0582
10913SOL    HW233318   1.166   9.398   1.753  1.7362 -1.5376 -0.8861
10914SOL     OW33319   4.327   5.290   4.279 -0.0544 -0.1056  0.5341
10914SOL    HW133320   4.256   5.302   4.217  1.2376  1.0208 -0.8042
10914SOL    HW233321   4.345   5.377   4.313  1.5292 -0.1264 -0.1572
10915SOL     OW33322   9.794   7.232   8.976  0.6263 -0.1059  0.8693
10915SOL    HW133323   9.780   7.183   9.057 -0.8864 -0.0689  0.6531
10915SOL    HW233324   9.780   7.167   8.907  2.6925 -0.3371  0.6062
10916SOL     OW33325   0.174   3.614   9.920  0.5569  0.4798 -0.1901
10916SOL    HW133326   0.191   3.701   9.883  0.5468  0.3891 -0.4119
10916SOL    HW233327   0.184   3.554   9.846  0.7347  0.2731  0.0002
10917SOL     OW33328   8.703   8.489   9.844 -0.1616 -0.5522  0.2799
10917SOL    HW133329   8.662   8.403   9.853 -1.1798 -0.2780 -1.3457
10917SOL    HW233330   8.790   8.479   9.882 -0.1354 -2.3961 -0.2023
10918SOL     OW33331   0.790   0.529   1.743  0.1085  0.5870  0.0559
10918SOL    HW133332   0.710   0.571   1.711  0.2477  1.4340  0.7805
10918SOL    HW233333   0.805   0.457   1.682 -1.1824  0.4384 -0.1234
10919SOL     OW33334   7.761   3.612   6.641 -0.3073  0.4925 -0.1359
10919SOL    HW133335   7.762   3.619   6.737  1.4170 -1.0264  0.0002
10919SOL    HW233336   7.683   3.560   6.622  0.2834 -0.7200  0.6128
10920SOL     OW33337   8.052   7.025   8.940 -0.2558  0.0923 -0.0308
10920SOL    HW133338   7.997   7.090   8.981  0.9209  1.0701  0.0612
10920SOL    HW233339   8.140   7.064   8.940 -0.1451  0.2011 -3.4287
10921SOL     OW33340   2.443   1.873   3.495  0.7329 -0.0145 -0.2684
10921SOL    HW133341   2.535   1.880   3.522  0.9354  0.0171 -0.9713
10921SOL    HW233342   2.403   1.953   3.528  1.1501  0.3893 -0.7331
10922SOL     OW33343   3.200   4.051   9.189  0.1420  0.4947 -0.5214
10922SOL    HW133344   3.266   3.984   9.168 -2.1685 -2.4375  0.7670
10922SOL    HW233345   3.174   4.086   9.104  0.5740 -1.1523 -1.3925
10923SOL     OW33346   5.860   9.074   7.141 -0.0553 -0.3595 -0.0098
10923SOL    HW133347   5.896   9.064   7.229 -1.9532 -0.3789  0.8226
10923SOL    HW233348   5.920   9.134   7.097  0.9501 -0.3770  1.2814
10924SOL     OW33349   4.131   3.042   4.168 -0.2198  0.9042 -0.2290
10924SOL    HW133350   4.043   3.079   4.174  0.0684  1.5371  0.2132
10924SOL    HW233351   4.161   3.065   4.080 -1.7416 -2.2107 -1.7155
10925SOL     OW33352   3.830   1.882   4.983  0.1856 -0.2585  0.0522
10925SOL    HW133353   3.857   1.939   4.912 -0.3153 -0.8215 -0.6075
10925SOL    HW233354   3.845   1.793   4.950 -0.8031 -0.5472  0.3358
10926SOL     OW33355   9.691   1.845   2.334 -0.1112  0.1678 -0.5053
10926SOL    HW133356   9.614   1.871   2.283 -0.6900  0.3988  0.4529
10926SOL    HW233357   9.654   1.808   2.414  0.7774 -0.1549 -0.2407
10927SOL     OW33358   8.201   3.342   3.090 -0.2894 -0.3785  0.2121
10927SOL    HW133359   8.291   3.351   3.124  0.3239 -0.4373 -1.3045
10927SOL    HW233360   8.153   3.298   3.160  0.3412  1.4159  1.8757
10928SOL     OW33361   2.035   4.628   8.519  0.5894 -0.5718 -0.2697
10928SOL    HW133362   1.999   4.585   8.441 -0.2684 -2.1673  0.9173
10928SOL    HW233363   1.957   4.652   8.570  1.1308 -0.9222  0.7547
10929SOL     OW33364   0.324   9.493   2.163 -0.5066 -0.4743  0.0199
10929SOL    HW133365   0.342   9.409   2.205 -1.6535 -0.1668  1.1801
10929SOL    HW233366   0.394   9.503   2.098  0.3265 -1.7687  0.6790
10930SOL     OW33367   5.792   0.454   3.805 -0.3818 -0.2845  0.5849
10930SOL    HW133368   5.834   0.452   3.719  0.4698 -1.6619  1.0095
10930SOL    HW233369   5.701   0.479   3.787 -0.2746 -0.8125 -0.7366
10931SOL     OW33370   3.579   7.794   8.102  0.6628  0.1466  0.2766
10931SOL    HW133371   3.588   7.709   8.145  2.1952 -1.7131 -3.2298
10931SOL    HW233372   3.494   7.791   8.059 -0.3262  1.4708  2.0246
10932SOL     OW33373   6.285   1.088   5.455  0.1136  0.9415  0.0020
10932SOL    HW133374   6.237   1.092   5.538  0.9820  3.0868  0.4855
10932SOL    HW233375   6.266   1.172   5.413  2.8577  1.6257 -0.0688
10933SOL     OW33376   7.669   4.108   2.032 -0.2856 -1.0368  0.0008
10933SOL    HW133377   7.752   4.074   2.066 -0.5035 -1.5229  0.0519
10933SOL    HW233378   7.672   4.202   2.052 -1.1889 -1.5275  3.0800
10934SOL     OW33379   1.856   9.789   8.285 -0.1593 -0.4382  0.5162
10934SOL    HW133380   1.796   9.863   8.283 -0.0483 -0.0266  4.6428
10934SOL    HW233381   1.801   9.713   8.306  0.3972 -0.5052  1.8110
10935SOL     OW33382   8.413   7.976   9.297 -0.0968 -0.1386  0.0890
10935SOL    HW133383   8.478   8.031   9.253 -0.0831  0.0271  0.3121
10935SOL    HW233384   8.387   7.911   9.231 -1.5494  1.2957 -0.8326
10936SOL     OW33385   3.628   7.308   0.700 -0.2194 -0.1431 -0.0406
10936SOL    HW133386   3.561   7.291   0.767  0.6322  0.5131  1.0023
10936SOL    HW233387   3.711   7.293   0.745  0.3932  1.0840 -0.7158
10937SOL     OW33388   1.467   8.375   4.516 -0.2657  0.3051 -0.7093
10937SOL    HW133389   1.489   8.398   4.606 -2.3498  0.7635 -0.2572
10937SOL    HW233390   1.401   8.306   4.524 -0.9154  0.7593 -1.8328
10938SOL     OW33391   4.158   8.932   3.236  0.2080  0.1915  0.8730
10938SOL    HW133392   4.238   8.984   3.233  0.2809  0.1699  2.1887
10938SOL    HW233393   4.095   8.987   3.283 -0.9864  0.7543 -1.2301
10939SOL     OW33394   0.747   0.217   5.909 -0.6405 -0.2529  1.0441
10939SOL    HW133395   0.764   0.123   5.917 -2.6369 -0.6318  1.5858
10939SOL    HW233396   0.755   0.251   5.997  0.5845  0.2178  0.7705
10940SOL     OW33397   1.017   4.482   7.359 -0.2801 -0.4058 -0.2364
10940SOL    HW133398   1.029   4.511   7.268  0.7867  3.1832  0.8821
10940SOL    HW233399   1.087   4.525   7.407  0.5625 -3.9899  2.0845
10941SOL     OW33400   2.657   8.743   5.789 -0.1174  0.3892  0.0210
10941SOL    HW133401   2.662   8.796   5.710  0.9615 -1.5400 -1.2754
10941SOL    HW233402   2.718   8.671   5.774 -2.9142 -2.3520  0.8216
10942SOL     OW33403   3.480   6.484   1.793  0.2437  0.6162  0.3130
10942SOL    HW133404   3.483   6.396   1.832 -0.6727  0.9111  1.0807
10942SOL    HW233405   3.470   6.468   1.699  1.9677 -0.1006  0.2093
10943SOL     OW33406   2.830   6.231   4.276  0.0396 -0.0647  0.3890
10943SOL    HW133407   2.900   6.267   4.329 -0.7443  0.6763  0.9427
10943SOL    HW233408   2.839   6.274   4.191 -1.2335  1.9759  1.2083
10944SOL     OW33409   3.792   9.794   8.249  0.2815  0.3894  0.1611
10944SOL    HW133410   3.809   9.842   8.330  0.3555 -0.5155  0.6884
10944SOL    HW233411   3.734   9.722   8.274  1.1881 -0.5558 -0.3675
10945SOL     OW33412   3.098   9.388   7.731  0.0486  0.2419 -0.7144
10945SOL    HW133413   3.100   9.448   7.656 -0.7636 -0.2298 -1.1198
10945SOL    HW233414   3.189   9.361   7.742  0.3887  1.3270 -0.6983
10946SOL     OW33415   7.117   9.648   3.761  0.5902 -0.1092 -0.3021
10946SOL    HW133416   7.170   9.658   3.682  0.1224 -0.6549 -0.6954
10946SOL    HW233417   7.029   9.632   3.728 -0.5818  4.0783  0.3046
10947SOL     OW33418   1.275   8.658   7.258 -0.3981  0.2046 -0.4639
10947SOL    HW133419   1.196   8.624   7.301  0.5770 -2.0269 -0.2973
10947SOL    HW233420   1.243   8.730   7.204 -2.5302 -0.4676 -0.2105
10948SOL     OW33421   7.077   1.512   5.558  0.0783  0.4463  0.4644
10948SOL    HW133422   7.060   1.605   5.538 -0.6660  0.5822  1.6275
10948SOL    HW233423   7.007   1.488   5.618 -1.1876 -1.5702 -1.6867
10949SOL     OW33424   0.060   7.895   5.691  0.9858  0.0356 -0.0537
10949SOL    HW133425   0.019   7.890   5.777  0.9601 -0.0663 -0.0725
10949SOL    HW233426   0.147   7.859   5.704  0.2993 -1.9258 -0.5156
10950SOL     OW33427   2.795   4.355   1.652  0.8486  0.6676  0.3282
10950SOL    HW133428   2.715   4.377   1.604 -0.0697 -2.3279  0.2770
10950SOL    HW233429   2.774   4.374   1.743  0.0185 -0.1773  0.3225
10951SOL     OW33430   3.482   1.810   7.505 -0.5226 -0.0606  0.2022
10951SOL    HW133431   3.508   1.886   7.453  1.3860 -0.1824  0.9056
10951SOL    HW233432   3.437   1.847   7.581 -1.5314  0.2195 -0.5119
10952SOL     OW33433   1.013   7.471   2.668 -0.2684  0.4746  0.4932
10952SOL    HW133434   0.983   7.389   2.707 -0.5786 -0.6364 -1.8804
10952SOL    HW233435   1.087   7.446   2.613 -1.9411  1.2344 -2.3346
10953SOL     OW33436   8.749   8.072   1.918  0.4314 -0.3996  0.3959
10953SOL    HW133437   8.768   8.080   2.012  0.0525  3.1494  0.3141
10953SOL    HW233438   8.824   8.111   1.874  0.6715 -2.1542 -0.8550
10954SOL     OW33439   3.720   1.295   7.746  0.1395 -0.2110  0.2712
10954SOL    HW133440   3.799   1.348   7.737 -1.1127  1.8974  0.8003
10954SOL    HW233441   3.735   1.242   7.824  1.3869 -0.5759 -0.1940
10955SOL     OW33442   1.900   4.395   9.689 -0.4554  0.5385 -0.2325
10955SOL    HW133443   1.953   4.440   9.755 -2.3257  3.3155 -0.4105
10955SOL    HW233444   1.935   4.425   9.605 -0.1810 -0.3469 -0.4442
10956SOL     OW33445   6.390   0.176   6.782  0.2179 -0.2531 -0.2402
10956SOL    HW133446   6.385   0.229   6.702 -0.7520 -1.1353 -0.7807
10956SOL    HW233447   6.431   0.094   6.755  0.9171 -0.1302  0.4130
10957SOL     OW33448   3.242   9.657   1.587 -0.1008 -0.4785 -0.2656
10957SOL    HW133449   3.216   9.681   1.499  0.9076 -1.2408 -0.7958
10957SOL    HW233450   3.334   9.632   1.579  0.9242  2.2454  1.5428
10958SOL     OW33451   1.319   4.167   2.401  0.0689 -0.1273  0.2361
10958SOL    HW133452   1.367   4.250   2.392 -2.2429  1.4947  1.6217
10958SOL    HW233453   1.381   4.107   2.441  1.2745  1.5215  0.9518
10959SOL     OW33454   8.147   3.118   6.279 -0.3432  0.1477 -0.1344
10959SOL    HW133455   8.185   3.107   6.192 -0.0199  0.5240 -0.0448
10959SOL    HW233456   8.198   3.060   6.336  0.4574  1.0406  0.0836
10960SOL     OW33457   3.680   5.794   4.278  0.7860  0.2215  0.3122
10960SOL    HW133458   3.738   5.841   4.218  1.9215 -1.0337  0.4066
10960SOL    HW233459   3.737   5.762   4.348 -0.0833 -0.6746  0.6335
10961SOL     OW33460   8.499   4.059   5.935  0.4102 -0.0206 -0.2283
10961SOL    HW133461   8.512   3.978   5.887  0.4607 -0.3691  0.3684
10961SOL    HW233462   8.562   4.055   6.007 -1.0615 -0.4591  1.0759
10962SOL     OW33463   9.130   4.444   9.390 -0.3491 -0.2647  0.0481
10962SOL    HW133464   9.152   4.377   9.455 -0.7195 -0.4338  0.0029
10962SOL    HW233465   9.200   4.438   9.325 -0.7946 -1.1554 -0.3666
10963SOL     OW33466   1.121   4.406   0.078 -0.3752  0.2011  0.0853
10963SOL    HW133467   1.214   4.402   0.099 -0.3696  1.3995  0.3842
10963SOL    HW233468   1.095   4.315   0.064  0.2556 -0.4381  2.6119
10964SOL     OW33469   1.466   6.683   8.847 -0.3508  0.1395  0.0557
10964SOL    HW133470   1.424   6.637   8.919 -1.0000  1.6139  0.6674
10964SOL    HW233471   1.410   6.759   8.831  0.6167  0.6727 -0.9588
10965SOL     OW33472   6.787   4.344   6.537 -0.7597 -0.2155 -0.3929
10965SOL    HW133473   6.769   4.362   6.444 -0.9475 -0.3356 -0.3810
10965SOL    HW233474   6.780   4.249   6.544  1.2898 -0.4217 -0.6763
10966SOL     OW33475   8.940   4.650   6.013  0.3227 -0.1623 -0.0946
10966SOL    HW133476   8.990   4.590   5.958  0.5682  0.6418 -0.7720
10966SOL    HW233477   8.879   4.693   5.952 -0.1659 -0.0552  0.4580
10967SOL     OW33478   0.663   2.079   7.859  0.2823 -0.1340  0.1408
10967SOL    HW133479   0.614   2.090   7.941 -1.6660  0.1676 -0.9858
10967SOL    HW233480   0.702   2.165   7.843 -1.1590  0.4600 -0.3232
10968SOL     OW33481   0.279   4.590   4.519 -0.7374  0.1839 -0.7256
10968SOL    HW133482   0.252   4.591   4.428  0.7028  2.8978 -1.2283
10968SOL    HW233483   0.200   4.614   4.568 -1.0409  0.7104 -1.4634
10969SOL     OW33484   5.427   5.196   7.434  0.0852  0.4888  0.0694
10969SOL    HW133485   5.358   5.137   7.464  1.7735 -1.7677 -0.2192
10969SOL    HW233486   5.423   5.192   7.338  0.4495  0.5001  0.0495
10970SOL     OW33487   5.046   5.374   4.777  0.2539 -0.6784  0.1388
10970SOL    HW133488   4.956   5.352   4.755  0.0712  0.7279 -0.5930
10970SOL    HW233489   5.098   5.322   4.715 -0.1131 -0.3987 -0.4195
10971SOL     OW33490   0.047   6.176   9.387 -0.0652  0.4960 -0.1779
10971SOL    HW133491   0.101   6.121   9.443 -0.3730  1.4552  1.0915
10971SOL    HW233492  -0.021   6.210   9.444 -1.1386  0.5249 -1.4161
10972SOL     OW33493   4.901   5.336   9.893  0.1101  0.6329  0.8365
10972SOL    HW133494   4.984   5.314   9.850  0.7262  0.7508  1.9359
10972SOL    HW233495   4.927   5.388   9.969 -0.6611 -2.0869  3.1270
10973SOL     OW33496   4.047   8.594   5.092 -0.0281  0.1685 -0.4940
10973SOL    HW133497   4.111   8.626   5.029  1.3619  1.0686  1.2680
10973SOL    HW233498   4.082   8.509   5.120 -0.3331  0.0292 -0.5318
10974SOL     OW33499   4.307   3.759   3.498  0.0536 -0.3286  0.4266
10974SOL    HW133500   4.314   3.840   3.547  0.3827 -0.0768 -0.0371
10974SOL    HW233501   4.214   3.734   3.507  0.1298 -0.3435  1.2520
10975SOL     OW33502   3.940   1.235   7.471  0.5771  0.0267  0.1983
10975SOL    HW133503   3.897   1.151   7.456  0.3952 -0.2142  1.8820
10975SOL    HW233504   3.898   1.295   7.410  0.4177 -0.9941 -0.7358
10976SOL     OW33505   7.160   7.954   2.057  0.1061  0.6188  0.1416
10976SOL    HW133506   7.204   7.907   2.128 -0.7387 -0.8438 -0.2670
10976SOL    HW233507   7.207   7.927   1.978  1.3823  2.6408  0.1189
10977SOL     OW33508   6.850   2.038   8.693  0.4864 -0.4983  0.7613
10977SOL    HW133509   6.805   1.954   8.681  0.6197 -0.4241 -0.3837
10977SOL    HW233510   6.942   2.013   8.704  0.2833 -0.6122  2.5246
10978SOL     OW33511   1.916   9.932   4.710  0.0928  0.2690  0.3074
10978SOL    HW133512   1.854   9.866   4.741 -1.7487  0.4659 -2.5928
10978SOL    HW233513   1.976   9.883   4.653  1.6290  0.3892  1.7399
10979SOL     OW33514   5.103   1.810   0.020  0.5209  0.3240 -0.0250
10979SOL    HW133515   5.069   1.815   0.109 -0.6123  5.8072 -0.4412
10979SOL    HW233516   5.199   1.807   0.031  0.4865  2.5832  1.5034
10980SOL     OW33517   5.032   6.930   3.018  0.2422 -0.3601  0.1488
10980SOL    HW133518   5.048   6.869   3.090  1.0303 -0.4397 -0.0818
10980SOL    HW233519   5.081   7.009   3.042  1.9440 -0.9767 -1.0641
10981SOL     OW33520   2.665   2.252   0.746 -0.0917 -0.0743 -0.0001
10981SOL    HW133521   2.625   2.255   0.659  1.0063 -0.3927 -0.5407
10981SOL    HW233522   2.759   2.242   0.729  0.1839  0.2217  1.2237
10982SOL     OW33523   4.374   4.255   0.068  1.2151  0.4171 -1.0221
10982SOL    HW133524   4.391   4.161   0.073  2.5334  0.6819 -0.0542
10982SOL    HW233525   4.332   4.277   0.152  2.0962  0.8876 -0.6817
10983SOL     OW33526   2.133   9.223   4.453 -0.6749 -1.0305 -0.3155
10983SOL    HW133527   2.170   9.189   4.372  1.3895  1.9006 -0.7590
10983SOL    HW233528   2.065   9.284   4.425 -0.3708 -0.4560  0.1685
10984SOL     OW33529   1.014   9.852   7.869  0.4834  0.3112 -0.1611
10984SOL    HW133530   0.939   9.812   7.914  1.2919 -0.0736  0.8793
10984SOL    HW233531   0.996   9.839   7.776  0.0494 -1.2518  0.1218
10985SOL     OW33532   3.910   7.582   7.990 -0.8817 -0.3514 -0.4530
10985SOL    HW133533   3.922   7.503   8.043  0.9017  0.6874  0.8113
10985SOL    HW233534   3.879   7.550   7.906 -3.8899 -2.0722  1.1577
10986SOL     OW33535   9.313   9.904   1.756  0.0721 -0.4807 -0.6628
10986SOL    HW133536   9.302   9.809   1.748 -0.6738 -0.3089 -1.9802
10986SOL    HW233537   9.224   9.938   1.746  0.5275  0.4371 -1.6213
10987SOL     OW33538   5.082   1.327   7.346  0.0502 -0.1578 -0.4934
10987SOL    HW133539   5.032   1.363   7.420 -1.5599 -1.0458 -1.0970
10987SOL    HW233540   5.137   1.400   7.317  1.1631  0.0505  1.9030
10988SOL     OW33541   0.587   5.451   7.055 -0.2460  0.0343  0.1115
10988SOL    HW133542   0.581   5.483   7.145 -3.1191 -0.2657  0.0870
10988SOL    HW233543   0.598   5.530   7.002 -1.1329  0.4493  0.5367
10989SOL     OW33544   5.960   6.389   5.926  0.2144  0.3092 -0.5596
10989SOL    HW133545   6.055   6.390   5.923  0.2578  0.5227  0.4751
10989SOL    HW233546   5.936   6.478   5.950 -0.2672  0.3536 -1.1853
10990SOL     OW33547   6.185   4.042   3.279 -0.2743 -0.3408 -0.0902
10990SOL    HW133548   6.095   4.009   3.292  0.4389 -2.1126  0.7016
10990SOL    HW233549   6.239   3.963   3.278  1.3768  0.7382  0.1613
10991SOL     OW33550   7.581  -0.013   8.133  0.3369 -0.3324 -0.1010
10991SOL    HW133551   7.561   0.069   8.087  0.1863  0.6215  1.5744
10991SOL    HW233552   7.670  -0.001   8.164  0.1627 -0.6336  0.5163
10992SOL     OW33553   3.666   9.704   0.531 -0.4532  0.6785 -0.0704
10992SOL    HW133554   3.633   9.788   0.563  0.3411  0.8359  0.3728
10992SOL    HW233555   3.632   9.639   0.593 -0.9910  0.6784 -0.3603
10993SOL     OW33556   9.139   3.679   0.887  0.1043 -0.4905 -0.0815
10993SOL    HW133557   9.072   3.629   0.839 -2.3458  1.8922  0.5843
10993SOL    HW233558   9.203   3.703   0.821 -0.7704 -1.1286 -1.2043
10994SOL     OW33559   5.418   7.956   6.377 -0.7630  0.3370  0.7129
10994SOL    HW133560   5.413   7.863   6.355  0.1783  0.8304 -1.9165
10994SOL    HW233561   5.333   7.991   6.349 -0.6870  0.4631  0.6440
10995SOL     OW33562   1.974   0.652   0.446  0.2103  0.1558 -0.2040
10995SOL    HW133563   1.927   0.572   0.470  0.2817 -0.4943 -2.0908
10995SOL    HW233564   1.933   0.680   0.364  0.9527  1.4309 -0.1685
10996SOL     OW33565   8.210   4.934   1.765 -0.0037  0.0391 -0.4352
10996SOL    HW133566   8.155   4.930   1.687 -0.8793 -1.4531  0.2233
10996SOL    HW233567   8.200   5.024   1.797 -1.2627  0.0804 -0.8973
10997SOL     OW33568   5.052   2.497   8.806 -0.2410  0.0885 -0.4166
10997SOL    HW133569   5.055   2.558   8.732 -1.8757  1.1423  0.3418
10997SOL    HW233570   5.135   2.449   8.800  0.6333  1.6513 -1.6550
10998SOL     OW33571   8.168   5.526   2.208 -0.3668 -0.0983  0.2732
10998SOL    HW133572   8.104   5.598   2.213 -1.5544 -1.1419  0.5113
10998SOL    HW233573   8.200   5.517   2.298 -2.5933 -1.9128  0.9731
10999SOL     OW33574   9.064   5.534   3.799  0.0770 -0.1546 -0.3403
10999SOL    HW133575   9.034   5.464   3.741 -2.7366  0.3542  0.3445
10999SOL    HW233576   9.055   5.498   3.887  1.3863  0.1266 -0.0598
11000SOL     OW33577   7.321   8.145   4.649 -0.3176 -0.0809 -0.3760
11000SOL    HW133578   7.379   8.183   4.582  1.5738  0.5060  1.4792
11000SOL    HW233579   7.317   8.052   4.626  1.9898 -0.2818 -0.2022
11001SOL     OW33580   3.274   0.399   6.588  0.1020  0.1105  0.3316
11001SOL    HW133581   3.198   0.372   6.638 -2.0671  0.7128 -2.3849
11001SOL    HW233582   3.274   0.495   6.594 -0.2426  0.1950 -0.8326
11002SOL     OW33583   1.778   8.325   0.327  0.4954  0.6751 -0.0743
11002SOL    HW133584   1.853   8.273   0.300 -0.0704  0.0728 -0.5025
11002SOL    HW233585   1.713   8.261   0.356 -0.4577  1.0731 -1.2260
11003SOL     OW33586   7.565   8.735   8.850  0.1104 -0.1893 -0.0685
11003SOL    HW133587   7.656   8.755   8.874  0.4886 -2.1858  0.4066
11003SOL    HW233588   7.573   8.694   8.763 -0.4642  0.5335 -0.4681
11004SOL     OW33589   1.310   7.404   0.755  0.1656 -0.2665 -0.0734
11004SOL    HW133590   1.342   7.494   0.755 -1.2077  0.3319  2.4976
11004SOL    HW233591   1.368   7.357   0.695  0.0011  2.5931 -2.7086
11005SOL     OW33592   4.099   6.820   3.511  0.0102  0.0585 -0.0467
11005SOL    HW133593   4.029   6.755   3.518 -1.5229  1.6066 -0.3296
11005SOL    HW233594   4.111   6.833   3.417 -0.5317  1.0192  0.0076
11006SOL     OW33595   3.258   6.861   3.622  0.4458 -0.0447  0.0454
11006SOL    HW133596   3.198   6.936   3.611  2.6645  1.7383 -0.7089
11006SOL    HW233597   3.208   6.799   3.675 -1.9268  1.4716 -0.2293
11007SOL     OW33598   6.585   3.992   8.216  0.4400  0.0516 -0.4203
11007SOL    HW133599   6.525   4.022   8.147 -1.0015 -0.7780  0.4364
11007SOL    HW233600   6.638   4.069   8.236 -0.2857  0.7886 -1.2470
11008SOL     OW33601   2.490   4.794   3.028 -0.3933 -0.3090  0.4939
11008SOL    HW133602   2.571   4.782   2.978 -1.2033  0.4105 -1.0611
11008SOL    HW233603   2.466   4.706   3.057 -0.9359 -1.1118 -2.1287
11009SOL     OW33604   9.665   8.366   0.862  0.3621 -0.4605 -0.3138
11009SOL    HW133605   9.677   8.447   0.910 -0.2207 -0.6686  0.1899
11009SOL    HW233606   9.750   8.351   0.819  0.0214  1.2400 -1.7349
11010SOL     OW33607   6.489   5.059   7.608  0.3743  0.6024 -1.0423
11010SOL    HW133608   6.569   5.016   7.638  0.9100  1.0207 -1.8290
11010SOL    HW233609   6.497   5.149   7.640 -0.5407  0.2629  0.2300
11011SOL     OW33610   5.855   6.010   8.746  0.2017 -0.0502 -0.4734
11011SOL    HW133611   5.848   6.100   8.777  0.5349  0.2555 -1.2554
11011SOL    HW233612   5.923   5.971   8.801 -0.4562 -0.0532  0.3567
11012SOL     OW33613   0.677   4.326   3.637 -0.0309 -0.2666  0.1829
11012SOL    HW133614   0.750   4.387   3.645  0.4731 -0.6777 -1.0793
11012SOL    HW233615   0.625   4.360   3.564 -0.6107 -0.4850  0.4848
11013SOL     OW33616   4.051   1.947   9.794 -0.0659  0.0858  0.2164
11013SOL    HW133617   4.002   2.020   9.831 -0.0244  0.3456 -0.2284
11013SOL    HW233618   4.042   1.876   9.858  0.1418  0.5719  0.7876
11014SOL     OW33619   0.437   1.301   3.276  0.2068  0.3969 -0.0236
11014SOL    HW133620   0.517   1.248   3.279 -0.2160 -0.2098  1.2522
11014SOL    HW233621   0.441   1.345   3.191  1.4306 -0.3427 -0.3826
11015SOL     OW33622   9.769   1.946   5.961 -0.6404 -0.3115 -0.0014
11015SOL    HW133623   9.761   1.880   5.893 -2.1105  0.9760 -1.1631
11015SOL    HW233624   9.803   2.023   5.915 -0.0988  0.1030  1.0688
11016SOL     OW33625   1.145   8.508   7.938  0.2705  0.0805  0.2513
11016SOL    HW133626   1.123   8.432   7.991 -0.0290  0.7486  1.1181
11016SOL    HW233627   1.230   8.488   7.901  0.0689 -0.7886  0.2434
11017SOL     OW33628   2.967   0.796   4.968 -0.4238 -0.1704 -0.2061
11017SOL    HW133629   2.958   0.702   4.953  0.0423 -0.4331  1.0202
11017SOL    HW233630   2.971   0.804   5.064 -0.9729  1.1484 -0.2759
11018SOL     OW33631   4.380   3.429   7.291 -0.0625 -0.2378  0.3192
11018SOL    HW133632   4.322   3.490   7.337 -1.5838 -1.1620 -0.2834
11018SOL    HW233633   4.458   3.423   7.347 -1.6455 -0.9687  2.6069
11019SOL     OW33634   5.712   8.878   7.623 -0.3571 -0.0119 -0.1478
11019SOL    HW133635   5.749   8.859   7.537 -0.4513  0.5417 -0.3161
11019SOL    HW233636   5.668   8.797   7.649  0.3458 -0.4448 -0.2650
11020SOL     OW33637   3.251   1.818   0.719  0.4694  0.2523  0.4515
11020SOL    HW133638   3.178   1.786   0.665 -0.5076  1.2708  1.1249
11020SOL    HW233639   3.281   1.740   0.767  2.4640 -1.0997 -2.6599
11021SOL     OW33640   7.780   4.988   1.870  0.1389  0.5549 -1.0079
11021SOL    HW133641   7.829   4.968   1.950 -1.2773  0.6571 -0.0792
11021SOL    HW233642   7.811   4.924   1.806  3.3484  2.2038 -1.3048
11022SOL     OW33643   4.914   0.198   6.230  0.0136  0.3305 -0.4153
11022SOL    HW133644   4.957   0.246   6.300  0.6080 -0.1395 -0.4371
11022SOL    HW233645   4.822   0.195   6.254  0.4708 -1.5015  1.3797
11023SOL     OW33646   3.165   0.597   3.034  0.3061  0.2651 -0.0205
11023SOL    HW133647   3.101   0.539   2.992  1.2040 -0.7271 -0.0511
11023SOL    HW233648   3.223   0.539   3.082  1.2664  1.1370 -0.0808
11024SOL     OW33649   4.241   1.712   8.942 -0.4718  0.0326  0.0075
11024SOL    HW133650   4.187   1.692   8.865 -0.4159  0.3016 -0.1027
11024SOL    HW233651   4.296   1.785   8.914  0.0396 -0.3238  0.0806
11025SOL     OW33652   7.180   0.992   5.293  0.0043  0.3117  0.3309
11025SOL    HW133653   7.106   1.041   5.327 -1.1282 -0.8121 -0.4440
11025SOL    HW233654   7.219   1.050   5.227 -1.9664 -0.1815 -1.3535
11026SOL     OW33655   6.402   8.312   7.021  0.2316 -0.1395  0.2317
11026SOL    HW133656   6.310   8.299   6.998  0.1697  0.2317  0.2618
11026SOL    HW233657   6.449   8.244   6.972  0.0178  0.1342 -0.3684
11027SOL     OW33658   9.854   7.593   7.201 -0.0160  0.6042  0.2069
11027SOL    HW133659   9.901   7.646   7.265  0.1881  1.9428 -1.0089
11027SOL    HW233660   9.809   7.527   7.253  0.5069  1.3743  1.6833
11028SOL     OW33661   5.931   2.231   8.479 -0.1332  0.6158 -0.2714
11028SOL    HW133662   5.894   2.318   8.469  0.3107  0.7199 -1.0755
11028SOL    HW233663   5.911   2.186   8.397  0.2792  0.2030 -0.1552
11029SOL     OW33664   1.865   7.121   8.494  0.1516 -0.0864  0.1980
11029SOL    HW133665   1.818   7.143   8.575 -0.4417 -0.9447  0.1020
11029SOL    HW233666   1.919   7.045   8.518 -1.1577 -1.2990 -0.5683
11030SOL     OW33667   1.630   9.971   7.258  0.0246  0.6845  0.3737
11030SOL    HW133668   1.592   9.912   7.193  0.8202  0.1261  0.4107
11030SOL    HW233669   1.708   9.926   7.288  1.3231  2.2821 -0.4707
11031SOL     OW33670   4.477   5.986   9.290  0.0174 -0.1624 -0.0379
11031SOL    HW133671   4.533   6.059   9.313 -2.6335  2.4028 -1.0502
11031SOL    HW233672   4.419   5.975   9.366 -0.1610 -0.6027 -0.2332
11032SOL     OW33673   8.464   3.844   0.181  0.1005  0.6276 -0.1498
11032SOL    HW133674   8.520   3.920   0.167 -0.8256  1.7750  1.9148
11032SOL    HW233675   8.391   3.877   0.233 -0.9215 -1.4635 -0.1460
11033SOL     OW33676   9.645   7.537   0.133  0.1757 -0.0556  0.8208
11033SOL    HW133677   9.568   7.592   0.116  0.0080 -0.0521  1.5654
11033SOL    HW233678   9.640   7.468   0.067  0.4787  0.9037 -0.2307
11034SOL     OW33679   1.763   0.813   5.235 -0.8341  0.0335  0.1069
11034SOL    HW133680   1.836   0.754   5.254  1.4998  2.3572 -1.0025
11034SOL    HW233681   1.788   0.856   5.153 -1.9423  3.1439  1.2499
11035SOL     OW33682   8.226   3.920   9.779  0.1471 -0.2185  0.1717
11035SOL    HW133683   8.242   3.853   9.845 -3.1628 -1.2876  0.0950
11035SOL    HW233684   8.203   3.998   9.830  0.3028 -0.2527  0.2924
11036SOL     OW33685   5.899   1.036   0.708 -0.3289  0.0216 -0.4894
11036SOL    HW133686   5.873   0.977   0.637 -1.4428  1.1404 -1.0299
11036SOL    HW233687   5.830   1.102   0.712  0.2908  0.6324  0.8937
11037SOL     OW33688   5.807   7.019   9.228  0.3236 -0.3905 -0.6550
11037SOL    HW133689   5.784   6.926   9.228 -0.2561 -0.2501  0.2563
11037SOL    HW233690   5.765   7.055   9.306  0.3086  0.7023 -1.1524
11038SOL     OW33691   4.944   8.059   9.605 -0.8029 -0.2084  0.5095
11038SOL    HW133692   5.027   8.106   9.612 -1.1055  0.6339 -1.0726
11038SOL    HW233693   4.894   8.087   9.682  0.4453 -0.9124  1.6061
11039SOL     OW33694   3.579   4.487   6.763 -0.6961 -0.4201  0.1185
11039SOL    HW133695   3.656   4.467   6.815  0.8037 -0.7879 -2.0910
11039SOL    HW233696   3.542   4.565   6.804 -1.2947 -2.2134  3.3538
11040SOL     OW33697   3.800   0.851   0.650  0.2024  0.4424  0.4987
11040SOL    HW133698   3.810   0.844   0.745  0.3823  0.9172  0.5146
11040SOL    HW233699   3.828   0.940   0.629 -0.3763  0.5268  0.0707
11041SOL     OW33700   3.981   5.101   8.508  0.1611  0.0263  0.2005
11041SOL    HW133701   3.975   5.049   8.589  1.2272  0.6087  0.6755
11041SOL    HW233702   4.032   5.045   8.448 -1.4291 -0.8077 -0.4333
11042SOL     OW33703   4.497   4.154   8.700  0.1052  0.2152 -0.1838
11042SOL    HW133704   4.499   4.058   8.705  0.4910  0.2513  0.6178
11042SOL    HW233705   4.546   4.175   8.620 -1.9073 -0.3139 -1.6231
11043SOL     OW33706   2.595   7.069   1.571  0.2472  0.2642 -0.2953
11043SOL    HW133707   2.680   7.029   1.593 -0.0580  0.7823  2.1819
11043SOL    HW233708   2.534   7.029   1.633 -0.6456  2.3141  0.2214
11044SOL     OW33709   1.465   1.700   9.613 -0.0627 -0.0971  0.2642
11044SOL    HW133710   1.379   1.686   9.573  0.4780 -0.8781 -0.6856
11044SOL    HW233711   1.450   1.689   9.707 -0.7977 -1.3742  0.0266
11045SOL     OW33712   7.761   3.737   6.903  0.1344 -0.2265 -0.3777
11045SOL    HW133713   7.790   3.812   6.851 -0.7225  0.7799  0.5477
11045SOL    HW233714   7.829   3.725   6.968  0.3476 -0.3570 -0.6218
11046SOL     OW33715   4.985   2.647   1.331 -0.0474  0.1587 -0.7100
11046SOL    HW133716   5.004   2.594   1.253  0.8490  0.6822 -0.8640
11046SOL    HW233717   4.890   2.657   1.331 -0.2150 -1.1709 -0.8564
11047SOL     OW33718   1.131   1.796   6.156 -0.0937 -1.1331  0.5988
11047SOL    HW133719   1.077   1.797   6.236  0.2688 -3.1434  0.9064
11047SOL    HW233720   1.212   1.752   6.181  0.6676 -0.4298 -0.5167
11048SOL     OW33721   5.289   8.330   1.799 -0.0477 -0.5883 -0.0453
11048SOL    HW133722   5.324   8.262   1.740  0.5800  0.3799 -0.8200
11048SOL    HW233723   5.194   8.319   1.794 -0.0573 -0.0252 -1.9016
11049SOL     OW33724   8.425   0.923   5.477 -0.1757 -0.1355 -0.2162
11049SOL    HW133725   8.433   1.010   5.517  0.5015 -0.4180  0.2841
11049SOL    HW233726   8.455   0.934   5.387  2.4458 -0.3569  0.5471
11050SOL     OW33727   9.556   3.871   4.457  0.0937  0.2366  0.2637
11050SOL    HW133728   9.513   3.800   4.410  1.3412 -0.8426  0.6807
11050SOL    HW233729   9.582   3.832   4.541  1.1370  1.0676  0.3518
11051SOL     OW33730   5.500   7.009   1.248  0.4038  0.0109  0.3729
11051SOL    HW133731   5.432   7.072   1.274 -0.3253 -0.5881 -0.0104
11051SOL    HW233732   5.461   6.923   1.267  0.9281 -0.3537 -0.1563
11052SOL     OW33733   2.631   3.707   1.118 -0.0721 -0.2667 -0.1680
11052SOL    HW133734   2.615   3.774   1.185 -1.6100 -0.5083 -0.2507
11052SOL    HW233735   2.694   3.647   1.158  0.4769  0.6127  0.3277
11053SOL     OW33736   0.427   4.915   7.031 -0.3565  0.6488 -0.5723
11053SOL    HW133737   0.402   4.828   7.065  0.8502  0.6135  0.2741
11053SOL    HW233738   0.518   4.925   7.056 -0.9106  2.8766  0.8452
11054SOL     OW33739   4.256   0.862   2.829  0.5441  0.2360  0.0798
11054SOL    HW133740   4.278   0.824   2.743 -1.4718  0.7038 -0.6936
11054SOL    HW233741   4.288   0.797   2.892 -2.8841 -3.0341 -1.1703
11055SOL     OW33742   6.598   0.839   1.699  0.0816  0.2991 -0.2662
11055SOL    HW133743   6.586   0.761   1.645 -0.1297 -0.2397  0.5333
11055SOL    HW233744   6.509   0.861   1.729  0.3294 -0.1768  0.8809
11056SOL     OW33745   1.273   4.159   7.664  0.3713 -0.1829 -0.3986
11056SOL    HW133746   1.343   4.188   7.606 -0.7682  0.4147 -1.5435
11056SOL    HW233747   1.312   4.157   7.751  1.9352 -0.3751 -1.0763
11057SOL     OW33748   4.555   1.863   4.540 -0.1043  0.1498  0.2146
11057SOL    HW133749   4.536   1.775   4.572  1.1075 -0.0898  0.3277
11057SOL    HW233750   4.610   1.849   4.463 -0.2050  0.8030  0.0203
11058SOL     OW33751   2.454   8.944   5.875  0.3290 -0.1400 -0.2991
11058SOL    HW133752   2.430   8.864   5.828  1.1274 -0.1595 -0.6970
11058SOL    HW233753   2.534   8.921   5.923 -0.4964 -0.1279  1.1377
11059SOL     OW33754   6.053   5.221   8.462 -0.5233  0.0896 -0.0709
11059SOL    HW133755   6.093   5.140   8.430 -2.5203 -0.2641 -1.8604
11059SOL    HW233756   6.040   5.275   8.384  0.9041  2.2776  1.0998
11060SOL     OW33757   8.680   3.493   5.038  0.0337 -0.0996 -0.2715
11060SOL    HW133758   8.647   3.432   4.972 -0.8118  0.7233 -0.6446
11060SOL    HW233759   8.639   3.466   5.120 -0.3304 -0.0340 -0.4335
11061SOL     OW33760   8.936   9.292   1.500  0.7001  0.1949  0.1019
11061SOL    HW133761   8.845   9.293   1.530  0.9247 -2.4209  1.0944
11061SOL    HW233762   8.966   9.203   1.516  3.5333  1.0323 -0.0122
11062SOL     OW33763   8.906   8.633   3.926 -0.0499 -0.0662 -0.2033
11062SOL    HW133764   8.924   8.718   3.887 -0.3433  0.9078  1.6695
11062SOL    HW233765   8.977   8.618   3.988 -0.3309 -0.8874 -0.0580
11063SOL     OW33766   3.279   4.407   1.714 -0.1846  0.3723  0.1332
11063SOL    HW133767   3.368   4.397   1.748  0.3658  2.2755 -0.5583
11063SOL    HW233768   3.222   4.372   1.782  1.0808 -0.6832  0.6885
11064SOL     OW33769   2.603   4.326   1.180 -0.0769  0.2184  1.1276
11064SOL    HW133770   2.534   4.316   1.245 -1.5006  0.4102 -0.2914
11064SOL    HW233771   2.644   4.240   1.175  1.0210  0.5467  3.2433
11065SOL     OW33772   9.277   8.418   1.142  0.0608  0.5518  0.0000
11065SOL    HW133773   9.369   8.416   1.169 -0.2318 -0.9136  0.9396
11065SOL    HW233774   9.279   8.461   1.056  1.7754 -0.5154 -0.5485
11066SOL     OW33775   5.891   9.000   0.562  0.2462  0.0605  0.0536
11066SOL    HW133776   5.869   8.935   0.495  1.3959 -0.1823 -0.1028
11066SOL    HW233777   5.816   8.999   0.621 -0.7576  0.2247 -1.1692
11067SOL     OW33778   9.454   1.983   4.846 -0.0031 -0.3200 -0.3388
11067SOL    HW133779   9.497   2.024   4.771 -0.5132 -1.2784 -1.1810
11067SOL    HW233780   9.508   1.906   4.866  1.8616  1.4813  2.2385
11068SOL     OW33781   2.541   7.298   2.424 -0.6896 -0.2205 -0.2349
11068SOL    HW133782   2.539   7.352   2.503 -0.9831  1.3150 -1.2293
11068SOL    HW233783   2.490   7.221   2.445 -2.1049  0.9034  0.5840
11069SOL     OW33784   1.297   4.740   1.395  0.7328  0.5863 -0.0944
11069SOL    HW133785   1.246   4.741   1.476 -0.1643  1.8364 -0.6474
11069SOL    HW233786   1.353   4.818   1.401  1.7370 -0.1213 -0.0347
11070SOL     OW33787   5.798   3.927   2.487 -0.5186  0.0560  0.2321
11070SOL    HW133788   5.796   3.834   2.507  2.0869  0.3294  2.2553
11070SOL    HW233789   5.860   3.936   2.415 -0.7348  0.2385  0.0645
11071SOL     OW33790   0.166   1.445   2.008 -0.2831  0.5096 -0.2025
11071SOL    HW133791   0.185   1.513   2.073 -0.9267  2.3717 -1.8687
11071SOL    HW233792   0.245   1.439   1.955 -0.6336  0.8081 -0.7675
11072SOL     OW33793   0.875   4.558   4.423 -0.1751  0.2945  0.0791
11072SOL    HW133794   0.808   4.515   4.476  1.6317 -2.0215  0.6254
11072SOL    HW233795   0.840   4.555   4.334 -0.8691 -0.7367  0.3691
11073SOL     OW33796   6.168   1.088   3.539 -0.1671  0.6022  0.1746
11073SOL    HW133797   6.099   1.121   3.481 -0.6935  0.0404  0.4904
11073SOL    HW233798   6.247   1.089   3.484 -0.2896  1.8142 -0.0068
11074SOL     OW33799   2.709   9.009   9.867 -0.3672 -0.1127  0.0847
11074SOL    HW133800   2.722   8.928   9.917 -2.8758 -1.4717 -1.2687
11074SOL    HW233801   2.738   9.078   9.926  0.7625 -1.8972  1.7608
11075SOL     OW33802   2.335   1.800   3.183 -0.6863 -0.1869 -0.2255
11075SOL    HW133803   2.309   1.708   3.195  0.5185 -0.5475 -0.2403
11075SOL    HW233804   2.324   1.840   3.269 -0.6298 -0.5027 -0.0701
11076SOL     OW33805   7.347   6.686   5.009 -0.5255 -0.3052  0.1304
11076SOL    HW133806   7.373   6.637   5.086  1.8981  1.2710  0.4135
11076SOL    HW233807   7.313   6.769   5.043 -1.5805 -0.4727 -0.4525
11077SOL     OW33808   5.124   2.609   7.256  0.0410 -0.6459  0.0496
11077SOL    HW133809   5.116   2.699   7.225  0.0116 -0.8607 -0.5803
11077SOL    HW233810   5.156   2.560   7.180  0.7162 -1.0485  0.5776
11078SOL     OW33811   0.470   0.268   1.339  0.1331  0.2864 -0.8947
11078SOL    HW133812   0.487   0.331   1.409 -0.5455 -0.2254 -0.2591
11078SOL    HW233813   0.554   0.225   1.326  0.6825  1.4969 -1.5335
11079SOL     OW33814   1.618   8.652   6.266 -0.3544  0.0532 -0.0806
11079SOL    HW133815   1.632   8.572   6.216 -1.9047 -0.5987  0.4625
11079SOL    HW233816   1.525   8.651   6.288  0.0414  0.8451  1.8759
11080SOL     OW33817   8.964   4.347   8.121 -0.0324 -0.0473  0.3043
11080SOL    HW133818   9.036   4.294   8.089 -0.8206 -0.5940 -0.6460
11080SOL    HW233819   9.005   4.425   8.157  0.9856  0.0887 -1.0871
11081SOL     OW33820   7.961   5.401   9.495 -0.1322  0.1342 -0.6311
11081SOL    HW133821   8.007   5.397   9.411  0.7024  2.4876 -0.3570
11081SOL    HW233822   7.871   5.379   9.474  0.1536  0.2555 -2.0653
11082SOL     OW33823   4.345   0.414   4.605 -0.1734  0.0114 -0.2058
11082SOL    HW133824   4.347   0.415   4.510  0.3186 -2.0242 -0.2515
11082SOL    HW233825   4.252   0.408   4.628 -0.1984 -2.5726 -0.6902
11083SOL     OW33826   0.680   0.939   3.404 -0.8940  0.0141 -0.3624
11083SOL    HW133827   0.662   1.001   3.333 -1.9993  0.9477  0.6912
11083SOL    HW233828   0.647   0.856   3.372 -4.0823  0.9782  0.0818
11084SOL     OW33829   0.906   6.558   3.374 -0.9236 -0.2842 -0.1621
11084SOL    HW133830   0.906   6.472   3.418  0.2863 -1.3525 -2.0954
11084SOL    HW233831   0.922   6.621   3.444  1.7069 -1.9767  0.9145
11085SOL     OW33832   5.697   1.099   6.962 -0.3919 -0.0640 -0.4305
11085SOL    HW133833   5.725   1.088   6.871 -3.9500  0.8763 -1.7983
11085SOL    HW233834   5.639   1.024   6.978 -0.3458  0.1555  0.8294
11086SOL     OW33835   3.746   8.628   5.569  0.6762 -0.8746  0.8597
11086SOL    HW133836   3.728   8.618   5.662  1.9543 -2.1345  1.0101
11086SOL    HW233837   3.795   8.549   5.545 -0.6175 -1.1481 -1.1435
11087SOL     OW33838   5.081   2.974   5.681  0.0137 -0.4421 -0.2237
11087SOL    HW133839   5.104   3.024   5.603 -1.0853 -1.0709 -0.9877
11087SOL    HW233840   5.145   2.903   5.684  2.2230  1.4987  1.4435
11088SOL     OW33841   9.182   8.358   4.367  0.1264 -0.4166 -0.6491
11088SOL    HW133842   9.101   8.372   4.417 -0.3847 -0.5281 -1.4206
11088SOL    HW233843   9.156   8.296   4.298  0.9062 -0.5535 -0.8194
11089SOL     OW33844   2.062   3.958   9.258  0.4952  0.1066  0.1314
11089SOL    HW133845   2.136   3.931   9.204  0.6725 -0.3109  0.5711
11089SOL    HW233846   2.022   3.876   9.287 -0.9130  0.3211 -1.1175
11090SOL     OW33847   5.483   0.881   4.251 -0.0260 -0.0887 -0.2835
11090SOL    HW133848   5.558   0.836   4.212  0.5538  1.3992 -0.9328
11090SOL    HW233849   5.522   0.940   4.315 -0.6609  0.4461 -0.3871
11091SOL     OW33850   8.679   5.557   0.495  0.2635 -0.0873 -0.4224
11091SOL    HW133851   8.660   5.517   0.410  1.4743 -1.2488 -0.1824
11091SOL    HW233852   8.764   5.520   0.520 -0.5473 -0.6049  1.7762
11092SOL     OW33853   5.565   4.904   4.313  0.6552 -0.0197  0.5564
11092SOL    HW133854   5.609   4.824   4.285  1.5589 -0.1504  2.2422
11092SOL    HW233855   5.523   4.881   4.396 -0.9033  0.6806 -0.0001
11093SOL     OW33856   7.500   9.876   4.056  0.2140  0.3532  0.1590
11093SOL    HW133857   7.488   9.794   4.104  2.6704 -0.3842 -0.3570
11093SOL    HW233858   7.560   9.853   3.984  0.8165  2.5527 -0.1056
11094SOL     OW33859   8.333   8.468   3.945 -0.3146 -0.0312  0.0839
11094SOL    HW133860   8.304   8.417   4.021  0.8154 -0.2663  0.3756
11094SOL    HW233861   8.378   8.405   3.890  1.9926  0.8001  0.9251
11095SOL     OW33862   9.300   8.383   1.548 -0.3085  0.6698 -0.0879
11095SOL    HW133863   9.299   8.290   1.526 -1.3428  0.6209  0.1254
11095SOL    HW233864   9.238   8.423   1.488 -3.1515  0.5334  2.5383
11096SOL     OW33865   5.043   3.320   4.792  0.8678 -0.1667  0.1890
11096SOL    HW133866   5.007   3.231   4.793  0.1245  0.1191 -0.3944
11096SOL    HW233867   5.048   3.344   4.885  0.0114 -0.4015  0.3056
11097SOL     OW33868   3.793   4.125   8.167  0.0895  0.8806 -0.0248
11097SOL    HW133869   3.848   4.204   8.165 -0.2400  1.0967 -0.7876
11097SOL    HW233870   3.783   4.100   8.076 -1.2748  0.9944  0.0676
11098SOL     OW33871   1.668   5.634   3.529 -0.4257  0.5517  0.1554
11098SOL    HW133872   1.661   5.650   3.435 -0.1697  5.3327  0.7098
11098SOL    HW233873   1.578   5.636   3.561 -0.3977  0.7654  0.2219
11099SOL     OW33874   1.834   1.122   2.625 -0.0283  0.1506  0.3309
11099SOL    HW133875   1.762   1.061   2.643 -0.3077 -0.0104 -1.2195
11099SOL    HW233876   1.796   1.209   2.639 -0.7819  0.0987 -1.2434
11100SOL     OW33877   1.805   7.667   0.967 -0.0466  0.4521  0.3415
11100SOL    HW133878   1.843   7.747   0.930 -0.6506  0.3694 -0.4942
11100SOL    HW233879   1.846   7.596   0.918 -0.4549  0.3102  0.2023
11101SOL     OW33880   0.745   6.807   2.836  0.4056  0.2615  0.6906
11101SOL    HW133881   0.745   6.802   2.932  0.8840 -0.2427  0.6708
11101SOL    HW233882   0.765   6.899   2.817 -0.6309  0.5882  1.0679
11102SOL     OW33883   7.437   1.042   7.884  0.4764 -0.2503 -0.5273
11102SOL    HW133884   7.531   1.031   7.871  0.7563  1.8578 -0.7379
11102SOL    HW233885   7.430   1.118   7.942 -1.0906  0.1042 -1.1349
11103SOL     OW33886   8.578   1.385   2.600  0.6673  0.9235  0.3188
11103SOL    HW133887   8.672   1.394   2.585  0.5287  2.1518  0.0566
11103SOL    HW233888   8.556   1.460   2.655 -0.0791  0.3576  0.8088
11104SOL     OW33889   3.478   9.201   6.030  0.3589 -0.2973 -0.3829
11104SOL    HW133890   3.492   9.194   6.124  0.6422 -1.2286 -0.4844
11104SOL    HW233891   3.544   9.264   6.001  0.7110 -0.5094 -0.0509
11105SOL     OW33892   5.212   9.051   3.825  0.4294 -0.2308 -0.5107
11105SOL    HW133893   5.141   9.108   3.798  1.0625  0.4696 -0.7243
11105SOL    HW233894   5.246   9.090   3.905 -0.6774 -1.6558  0.7130
11106SOL     OW33895   1.289   8.525   5.991 -0.1244  0.1132  0.4292
11106SOL    HW133896   1.316   8.477   6.069 -0.5730 -1.5650 -0.3957
11106SOL    HW233897   1.370   8.554   5.951  0.1587  0.0290  0.9304
11107SOL     OW33898   8.610   5.311   4.537 -0.0959  0.2761  0.1014
11107SOL    HW133899   8.680   5.331   4.600 -0.6275 -0.4842  0.9566
11107SOL    HW233900   8.537   5.367   4.564  0.2092  1.1870 -0.8861
11108SOL     OW33901   1.734   2.372   0.216 -0.4650  0.2430  0.0355
11108SOL    HW133902   1.821   2.337   0.195 -1.5993 -1.0213 -3.2122
11108SOL    HW233903   1.745   2.467   0.209  0.8292  0.1481  0.4989
11109SOL     OW33904   7.959   0.150   1.876  0.4586  0.2178 -0.4494
11109SOL    HW133905   7.984   0.187   1.961 -0.4214 -0.3431  0.0712
11109SOL    HW233906   7.988   0.215   1.812  0.5132  0.9796  0.3302
11110SOL     OW33907   5.731   7.425   8.544 -0.0563 -0.2311  0.0682
11110SOL    HW133908   5.649   7.475   8.552 -0.6454 -1.0579 -0.6393
11110SOL    HW233909   5.718   7.349   8.601  0.0830 -0.5258 -0.2882
11111SOL     OW33910   4.850   4.411   4.374  0.0609  0.2384 -0.1330
11111SOL    HW133911   4.847   4.485   4.435  0.5245  0.4555 -0.3675
11111SOL    HW233912   4.857   4.451   4.287  0.2104 -0.0795 -0.2715
11112SOL     OW33913   0.688   4.384   9.693  0.3792 -0.1978 -0.3564
11112SOL    HW133914   0.666   4.452   9.630 -2.1935 -0.8480 -0.2487
11112SOL    HW233915   0.658   4.419   9.777  0.6881 -0.7412 -0.0168
11113SOL     OW33916   4.793   4.167   7.194  0.9497 -0.0379 -0.1242
11113SOL    HW133917   4.887   4.163   7.209  0.5284 -0.8320  3.0919
11113SOL    HW233918   4.772   4.260   7.204  1.3237  0.1143 -0.6646
11114SOL     OW33919   9.724   8.302   8.297 -0.7568 -0.0779 -0.0744
11114SOL    HW133920   9.773   8.384   8.289 -0.1739 -0.4952 -0.9659
11114SOL    HW233921   9.718   8.286   8.391 -0.1599  0.5658  0.0784
11115SOL     OW33922   6.953   9.041   8.968 -0.3177 -0.1523  0.2485
11115SOL    HW133923   6.985   9.014   8.882 -2.4956  1.5492 -1.2368
11115SOL    HW233924   6.938   9.135   8.959 -1.0493 -0.0157  2.3609
11116SOL     OW33925   6.591   3.881   2.970  0.1777  0.0815 -0.3282
11116SOL    HW133926   6.529   3.923   2.910  1.0545  1.3054 -0.4203
11116SOL    HW233927   6.656   3.949   2.988 -0.0258 -0.2623  1.9656
11117SOL     OW33928   8.562   1.061   8.475  0.3406 -0.3205  0.0967
11117SOL    HW133929   8.590   0.978   8.437  0.4381  0.6905 -2.1892
11117SOL    HW233930   8.471   1.071   8.446 -0.1016 -0.2173  1.4620
11118SOL     OW33931   6.562   7.379  -0.005 -0.2029  0.0373  0.5453
11118SOL    HW133932   6.595   7.290  -0.020 -0.8292 -0.1566  0.2720
11118SOL    HW233933   6.608   7.409   0.073 -0.4763 -0.7876  1.0371
11119SOL     OW33934   2.672   3.700   2.605  0.3934  0.7124  0.1057
11119SOL    HW133935   2.753   3.649   2.615 -0.1485 -0.0053  0.9398
11119SOL    HW233936   2.627   3.690   2.689 -1.0834  0.2000 -0.7186
11120SOL     OW33937   1.124   8.582   9.937 -0.2577  0.0419  0.1173
11120SOL    HW133938   1.082   8.648   9.993 -0.1500  0.5110 -0.3513
11120SOL    HW233939   1.184   8.632   9.881  1.2500 -0.6399  1.0389
11121SOL     OW33940   0.433   0.478   4.360 -0.0681  0.0337 -0.0196
11121SOL    HW133941   0.391   0.457   4.444 -0.6266  2.3603  0.3634
11121SOL    HW233942   0.427   0.398   4.309  1.7465 -2.0111  2.6933
11122SOL     OW33943   5.326   7.468   3.342 -0.3440  0.4463  0.4761
11122SOL    HW133944   5.284   7.548   3.310  0.3072  1.0601  1.1143
11122SOL    HW233945   5.264   7.398   3.320 -1.6099  1.2943  1.1673
11123SOL     OW33946   0.109   7.803   6.473 -0.1128 -0.3167  0.3765
11123SOL    HW133947   0.043   7.803   6.403  0.3324 -0.9921 -0.0655
11123SOL    HW233948   0.069   7.851   6.545  0.3852  2.6937 -1.2207
11124SOL     OW33949   8.932   0.359   2.698  0.1113  0.1817 -0.4632
11124SOL    HW133950   8.845   0.397   2.713  0.5276  0.7991  0.4062
11124SOL    HW233951   8.960   0.395   2.613 -0.7830 -0.6140 -1.1270
11125SOL     OW33952   3.180   3.946   7.627 -0.2581 -0.0192 -0.4011
11125SOL    HW133953   3.161   3.923   7.536  0.3716  0.1756 -0.5876
11125SOL    HW233954   3.275   3.939   7.634 -0.4091 -1.4192  0.6277
11126SOL     OW33955   0.739   2.812   0.284 -0.3563  0.0055 -0.0546
11126SOL    HW133956   0.672   2.825   0.351  0.7100  1.0771  0.8482
11126SOL    HW233957   0.747   2.717   0.277  0.3816 -0.1717  2.2843
11127SOL     OW33958   0.733   6.635   2.223 -0.4436  0.0725  0.1169
11127SOL    HW133959   0.670   6.564   2.234 -0.5783  0.3492  1.2017
11127SOL    HW233960   0.812   6.603   2.266 -0.3089  0.3299  0.0621
11128SOL     OW33961   0.646   4.721   4.722 -0.7157  0.2603  0.3626
11128SOL    HW133962   0.681   4.749   4.637  0.9856 -1.4533  0.4423
11128SOL    HW233963   0.552   4.737   4.715 -0.4111  1.6035 -1.2514
11129SOL     OW33964   2.489   6.765   5.261  0.1739  0.1889 -0.0855
11129SOL    HW133965   2.550   6.832   5.293  0.8579  0.8783 -2.5745
11129SOL    HW233966   2.507   6.760   5.167 -2.9597 -0.2940 -0.7506
11130SOL     OW33967   5.874   9.566   3.585 -0.0135  0.6392  0.0753
11130SOL    HW133968   5.831   9.480   3.582 -1.9688  1.5889 -0.5682
11130SOL    HW233969   5.967   9.546   3.576 -0.4548 -1.3884 -0.5643
11131SOL     OW33970   4.698   6.528   9.056  0.4337 -0.0030 -0.1813
11131SOL    HW133971   4.755   6.578   8.998  1.8415 -0.3175  0.8647
11131SOL    HW233972   4.643   6.594   9.099 -3.2988  0.0534 -4.3358
11132SOL     OW33973   3.813   7.613   6.703  0.0952 -0.1833  0.7672
11132SOL    HW133974   3.745   7.622   6.636  1.1712 -0.6695 -0.4425
11132SOL    HW233975   3.786   7.673   6.772 -0.1546  1.7184 -0.8784
11133SOL     OW33976   4.044   9.880   1.104 -0.2484 -0.2560 -0.3853
11133SOL    HW133977   3.950   9.866   1.112 -0.2439 -0.0429  0.0851
11133SOL    HW233978   4.082   9.836   1.180  0.2923 -2.6867 -1.9568
11134SOL     OW33979   2.841   5.981   2.141  0.1067 -0.6870  0.2246
11134SOL    HW133980   2.749   6.000   2.160  0.3389 -0.5781  1.2738
11134SOL    HW233981   2.865   6.043   2.073 -0.4881 -0.4499  0.2282
11135SOL     OW33982   5.782   9.336   0.380  0.2583 -0.0266  0.0293
11135SOL    HW133983   5.820   9.378   0.303  0.4013  0.6946  0.4763
11135SOL    HW233984   5.858   9.310   0.433  0.1554 -0.0010  0.1914
11136SOL     OW33985   5.645   8.252   6.915  0.9217  0.1091 -0.2862
11136SOL    HW133986   5.586   8.277   6.987  1.5762 -3.4057  1.7195
11136SOL    HW233987   5.726   8.300   6.933  0.5155  0.6000  0.3060
11137SOL     OW33988   7.010   3.758   8.301  0.6972 -0.3385 -0.3869
11137SOL    HW133989   7.061   3.722   8.375  1.2840  2.2292  0.5719
11137SOL    HW233990   6.969   3.681   8.261  0.6075 -1.8957  2.4142
11138SOL     OW33991   9.344   1.095   3.651  0.2478 -0.2652 -0.3271
11138SOL    HW133992   9.373   1.079   3.561  0.3822 -1.6005 -0.0748
11138SOL    HW233993   9.302   1.012   3.677 -0.5873  0.4064  0.5394
11139SOL     OW33994   2.927   0.370   9.211 -0.1282 -0.2368  0.0378
11139SOL    HW133995   2.973   0.405   9.287  2.8731 -1.2131 -1.1658
11139SOL    HW233996   2.919   0.444   9.151 -0.7544  0.0865  0.5088
11140SOL     OW33997   0.975   6.024   0.994 -0.4923  0.3625  0.1652
11140SOL    HW133998   0.950   5.966   1.066  1.2839 -0.9417 -0.2116
11140SOL    HW233999   1.054   6.069   1.024 -0.9358  1.4254 -0.1814
11141SOL     OW34000   6.628   6.468   5.732 -0.3717  0.2415  0.3388
11141SOL    HW134001   6.616   6.396   5.793  1.3998  0.3089  0.8336
11141SOL    HW234002   6.594   6.545   5.778 -0.1060  0.0994  0.7773
11142SOL     OW34003   9.884   4.866   9.594 -0.1527  0.4137  0.4852
11142SOL    HW134004   9.923   4.828   9.515 -0.0157  2.0423 -0.2784
11142SOL    HW234005   9.803   4.907   9.564 -0.5858  0.2470  1.3835
11143SOL     OW34006   2.524   9.574   0.853  0.1223 -0.4581 -0.1439
11143SOL    HW134007   2.605   9.608   0.814 -0.4868  0.1750 -0.8836
11143SOL    HW234008   2.496   9.644   0.912  1.5166 -1.7564  2.2308
11144SOL     OW34009   1.705   0.595   3.093 -0.4269  0.1665 -0.4671
11144SOL    HW134010   1.794   0.569   3.068 -1.0320 -0.9865 -1.5109
11144SOL    HW234011   1.705   0.589   3.189  0.4380 -0.4448 -0.4918
11145SOL     OW34012   4.333   9.454   7.889 -0.3047 -0.1178  0.2891
11145SOL    HW134013   4.416   9.494   7.863 -0.4088 -0.8470 -1.2398
11145SOL    HW234014   4.282   9.527   7.924  0.8064  0.4157  0.8632
11146SOL     OW34015   5.434   3.502   8.444  0.0673  0.1973 -0.1218
11146SOL    HW134016   5.390   3.484   8.360 -1.0094 -0.7411  0.6065
11146SOL    HW234017   5.464   3.592   8.437 -2.8870  1.2711 -0.3178
11147SOL     OW34018   1.411   8.300   8.718  0.1934 -0.0981  0.0751
11147SOL    HW134019   1.498   8.328   8.690 -0.5082  0.1626 -2.1229
11147SOL    HW234020   1.391   8.354   8.794  1.1568  1.3445 -0.6407
11148SOL     OW34021   9.840   9.731   7.714 -0.4052  0.1248 -0.4608
11148SOL    HW134022   9.775   9.662   7.708 -0.7859  0.4621 -0.3064
11148SOL    HW234023   9.822   9.773   7.799 -1.5171  1.7124 -1.4334
11149SOL     OW34024   6.152   9.687   4.168  0.2754  0.2790  0.2266
11149SOL    HW134025   6.147   9.600   4.127 -1.0352 -0.3311  1.5876
11149SOL    HW234026   6.061   9.718   4.168  0.4398  0.8006  1.5293
11150SOL     OW34027   7.746   5.006   7.404 -0.4505  0.0561 -0.2380
11150SOL    HW134028   7.781   4.943   7.341 -1.8809 -1.3820  0.3384
11150SOL    HW234029   7.651   4.990   7.404 -0.6286  0.9135  1.3027
11151SOL     OW34030   7.390   8.860   4.382 -0.2588  0.1376  0.2706
11151SOL    HW134031   7.304   8.891   4.411 -0.5605  0.2619 -0.7333
11151SOL    HW234032   7.425   8.932   4.329 -1.0390 -1.2378 -2.2536
11152SOL     OW34033   2.087   7.755   5.598 -0.0571  0.5420  0.0585
11152SOL    HW134034   2.034   7.810   5.656  0.8115 -0.5092  1.9723
11152SOL    HW234035   2.122   7.815   5.533 -2.0992  1.5633 -0.1914
11153SOL     OW34036   9.100   1.647   7.407  0.0232  0.4435 -0.3007
11153SOL    HW134037   9.081   1.554   7.416 -0.7374  0.1641 -3.5183
11153SOL    HW234038   9.015   1.689   7.395  0.3664  1.5774  0.9251
11154SOL     OW34039   3.538   7.154   9.039  0.0577  0.2225  0.2494
11154SOL    HW134040   3.488   7.233   9.020  3.0290  2.1657 -0.2700
11154SOL    HW234041   3.554   7.115   8.953 -0.6980 -0.5074  0.4306
11155SOL     OW34042   3.030   1.802   3.749 -0.0445  0.4413 -0.1170
11155SOL    HW134043   3.066   1.715   3.736 -0.9379 -0.0739  0.6870
11155SOL    HW234044   2.938   1.794   3.725  0.0303  1.3715 -0.7927
11156SOL     OW34045   1.875   8.013   2.064  0.5372  0.2139  0.8073
11156SOL    HW134046   1.933   7.938   2.056 -0.3741 -0.7024  2.3489
11156SOL    HW234047   1.934   8.087   2.078  1.3841 -0.6535  2.0774
11157SOL     OW34048   6.204   6.224   9.824 -0.2668  0.1023  0.0014
11157SOL    HW134049   6.132   6.192   9.879 -0.1080 -1.9919 -0.9215
11157SOL    HW234050   6.271   6.156   9.831  1.5048  1.8161  0.5130
11158SOL     OW34051   2.085   2.164   7.230  0.0375  0.1011 -0.3262
11158SOL    HW134052   1.992   2.185   7.239  0.5506  1.9893  1.2850
11158SOL    HW234053   2.088   2.100   7.159 -2.4359  0.3132 -0.7223
11159SOL     OW34054   9.086   5.531   3.335  0.1596 -0.4785 -0.0946
11159SOL    HW134055   9.022   5.531   3.407  2.3261 -2.0408  1.9951
11159SOL    HW234056   9.087   5.441   3.304 -0.1482  0.0102 -1.5902
11160SOL     OW34057   1.929   0.895   7.938 -0.3353 -0.5018  0.6939
11160SOL    HW134058   1.860   0.829   7.952 -0.3099 -0.1244  3.1720
11160SOL    HW234059   1.967   0.872   7.854 -1.9256 -2.1821  0.3513
11161SOL     OW34060   0.630   4.208   6.627 -0.5139  0.0933 -0.0831
11161SOL    HW134061   0.711   4.193   6.675 -0.5377 -0.4050 -0.1957
11161SOL    HW234062   0.609   4.300   6.644  0.7646  0.5959 -1.1141
11162SOL     OW34063   0.837   6.415   2.400 -0.0392 -0.6656  0.4707
11162SOL    HW134064   0.834   6.346   2.466 -0.6423 -0.5107  0.6109
11162SOL    HW234065   0.748   6.419   2.365  0.4711 -1.3405 -0.9874
11163SOL     OW34066   3.946   1.304   5.228 -0.0985 -0.1020  0.0249
11163SOL    HW134067   3.945   1.358   5.149 -0.8559  1.3190  0.9695
11163SOL    HW234068   4.037   1.276   5.236 -0.3982 -2.2707 -2.6028
11164SOL     OW34069   3.991   0.090   9.919  0.2616 -0.5916  0.4251
11164SOL    HW134070   3.987   0.028   9.845  0.5466 -0.8724  0.6441
11164SOL    HW234071   3.901   0.094   9.951 -0.2324  0.8457 -1.0040
11165SOL     OW34072   1.185   1.952   9.165 -0.0315 -0.5219  0.3109
11165SOL    HW134073   1.215   2.014   9.231  0.2378  0.5832 -0.8257
11165SOL    HW234074   1.250   1.882   9.166  1.3436  0.7089 -0.5089
11166SOL     OW34075   3.735   7.463   1.711  0.2314  0.3997 -0.3594
11166SOL    HW134076   3.667   7.486   1.648 -0.3480  0.5633  0.3064
11166SOL    HW234077   3.714   7.515   1.789  0.4287 -0.4231  0.2602
11167SOL     OW34078   8.410   0.586   7.453  0.6328 -0.0840  0.0194
11167SOL    HW134079   8.493   0.627   7.474  1.0336 -0.5163 -0.7004
11167SOL    HW234080   8.433   0.507   7.404 -0.1366 -0.8673  0.8575
11168SOL     OW34081   3.187   1.231   2.004 -0.7243 -0.1643  0.3999
11168SOL    HW134082   3.123   1.285   2.051  1.3051  1.0423  1.9686
11168SOL    HW234083   3.196   1.153   2.058 -0.6726 -0.2035  0.3339
11169SOL     OW34084   2.565   6.192   5.053 -0.0870 -0.1790  0.0399
11169SOL    HW134085   2.650   6.174   5.013  0.0098 -0.3855  0.3365
11169SOL    HW234086   2.502   6.143   5.000 -0.0450  0.1294 -0.2962
11170SOL     OW34087   3.782   3.059   8.690 -0.1718  0.0984 -0.5459
11170SOL    HW134088   3.777   3.141   8.641 -0.5817 -0.0533 -0.7623
11170SOL    HW234089   3.796   3.086   8.781  1.6941  0.3607 -0.8742
11171SOL     OW34090   7.652   2.750   0.379 -0.5020  0.0199  0.1489
11171SOL    HW134091   7.653   2.702   0.461  1.5415 -0.4994 -0.1234
11171SOL    HW234092   7.745   2.768   0.360 -0.8466 -0.4740 -2.3747
11172SOL     OW34093   4.452   4.857   6.911 -0.0729  0.0888  0.2613
11172SOL    HW134094   4.392   4.794   6.951  0.9009 -1.1230 -0.1284
11172SOL    HW234095   4.503   4.892   6.984  0.6177 -0.9430  0.2923
11173SOL     OW34096   7.615   4.252   4.765  0.2682 -0.4779 -0.0611
11173SOL    HW134097   7.579   4.301   4.840  1.7467  0.5710  0.0018
11173SOL    HW234098   7.709   4.269   4.768  0.4700 -1.1761 -1.6333
11174SOL     OW34099   1.451   1.054   5.531 -0.1871 -0.3757  0.2219
11174SOL    HW134100   1.455   1.010   5.616  0.2599  0.2878  0.5471
11174SOL    HW234101   1.367   1.099   5.531  0.2349  0.4264  0.7184
11175SOL     OW34102   8.758   8.896   3.028  0.3869  0.3377 -0.0628
11175SOL    HW134103   8.757   8.957   2.955 -0.5134 -0.0039 -0.3446
11175SOL    HW234104   8.816   8.937   3.093 -1.4976  2.3425  0.4640
11176SOL     OW34105   9.319   2.731   2.396  0.0212  0.3887 -0.0964
11176SOL    HW134106   9.331   2.750   2.489 -0.9443 -0.7040  0.2825
11176SOL    HW234107   9.241   2.782   2.372  0.9181  1.5600 -0.6190
11177SOL     OW34108   3.649   4.149   5.658 -0.3360 -0.4801  0.1246
11177SOL    HW134109   3.611   4.081   5.603  0.6141 -1.9988  1.2673
11177SOL    HW234110   3.617   4.130   5.746  0.4876  0.1377  0.5713
11178SOL     OW34111   0.955   2.814   1.258  0.0994 -0.3475  0.0962
11178SOL    HW134112   0.888   2.776   1.315 -0.8694  2.5460  1.0602
11178SOL    HW234113   1.033   2.819   1.314  0.3466 -1.1405 -0.1526
11179SOL     OW34114   0.867   3.188   4.845  0.0059  0.7522 -0.1194
11179SOL    HW134115   0.825   3.163   4.764 -0.0367  1.7287 -0.4117
11179SOL    HW234116   0.893   3.279   4.832 -0.1399  0.9772  1.0110
11180SOL     OW34117   4.692   4.780   8.602 -0.0566  0.1366 -0.4731
11180SOL    HW134118   4.634   4.856   8.588  0.1567  0.1685 -1.2321
11180SOL    HW234119   4.714   4.784   8.695  0.9910  1.7721 -0.7563
11181SOL     OW34120   2.227   2.661   7.544 -0.0195 -0.0885  0.2389
11181SOL    HW134121   2.299   2.644   7.483  1.2839  2.5602  0.8765
11181SOL    HW234122   2.240   2.598   7.615  0.5340 -0.8734 -0.5369
11182SOL     OW34123   5.699   4.357   7.676  0.6479  0.5972 -0.4793
11182SOL    HW134124   5.757   4.283   7.657 -0.7689 -0.1499 -2.1679
11182SOL    HW234125   5.725   4.424   7.613 -0.5411  0.1001 -1.5419
11183SOL     OW34126   4.896   3.332   0.353  0.0017 -0.8097  0.4174
11183SOL    HW134127   4.954   3.406   0.336 -1.4857 -0.3027 -3.3544
11183SOL    HW234128   4.877   3.337   0.447  2.2753  1.7832  0.8380
11184SOL     OW34129   6.156   9.066   7.969  0.8835  0.1147 -0.4716
11184SOL    HW134130   6.223   9.022   7.916  0.0176 -0.3200 -1.2372
11184SOL    HW234131   6.155   9.156   7.936  2.4374  0.6869  0.8825
11185SOL     OW34132   6.364   6.758   6.034 -0.1939  0.0284  0.0944
11185SOL    HW134133   6.272   6.731   6.028 -0.6978  1.6075  0.3839
11185SOL    HW234134   6.378   6.776   6.128  0.0620  0.9171 -0.1035
11186SOL     OW34135   6.913   1.297   3.345  0.6486  0.1044 -0.6687
11186SOL    HW134136   6.849   1.321   3.412 -0.1250  1.1316 -1.7405
11186SOL    HW234137   6.873   1.223   3.299 -0.4081  1.4999 -2.1269
11187SOL     OW34138   0.505   7.550   5.145  0.2097 -0.1980 -0.0625
11187SOL    HW134139   0.535   7.637   5.117 -0.8643  0.7918  1.7024
11187SOL    HW234140   0.575   7.491   5.118  1.2408  1.2988 -0.7892
11188SOL     OW34141   1.298   1.646   7.458 -0.1381 -0.1603  0.5809
11188SOL    HW134142   1.273   1.630   7.367  0.7076 -0.5693  0.4106
11188SOL    HW234143   1.339   1.564   7.486 -0.7788 -0.1963  1.4746
11189SOL     OW34144   0.089   7.746   0.233 -0.3404 -0.1535 -0.4506
11189SOL    HW134145   0.118   7.836   0.218  1.0393 -0.8696 -2.6295
11189SOL    HW234146   0.013   7.735   0.177  0.6569 -0.8452 -1.7374
11190SOL     OW34147   3.529   8.214   7.847  0.0190 -0.1502  0.4353
11190SOL    HW134148   3.465   8.183   7.911  0.7907 -1.0390  0.8117
11190SOL    HW234149   3.520   8.309   7.847  0.5526 -0.0601  2.4593
11191SOL     OW34150   0.067   2.405   5.185  0.5161  0.4605 -0.2348
11191SOL    HW134151   0.030   2.400   5.274  1.7124 -1.1120  0.2057
11191SOL    HW234152   0.140   2.466   5.193  0.6284  0.3136 -0.1301
11192SOL     OW34153   4.081   7.122   0.748  0.1899 -0.6206 -0.3254
11192SOL    HW134154   4.161   7.115   0.696  0.9525  1.1045  0.5539
11192SOL    HW234155   4.030   7.191   0.705 -0.3732 -0.9997 -0.2825
11193SOL     OW34156   1.651   0.514   1.589  0.2807  0.0048 -0.1155
11193SOL    HW134157   1.620   0.423   1.589 -0.8150  0.3527 -0.6680
11193SOL    HW234158   1.571   0.566   1.582  1.0084  0.9359 -2.4728
11194SOL     OW34159   6.278   0.512   1.045  0.0765 -0.5061  0.3887
11194SOL    HW134160   6.294   0.429   1.001  0.6380 -1.5741  2.4768
11194SOL    HW234161   6.356   0.527   1.099 -0.5396  0.7463  0.9930
11195SOL     OW34162   2.938   5.548   1.802 -0.0415  0.5609 -0.6919
11195SOL    HW134163   2.942   5.600   1.883  1.2387  0.6030 -0.7619
11195SOL    HW234164   2.902   5.608   1.737 -1.2523  0.4738 -0.1331
11196SOL     OW34165   7.620   3.380   7.815 -1.1693 -0.6336  0.1512
11196SOL    HW134166   7.662   3.404   7.732 -0.6052  0.4552  0.7348
11196SOL    HW234167   7.532   3.416   7.808 -0.6020  0.9142  0.6674
11197SOL     OW34168   1.318   1.973   7.199  0.4171  0.1620  0.0223
11197SOL    HW134169   1.262   2.019   7.136 -0.1597  1.7700  1.5861
11197SOL    HW234170   1.269   1.893   7.220 -0.9874  1.1680  0.7868
11198SOL     OW34171   0.684   8.402   9.270  0.3762 -0.2139 -0.9151
11198SOL    HW134172   0.654   8.344   9.200 -1.1033 -1.4113  0.6430
11198SOL    HW234173   0.766   8.362   9.300 -0.1300 -0.9618 -0.5043
11199SOL     OW34174   1.153   9.520   3.592 -0.5429 -0.2637  0.0034
11199SOL    HW134175   1.113   9.458   3.653 -0.7801  1.9310  2.2266
11199SOL    HW234176   1.080   9.569   3.556 -0.2304  2.8845  3.1070
11200SOL     OW34177   5.998   7.875   3.117  0.1116  0.3202  0.0927
11200SOL    HW134178   6.001   7.787   3.156  1.0389  0.1921 -0.2473
11200SOL    HW234179   5.943   7.926   3.177 -0.2587 -0.4348  0.4051
11201SOL     OW34180   6.398   8.592   9.438  0.0097 -0.1146  0.2569
11201SOL    HW134181   6.319   8.572   9.488 -0.2402 -0.4709 -0.2802
11201SOL    HW234182   6.368   8.649   9.368  0.4298  0.7209  0.7408
11202SOL     OW34183   8.524   5.379   2.192 -0.1231  0.2805 -0.1051
11202SOL    HW134184   8.576   5.388   2.111  1.5794 -2.0128  0.6312
11202SOL    HW234185   8.462   5.309   2.173 -1.1346  1.1304 -0.0465
11203SOL     OW34186   2.386   0.501   3.231  0.2052 -0.5228  0.1433
11203SOL    HW134187   2.401   0.424   3.176  0.7801 -0.6677  0.4972
11203SOL    HW234188   2.309   0.543   3.193 -1.5422 -2.5044  1.2637
11204SOL     OW34189   0.419   4.728   1.883  0.1608  0.2905 -0.1350
11204SOL    HW134190   0.431   4.791   1.954  1.5186 -0.2921  0.1804
11204SOL    HW234191   0.506   4.689   1.871 -0.3596 -0.5721 -1.2138
11205SOL     OW34192   7.577   3.911   2.746 -0.2997 -0.5899 -0.3440
11205SOL    HW134193   7.560   3.884   2.836  1.2140 -0.5538 -0.0267
11205SOL    HW234194   7.492   3.905   2.703 -0.9014 -1.3359  0.8951
11206SOL     OW34195   6.545   6.367   8.070 -0.1561 -0.2888 -0.0524
11206SOL    HW134196   6.507   6.455   8.067 -2.1825 -1.1090 -2.4522
11206SOL    HW234197   6.577   6.353   7.981  0.2343 -1.9381  0.3257
11207SOL     OW34198   2.871   6.787   9.684 -0.6936 -0.2336 -0.2693
11207SOL    HW134199   2.932   6.791   9.610 -0.7797 -1.4260 -0.4300
11207SOL    HW234200   2.881   6.872   9.728  1.5773 -0.6142  0.0944
11208SOL     OW34201   5.514   8.591   7.630 -0.0056 -0.0065  0.3653
11208SOL    HW134202   5.557   8.505   7.634  0.9593  0.3386 -1.3206
11208SOL    HW234203   5.511   8.611   7.536  0.7125  2.2365  0.7729
11209SOL     OW34204   2.276   7.592   4.854 -0.0835  0.4003 -0.3698
11209SOL    HW134205   2.197   7.645   4.846  0.5675  1.3058 -0.9098
11209SOL    HW234206   2.256   7.512   4.805 -1.1966 -0.0251  0.7515
11210SOL     OW34207   8.729   1.393   3.579  0.5466 -0.7932  0.8044
11210SOL    HW134208   8.724   1.336   3.502  0.4476  2.1659 -1.5809
11210SOL    HW234209   8.637   1.405   3.605  0.6635 -3.5365  2.9633
11211SOL     OW34210   5.572   7.781   5.544  0.5989  0.0114  0.4725
11211SOL    HW134211   5.496   7.745   5.497 -0.4407 -1.2790  2.9443
11211SOL    HW234212   5.645   7.770   5.484 -1.0853  1.0679 -1.9114
11212SOL     OW34213   5.486   4.660   3.323  0.1573 -0.2872 -0.0168
11212SOL    HW134214   5.394   4.666   3.297 -0.6350 -1.3667  2.2471
11212SOL    HW234215   5.524   4.596   3.263 -0.6586 -0.1471 -0.7080
11213SOL     OW34216   7.996   1.026   3.269 -0.1738  0.3859  0.6745
11213SOL    HW134217   8.085   1.031   3.302  0.6187  1.2794 -1.4793
11213SOL    HW234218   7.975   1.115   3.239 -1.2576 -0.1110 -0.1382
11214SOL     OW34219   4.895   8.429   7.171  0.1929  0.2389 -0.5240
11214SOL    HW134220   4.959   8.358   7.181  1.2122  1.2027 -0.0648
11214SOL    HW234221   4.912   8.463   7.083  0.5186  0.6939 -0.2850
11215SOL     OW34222   3.324   6.869   0.982  0.5100 -0.1498  0.0038
11215SOL    HW134223   3.356   6.955   1.009 -0.6070  0.4194 -0.4535
11215SOL    HW234224   3.266   6.842   1.053  1.0310 -0.6373  0.2534
11216SOL     OW34225   6.514   4.740   2.958  0.3151 -0.0005 -0.3694
11216SOL    HW134226   6.442   4.690   2.996  0.6941  0.1399  0.5477
11216SOL    HW234227   6.471   4.816   2.918 -0.1540 -0.4964 -0.8235
11217SOL     OW34228   5.494   1.222   1.467 -0.2651 -0.2561  0.2302
11217SOL    HW134229   5.449   1.239   1.385 -0.8656 -1.0823  0.3749
11217SOL    HW234230   5.538   1.138   1.453 -1.5912 -1.1631  1.2291
11218SOL     OW34231   6.640   7.679   0.409 -0.3672 -0.2580  0.3319
11218SOL    HW134232   6.694   7.622   0.355 -1.2951 -1.3594  0.5324
11218SOL    HW234233   6.689   7.689   0.490  0.1349 -0.1754  0.0222
11219SOL     OW34234   8.130   4.899   3.917  0.3142 -0.3111  0.5817
11219SOL    HW134235   8.147   4.914   3.824 -0.4178 -0.2061  0.4587
11219SOL    HW234236   8.057   4.957   3.938  0.4238 -0.3902  1.2046
11220SOL     OW34237   2.985   4.014   6.712 -0.2116  0.1230  0.0569
11220SOL    HW134238   3.046   4.037   6.783 -0.6100 -1.3487  0.9012
11220SOL    HW234239   2.937   3.938   6.744 -1.7350  0.5645 -1.0470
11221SOL     OW34240   5.648   4.638   7.883  0.3193  0.3952 -0.2751
11221SOL    HW134241   5.737   4.654   7.852  0.6524 -0.6927  0.0734
11221SOL    HW234242   5.594   4.702   7.836  1.4212  1.7800  0.3048
11222SOL     OW34243   4.315   2.180   5.104 -0.3062  0.8124  0.4022
11222SOL    HW134244   4.293   2.093   5.071 -0.0103  0.4726  1.0582
11222SOL    HW234245   4.387   2.210   5.049  0.1857  0.2547  0.7311
11223SOL     OW34246   4.656   0.182   6.351 -0.2144 -0.1890 -0.0124
11223SOL    HW134247   4.665   0.087   6.339  1.1212 -0.1149  0.2865
11223SOL    HW234248   4.585   0.191   6.415 -1.2622 -0.9210 -1.0393
11224SOL     OW34249   9.035   8.957   6.823  0.3042  0.6712 -0.9206
11224SOL    HW134250   9.054   9.041   6.781 -0.2230  0.5352 -1.4396
11224SOL    HW234251   9.119   8.929   6.860  0.2016  2.0954  0.4864
11225SOL     OW34252   7.350   7.226   8.711  0.3932 -0.4517  0.0642
11225SOL    HW134253   7.418   7.288   8.735 -0.3974 -0.1624  1.6818
11225SOL    HW234254   7.398   7.150   8.677  1.4522  0.2573 -0.0569
11226SOL     OW34255   4.046   3.840   9.684  0.1845 -0.5073 -0.3743
11226SOL    HW134256   4.033   3.783   9.759  2.5185 -1.3118 -0.5074
11226SOL    HW234257   4.041   3.782   9.608  2.3018 -0.5583 -0.5297
11227SOL     OW34258   5.508   5.872   7.839  0.2282 -0.3350  0.1511
11227SOL    HW134259   5.444   5.889   7.908  0.7606 -1.1658  0.8638
11227SOL    HW234260   5.584   5.925   7.862  0.8600 -1.5210  0.8849
11228SOL     OW34261   9.851   2.550   7.552 -0.0983 -0.0446 -0.1902
11228SOL    HW134262   9.808   2.626   7.514 -0.0262 -0.6095 -1.4511
11228SOL    HW234263   9.779   2.496   7.585 -0.1736  0.3275  0.2709
11229SOL     OW34264   4.255   8.761   6.364 -0.0237 -0.2960 -0.0331
11229SOL    HW134265   4.272   8.668   6.382  0.8465 -0.2409 -0.4819
11229SOL    HW234266   4.215   8.762   6.277  2.2550 -0.1262 -1.1623
11230SOL     OW34267   8.833   7.356   7.411  0.2545 -0.1904  0.4261
11230SOL    HW134268   8.812   7.314   7.495  0.5645  1.5552  1.4211
11230SOL    HW234269   8.928   7.367   7.413  0.2475 -0.0245 -0.1052
11231SOL     OW34270   7.490   7.453   0.561 -0.1047  0.3091  0.0534
11231SOL    HW134271   7.397   7.460   0.581 -0.2288 -0.4737 -0.2550
11231SOL    HW234272   7.513   7.540   0.528 -0.7273  0.4955  0.0880
11232SOL     OW34273   7.812   8.899   4.502  0.3864 -0.4524 -0.0904
11232SOL    HW134274   7.819   8.948   4.420  0.8265 -0.4352 -0.0432
11232SOL    HW234275   7.860   8.818   4.485  0.7226 -0.3252  0.2451
11233SOL     OW34276   9.353   9.751   5.369  0.4262  0.2903  0.4812
11233SOL    HW134277   9.371   9.787   5.282 -0.5015  1.3908  0.7264
11233SOL    HW234278   9.430   9.773   5.421  0.2386  1.1644  0.3938
11234SOL     OW34279   1.437   8.125   2.021 -0.9603 -0.1541  0.2520
11234SOL    HW134280   1.431   8.148   2.114  0.1441  1.2303  0.0072
11234SOL    HW234281   1.512   8.067   2.015 -1.0056 -0.2091  0.2132
11235SOL     OW34282   2.377   5.714   4.178  0.4786  0.0481 -0.0138
11235SOL    HW134283   2.387   5.651   4.107 -1.1296 -0.3388  0.0584
11235SOL    HW234284   2.333   5.665   4.248  0.2324  0.9391  0.4776
11236SOL     OW34285   7.039   3.274   2.902  0.5470  0.2352  0.0449
11236SOL    HW134286   7.025   3.321   2.819  2.1945  1.5217  0.4345
11236SOL    HW234287   7.123   3.230   2.890  0.0133 -0.9181  0.4655
11237SOL     OW34288   6.086   6.696   5.091  0.1746  0.1635  0.2044
11237SOL    HW134289   6.013   6.636   5.074 -1.3354  1.6580  1.0645
11237SOL    HW234290   6.163   6.640   5.092 -0.6735 -1.2554 -2.5579
11238SOL     OW34291   7.266   6.122   8.364  0.2176  0.1008 -0.4440
11238SOL    HW134292   7.274   6.157   8.276 -0.1656  0.4693 -0.3358
11238SOL    HW234293   7.356   6.108   8.393  0.3527  0.2850 -0.7708
11239SOL     OW34294   8.429   7.148   8.200 -0.2520  0.7000  0.0895
11239SOL    HW134295   8.440   7.054   8.214  0.6334  0.4389 -1.9902
11239SOL    HW234296   8.342   7.157   8.163  0.1001  0.5224 -0.8183
11240SOL     OW34297   3.190   8.600   2.807 -0.2638 -0.1263  0.1464
11240SOL    HW134298   3.097   8.619   2.790 -0.1489 -0.0456 -0.3791
11240SOL    HW234299   3.233   8.686   2.803 -0.4539  0.1413  2.3375
11241SOL     OW34300   8.796   0.415   3.402 -0.0993 -0.2265  0.1998
11241SOL    HW134301   8.806   0.410   3.307 -0.7225 -1.4136  0.1822
11241SOL    HW234302   8.885   0.404   3.436  0.3512  1.6517 -0.2611
11242SOL     OW34303   2.924   1.637   8.968 -0.1733  0.0460 -0.6183
11242SOL    HW134304   2.902   1.706   8.905  0.1382 -0.8794 -1.7553
11242SOL    HW234305   2.858   1.570   8.955  0.9216 -0.9506 -1.2312
11243SOL     OW34306   7.374   5.331   6.397  0.2828  0.3379  0.6473
11243SOL    HW134307   7.457   5.355   6.439  1.7716  3.1258 -3.3043
11243SOL    HW234308   7.396   5.257   6.342 -0.1579  0.3382  0.4711
11244SOL     OW34309   2.876   1.803   6.615  0.2779  0.2620  0.8653
11244SOL    HW134310   2.923   1.756   6.684 -0.6934 -2.3815 -0.1362
11244SOL    HW234311   2.784   1.793   6.639  0.0106  0.9239  0.1422
11245SOL     OW34312   6.658   7.809   3.947  0.4612 -0.1877 -0.0359
11245SOL    HW134313   6.580   7.758   3.924  1.0538 -0.5829 -1.2639
11245SOL    HW234314   6.721   7.744   3.978  0.3083  0.1282  0.9449
11246SOL     OW34315   1.304   7.157   1.855 -0.5024  0.4353  0.3774
11246SOL    HW134316   1.377   7.120   1.806 -0.5626  1.5239 -0.5806
11246SOL    HW234317   1.344   7.206   1.926 -0.3832 -0.4598  0.9410
11247SOL     OW34318   4.115   8.108   8.497  0.3162 -0.0547  0.0177
11247SOL    HW134319   4.191   8.078   8.546  0.9635  0.6750 -0.5096
11247SOL    HW234320   4.081   8.181   8.549 -1.5736 -1.9109  1.5804
11248SOL     OW34321   1.556   0.191   0.692 -0.5009  0.0380 -0.0795
11248SOL    HW134322   1.506   0.172   0.772  0.7587  0.6182  0.8774
11248SOL    HW234323   1.559   0.286   0.688 -0.0447  0.0066 -0.4981
11249SOL     OW34324   0.050   1.620   4.278 -0.2110 -0.4923 -0.7270
11249SOL    HW134325   0.069   1.598   4.187 -0.6977 -0.1065 -0.9248
11249SOL    HW234326   0.130   1.662   4.310 -0.1221 -0.4222 -1.0426
11250SOL     OW34327   9.551   5.618   1.777 -0.4967 -0.3281  0.1544
11250SOL    HW134328   9.467   5.587   1.810 -0.5093 -2.2900 -1.5682
11250SOL    HW234329   9.609   5.615   1.853 -1.4437 -1.0624  0.8660
11251SOL     OW34330   2.424   9.759   4.876 -0.5348 -0.5896  0.0852
11251SOL    HW134331   2.385   9.824   4.818 -1.3308 -0.4719  0.7292
11251SOL    HW234332   2.468   9.697   4.817  0.7671  0.8487 -0.5033
11252SOL     OW34333   5.682   8.397   1.821 -0.0267  0.3448  0.6312
11252SOL    HW134334   5.675   8.484   1.859 -0.5765  1.1856 -1.2903
11252SOL    HW234335   5.764   8.399   1.771 -0.3876 -0.0081  0.0221
11253SOL     OW34336   7.588   9.587   8.795 -0.2798  0.1395  1.0259
11253SOL    HW134337   7.606   9.673   8.834  0.7201 -0.0527  1.0147
11253SOL    HW234338   7.625   9.593   8.707 -1.0589  0.0134  0.6848
11254SOL     OW34339   5.882   3.977   9.157  0.1949 -0.5495  0.4233
11254SOL    HW134340   5.870   3.936   9.072  0.5866  0.1751  0.0135
11254SOL    HW234341   5.976   3.993   9.164  0.4119 -2.0472  1.6816
11255SOL     OW34342   8.911   7.634   9.470  0.1867 -0.4566  0.1858
11255SOL    HW134343   8.871   7.590   9.545  1.0159 -0.8006  0.4479
11255SOL    HW234344   8.980   7.689   9.509  0.5193 -0.5215 -0.3044
11256SOL     OW34345   7.818   9.899   6.709 -0.2563  0.1438 -0.6954
11256SOL    HW134346   7.726   9.920   6.726 -0.2719  0.0353 -0.6426
11256SOL    HW234347   7.864   9.926   6.788  0.0063  1.7537 -1.3625
11257SOL     OW34348   4.607   4.074   7.723  0.2142 -0.2012  0.4080
11257SOL    HW134349   4.532   4.097   7.668  0.8941  0.6513 -0.2013
11257SOL    HW234350   4.573   4.072   7.812  0.0220  3.2715  0.5626
11258SOL     OW34351   8.698   5.277   2.636 -0.6538  0.7916 -0.1403
11258SOL    HW134352   8.725   5.269   2.544  1.4201  0.2438  0.4822
11258SOL    HW234353   8.614   5.324   2.631 -1.8585 -1.3287 -2.4435
11259SOL     OW34354   2.467   6.859   6.795  0.6275  0.4495  0.0871
11259SOL    HW134355   2.440   6.874   6.705  0.1142  3.3868  0.6186
11259SOL    HW234356   2.392   6.816   6.836  0.9189 -1.0349 -0.8596
11260SOL     OW34357   5.805   5.832   7.752  0.3105  0.0427  0.3785
11260SOL    HW134358   5.816   5.920   7.716  1.9104 -0.1987  0.2303
11260SOL    HW234359   5.787   5.777   7.675  0.5501  0.0396  0.3251
11261SOL     OW34360   5.388   2.470   9.756 -0.1857  0.0686 -0.9175
11261SOL    HW134361   5.435   2.444   9.677  1.4886 -1.5963  0.5569
11261SOL    HW234362   5.454   2.472   9.825 -1.6917  0.9343  0.5934
11262SOL     OW34363   6.185   2.508   0.209  0.0250  0.1503  0.0739
11262SOL    HW134364   6.155   2.579   0.267 -0.2008 -0.2420  0.4446
11262SOL    HW234365   6.248   2.460   0.262  0.8774  0.6151 -0.4966
11263SOL     OW34366   8.459   2.767   7.632  0.7326  0.0060 -0.5204
11263SOL    HW134367   8.490   2.753   7.722 -1.3342  0.4147  0.3323
11263SOL    HW234368   8.501   2.698   7.581  3.4603  0.9146  0.3421
11264SOL     OW34369   9.461   0.842   7.949  0.3311  0.2292 -0.6166
11264SOL    HW134370   9.546   0.884   7.933  0.4357  0.0658 -0.4964
11264SOL    HW234371   9.483   0.751   7.969  0.4104  0.7893  2.4094
11265SOL     OW34372   8.501   6.813   1.981  0.1153 -0.4193 -0.1305
11265SOL    HW134373   8.514   6.828   2.075  2.7910  1.6964 -0.7221
11265SOL    HW234374   8.428   6.870   1.957 -1.1415 -1.5918  0.7473
11266SOL     OW34375   8.713   6.318   3.653 -0.2694 -0.2248 -0.0600
11266SOL    HW134376   8.790   6.274   3.617  0.7883  1.9292 -0.5998
11266SOL    HW234377   8.749   6.376   3.719 -1.4236  0.8652 -0.3748
11267SOL     OW34378   9.690   1.369   6.218 -0.0676  1.0361 -0.0184
11267SOL    HW134379   9.727   1.358   6.306 -1.2694 -1.8007  0.2534
11267SOL    HW234380   9.766   1.376   6.161  0.8450 -0.1126  0.9846
11268SOL     OW34381   2.848   1.200   4.378 -0.3755 -0.5463  0.9481
11268SOL    HW134382   2.781   1.133   4.389 -0.8112 -0.6511 -1.7416
11268SOL    HW234383   2.865   1.202   4.284 -0.1492  2.8972  0.9337
11269SOL     OW34384   2.141   6.508   6.605 -0.0611  0.4781  0.1369
11269SOL    HW134385   2.047   6.490   6.602 -0.0960  0.7012 -0.2296
11269SOL    HW234386   2.158   6.554   6.523  0.4927 -0.1557 -0.1137
11270SOL     OW34387   8.818   0.163   2.314 -0.6143  0.3055  0.0780
11270SOL    HW134388   8.844   0.252   2.340  1.0494  0.3011 -1.3625
11270SOL    HW234389   8.723   0.164   2.316 -0.6334  1.3586  2.4936
11271SOL     OW34390   6.892   4.991   5.864  0.0048  0.6395  0.9439
11271SOL    HW134391   6.895   4.990   5.768 -0.5223  0.2650  0.9243
11271SOL    HW234392   6.973   4.949   5.891  0.5418  1.4844  0.6753
11272SOL     OW34393   6.078   8.092   8.577 -0.0168  0.2492  0.4714
11272SOL    HW134394   6.023   8.014   8.577 -0.2436  0.3682  1.8522
11272SOL    HW234395   6.154   8.068   8.631  0.0924  0.8501  0.6004
11273SOL     OW34396   9.036   5.972   5.999  0.5092  0.6842  0.0222
11273SOL    HW134397   9.038   6.052   6.053 -1.2023  1.2175 -0.6494
11273SOL    HW234398   9.057   5.902   6.060  0.0768  1.4420  1.0717
11274SOL     OW34399   4.287   0.671   5.084 -0.5545  0.5480  0.0780
11274SOL    HW134400   4.382   0.660   5.094 -0.7685  0.3579  2.4132
11274SOL    HW234401   4.277   0.720   5.003  1.5033  0.0057 -0.5607
11275SOL     OW34402   8.967   5.439   1.473 -0.7785 -0.3988 -0.0525
11275SOL    HW134403   8.917   5.507   1.517  0.3034  0.6421 -0.3901
11275SOL    HW234404   8.918   5.422   1.392  0.0903  1.5819 -1.0426
11276SOL     OW34405   2.556   1.874   1.410 -0.3209  0.3238 -0.6153
11276SOL    HW134406   2.593   1.811   1.347  3.7686  2.1878 -0.3517
11276SOL    HW234407   2.520   1.819   1.479  2.6636 -1.8927 -0.6051
11277SOL     OW34408   5.123   9.261   9.476  0.2336  0.0676  0.8079
11277SOL    HW134409   5.104   9.341   9.525 -1.2942 -0.6599  1.4557
11277SOL    HW234410   5.108   9.285   9.384 -1.9901  0.0950  1.1293
11278SOL     OW34411   3.641   8.193   2.868  0.3116 -0.2241  0.7444
11278SOL    HW134412   3.658   8.130   2.798  0.3282  2.9062 -2.2803
11278SOL    HW234413   3.728   8.219   2.899  0.3173 -2.5600  3.0807
11279SOL     OW34414   8.495   6.097   8.863 -0.3674  0.2148  0.0823
11279SOL    HW134415   8.480   6.049   8.781 -0.9759 -1.5115  1.1534
11279SOL    HW234416   8.582   6.071   8.891 -1.1316 -1.1895  1.2363
11280SOL     OW34417   7.113   5.611   1.622  0.7521 -0.1205 -0.4395
11280SOL    HW134418   7.054   5.605   1.546  1.2041 -0.6752 -0.7552
11280SOL    HW234419   7.104   5.526   1.666  1.8634 -0.4916 -0.9057
11281SOL     OW34420   0.175   1.367   6.843 -0.2224 -0.3792 -0.0146
11281SOL    HW134421   0.146   1.398   6.757 -0.0659 -0.9560 -0.2819
11281SOL    HW234422   0.100   1.381   6.900 -0.6446 -0.8275 -0.4503
11282SOL     OW34423   0.197   8.926   7.460  0.6669  0.1578 -0.0452
11282SOL    HW134424   0.182   8.839   7.423  0.7375 -0.1924  0.7478
11282SOL    HW234425   0.245   8.973   7.391  0.5964 -0.4154 -0.4907
11283SOL     OW34426   2.595   9.154   4.454  0.5504  0.1343 -0.0165
11283SOL    HW134427   2.582   9.102   4.534  1.0402  0.3582  0.2142
11283SOL    HW234428   2.600   9.089   4.384 -0.4071 -0.0395  0.0556
11284SOL     OW34429   8.222   3.669   9.155 -0.3446  0.1922  1.0411
11284SOL    HW134430   8.266   3.595   9.196 -0.4187 -0.2042  0.4276
11284SOL    HW234431   8.246   3.745   9.209 -1.3026 -0.4574  2.4224
11285SOL     OW34432   9.044   6.986   5.588  0.2277  0.1733  0.1037
11285SOL    HW134433   9.132   6.966   5.557  0.5261  1.7544 -0.1806
11285SOL    HW234434   9.056   7.024   5.675  0.0843  2.4204 -0.7896
11286SOL     OW34435   5.264   9.356   8.169 -0.2124 -0.0659 -0.1845
11286SOL    HW134436   5.241   9.321   8.255 -1.4367 -0.2682 -0.5804
11286SOL    HW234437   5.255   9.451   8.178  0.0992 -0.0578  0.0358
11287SOL     OW34438   4.879   2.559   5.973  0.0923  0.1084  0.2526
11287SOL    HW134439   4.792   2.599   5.978 -0.0637 -0.3085  1.2159
11287SOL    HW234440   4.929   2.602   6.043  0.5010 -0.0372  0.0541
11288SOL     OW34441   2.381   3.364   5.684 -0.4479  0.0293  0.4840
11288SOL    HW134442   2.287   3.363   5.700 -0.6436 -0.5411 -0.6129
11288SOL    HW234443   2.416   3.293   5.737 -0.9186 -1.0393 -0.5949
11289SOL     OW34444   6.378   2.639   5.637  0.0818 -0.4465  0.1208
11289SOL    HW134445   6.357   2.618   5.728 -0.3618 -2.2714 -0.3549
11289SOL    HW234446   6.356   2.731   5.628  0.8085 -0.0400  2.0474
11290SOL     OW34447   0.198   5.755   3.418  0.3820  0.3681  0.1519
11290SOL    HW134448   0.170   5.666   3.440  0.2820  0.4271  0.2587
11290SOL    HW234449   0.130   5.788   3.360  1.1431 -0.1534 -1.0809
11291SOL     OW34450   4.184   2.470   6.977  0.5108  0.3382  0.1736
11291SOL    HW134451   4.162   2.549   7.027 -1.8045 -1.1139  1.6148
11291SOL    HW234452   4.276   2.482   6.954  1.1818  1.9939  3.1548
11292SOL     OW34453   1.908   0.908   1.313  0.3779 -0.3210 -0.0724
11292SOL    HW134454   1.919   0.991   1.360 -0.3174 -0.6615  0.7170
11292SOL    HW234455   1.985   0.856   1.338  0.4973 -0.1421 -0.0667
11293SOL     OW34456   5.433   5.087   3.935  0.3664 -0.5982 -0.2552
11293SOL    HW134457   5.359   5.121   3.985  0.0838  0.2260 -1.1825
11293SOL    HW234458   5.403   5.002   3.903  0.9212 -1.6081  1.7385
11294SOL     OW34459   4.071   5.103   0.443 -0.4021 -0.2494  0.3682
11294SOL    HW134460   4.040   5.192   0.425  2.0975  0.8378  0.8577
11294SOL    HW234461   4.163   5.104   0.414 -0.0541 -2.3882  1.2288
11295SOL     OW34462   8.901   7.485   0.148 -0.7188 -0.5875  0.1498
11295SOL    HW134463   8.859   7.418   0.202 -2.4494  0.8148  0.6558
11295SOL    HW234464   8.839   7.501   0.077  1.2693 -1.9946 -2.0643
11296SOL     OW34465   5.450   0.542   7.057  0.7246 -0.0148  0.5892
11296SOL    HW134466   5.500   0.550   6.976 -0.2169  2.4302  0.1802
11296SOL    HW234467   5.516   0.533   7.125  1.6604  0.8865 -0.1645
11297SOL     OW34468   8.423   6.767   1.365  0.3071 -0.1132 -0.4497
11297SOL    HW134469   8.502   6.821   1.363 -0.4975  1.0782 -0.6481
11297SOL    HW234470   8.419   6.728   1.277  1.4806 -1.4109  0.0350
11298SOL     OW34471   9.160   2.433   7.832  0.2456  0.3337  0.7991
11298SOL    HW134472   9.197   2.506   7.782  0.4021 -0.7161 -0.6674
11298SOL    HW234473   9.082   2.406   7.784 -0.8599  0.6627  2.3143
11299SOL     OW34474   1.778   9.291   6.603 -0.3450 -0.6176 -0.1955
11299SOL    HW134475   1.810   9.380   6.619  0.7626 -0.9387 -0.5682
11299SOL    HW234476   1.785   9.280   6.508  1.3135 -1.7476  0.0284
11300SOL     OW34477   7.563   2.252   6.086  0.4920 -0.5003 -0.6771
11300SOL    HW134478   7.500   2.204   6.140 -0.4689  0.0191 -1.2911
11300SOL    HW234479   7.521   2.256   5.999  0.8787  0.7935 -0.8280
11301SOL     OW34480   6.985   1.367   8.225 -0.0196  0.1831 -0.0165
11301SOL    HW134481   6.925   1.419   8.279 -0.1718  1.1576 -1.0996
11301SOL    HW234482   7.047   1.430   8.191 -0.8598 -0.1194 -2.2598
11302SOL     OW34483   1.372   6.237   9.107 -0.0580  0.7500 -0.3057
11302SOL    HW134484   1.465   6.219   9.088 -0.2550  1.5877 -2.3447
11302SOL    HW234485   1.324   6.186   9.041 -0.8965  2.5381 -1.1381
11303SOL     OW34486   7.269   0.328   4.106  0.1033 -0.2802  0.2954
11303SOL    HW134487   7.274   0.233   4.101 -0.6874 -0.4093  1.3782
11303SOL    HW234488   7.359   0.358   4.096  0.2774 -1.0964 -0.6713
11304SOL     OW34489   7.453   2.379   7.197 -0.1821 -0.4470  0.2191
11304SOL    HW134490   7.467   2.403   7.106  1.1059  0.0957  0.5304
11304SOL    HW234491   7.541   2.378   7.235 -0.7714  0.3485  1.6971
11305SOL     OW34492   3.747   5.250   9.521  0.2589  0.1642  0.1740
11305SOL    HW134493   3.785   5.334   9.495  1.6968  0.0313  1.6747
11305SOL    HW234494   3.656   5.255   9.491  0.3507  2.1658  0.0620
11306SOL     OW34495   2.086   0.073   8.002 -0.3734 -0.3010 -0.2978
11306SOL    HW134496   2.136   0.148   8.035  0.4880 -1.1112  0.2892
11306SOL    HW234497   2.147  -0.001   8.006 -0.5957 -0.6938 -2.6129
11307SOL     OW34498   4.344   9.615   5.247 -0.1468  0.0194  0.3735
11307SOL    HW134499   4.313   9.628   5.337 -0.5919 -2.2150  0.6098
11307SOL    HW234500   4.266   9.625   5.193 -0.2705 -0.5021  0.4474
11308SOL     OW34501   1.072   9.231   1.247  0.1095  0.2052 -0.1984
11308SOL    HW134502   1.149   9.178   1.225 -0.1050 -1.2190  2.1355
11308SOL    HW234503   0.998   9.178   1.218 -0.0491  0.3674 -0.0906
11309SOL     OW34504   3.576   0.682   2.002  0.0972  0.6887 -0.2909
11309SOL    HW134505   3.506   0.713   2.059 -0.6888 -0.2623 -0.7310
11309SOL    HW234506   3.545   0.699   1.914  1.1337  1.7618 -0.4770
11310SOL     OW34507   3.339   1.198   0.980 -0.1086  0.5705  0.3860
11310SOL    HW134508   3.290   1.175   1.059  0.3828 -1.6079  0.1422
11310SOL    HW234509   3.422   1.233   1.013 -0.2072  0.3922  0.8417
11311SOL     OW34510   9.930   3.526   7.874 -0.3890 -0.2176 -0.5035
11311SOL    HW134511   9.885   3.577   7.942  0.4297 -0.1460 -0.0027
11311SOL    HW234512  10.017   3.566   7.868  0.0213 -1.1158 -0.6157
11312SOL     OW34513   3.195   5.680   3.431 -0.0625  0.1722 -0.3983
11312SOL    HW134514   3.118   5.737   3.434  0.4441  0.8360  0.7266
11312SOL    HW234515   3.217   5.665   3.523  2.0445  1.2853 -0.6557
11313SOL     OW34516   8.230   8.115   4.763  0.7315  0.3284  0.0195
11313SOL    HW134517   8.311   8.143   4.806  0.8685  2.5073 -1.5168
11313SOL    HW234518   8.170   8.095   4.835  1.8398  1.0784  1.1917
11314SOL     OW34519   7.872   0.248   2.945  0.2033 -0.1032  0.3028
11314SOL    HW134520   7.811   0.272   3.014 -1.8585 -0.7656 -1.2037
11314SOL    HW234521   7.890   0.155   2.960  0.5790  0.0099  0.5536
11315SOL     OW34522   1.242   6.629   0.590 -0.4160 -0.1119 -0.4850
11315SOL    HW134523   1.223   6.662   0.678  2.6967 -0.5081  0.4640
11315SOL    HW234524   1.251   6.535   0.601 -2.3367 -0.4887 -1.7723
11316SOL     OW34525   7.214   7.234   3.034 -0.0138 -0.0866 -0.0330
11316SOL    HW134526   7.136   7.266   2.990 -1.0326 -3.6630 -1.2011
11316SOL    HW234527   7.186   7.219   3.125 -0.5097 -0.6862 -0.2777
11317SOL     OW34528   8.879   2.840   4.043  0.5585  0.0032  0.1757
11317SOL    HW134529   8.856   2.922   4.086  1.4445  0.9318 -1.0602
11317SOL    HW234530   8.937   2.796   4.105  0.0027  0.2614  0.8863
11318SOL     OW34531   4.332   3.159   6.351 -0.1418  0.3010 -0.3215
11318SOL    HW134532   4.346   3.224   6.420 -0.7052  1.3333 -1.1616
11318SOL    HW234533   4.335   3.075   6.397  0.7569  0.8921  0.7555
11319SOL     OW34534   9.549   1.171   0.698  0.0904  0.3894 -0.3231
11319SOL    HW134535   9.506   1.091   0.668 -0.1282  0.4426 -0.1476
11319SOL    HW234536   9.478   1.235   0.706  0.2862  0.6495 -0.6203
11320SOL     OW34537   2.643   3.971   7.374  0.4084  0.1576  0.1359
11320SOL    HW134538   2.681   4.028   7.441  1.1823  0.0310 -0.1879
11320SOL    HW234539   2.618   4.031   7.303  0.6275  0.1689  0.0672
11321SOL     OW34540   0.377   2.100   6.686 -0.1192 -0.3812  0.3496
11321SOL    HW134541   0.450   2.137   6.736 -0.9340  0.8313  0.6708
11321SOL    HW234542   0.400   2.118   6.594  0.8054 -1.5663  0.3171
11322SOL     OW34543   7.769   9.168   3.006  0.1770  0.3508 -0.1101
11322SOL    HW134544   7.719   9.088   3.022  0.1295  0.2349 -0.8115
11322SOL    HW234545   7.817   9.183   3.088 -0.7657  0.2995  0.4726
11323SOL     OW34546   5.093   1.093   2.742 -1.3377 -0.4964 -0.0031
11323SOL    HW134547   5.175   1.042   2.742  0.4163  2.1022  1.0073
11323SOL    HW234548   5.077   1.111   2.835 -2.2347  0.2550 -0.2958
11324SOL     OW34549   2.808   7.915   6.697  0.1985  0.7291  0.0662
11324SOL    HW134550   2.863   7.992   6.684 -0.4870  1.4918  1.4246
11324SOL    HW234551   2.861   7.858   6.753 -0.0335  1.0821  0.6570
11325SOL     OW34552   9.195   3.407   4.030 -0.2654 -0.3301 -0.3241
11325SOL    HW134553   9.159   3.456   3.956 -0.9702  0.6526  0.6263
11325SOL    HW234554   9.268   3.461   4.061 -1.8814  0.9222  1.5750
11326SOL     OW34555   6.616   3.550   7.003 -0.8221  0.3420 -0.0380
11326SOL    HW134556   6.522   3.569   7.008 -1.2872 -1.7033  0.0869
11326SOL    HW234557   6.641   3.530   7.094 -0.3280  0.6020 -0.1150
11327SOL     OW34558   3.621   1.558   6.615 -0.3981 -0.5074  0.1748
11327SOL    HW134559   3.653   1.619   6.548  2.2957  0.2875  2.0181
11327SOL    HW234560   3.622   1.609   6.696 -3.3807 -1.4872  0.9627
11328SOL     OW34561   3.326   3.345   3.051 -0.4537  0.3634 -0.0421
11328SOL    HW134562   3.311   3.422   3.105 -0.8418  1.5180 -1.7161
11328SOL    HW234563   3.242   3.331   3.006 -0.0070 -0.2615 -0.7031
11329SOL     OW34564   6.618   6.505   6.251 -0.2279  0.1444 -0.3114
11329SOL    HW134565   6.705   6.502   6.290  0.4470 -0.0260 -1.7701
11329SOL    HW234566   6.577   6.422   6.278  0.1632  0.0948  0.1412
11330SOL     OW34567   1.577   6.045   0.694 -0.4392 -0.6481 -0.0023
11330SOL    HW134568   1.584   6.135   0.725 -0.5770 -0.1375 -1.3736
11330SOL    HW234569   1.667   6.012   0.695  0.1591  0.6379 -2.5819
11331SOL     OW34570   3.748   8.731   0.766  0.6082 -0.9892  0.4865
11331SOL    HW134571   3.834   8.694   0.745  0.2370 -1.2686 -0.5933
11331SOL    HW234572   3.708   8.749   0.681  0.1702  0.5071  0.9653
11332SOL     OW34573   2.904   3.093   6.675  0.2397 -0.2083 -0.3817
11332SOL    HW134574   2.920   3.009   6.633  3.3444  0.2957 -0.3951
11332SOL    HW234575   2.943   3.085   6.761  1.0890  1.3842 -0.5903
11333SOL     OW34576   9.067   6.426   9.651 -0.0495 -0.6311  0.0773
11333SOL    HW134577   9.127   6.454   9.582 -2.3054 -0.0477 -1.7789
11333SOL    HW234578   9.064   6.499   9.712  0.4112 -0.2877 -0.3042
11334SOL     OW34579   4.319   6.248   7.917 -0.7354  0.0347 -0.2256
11334SOL    HW134580   4.303   6.238   7.823 -0.8428  1.2366 -0.3515
11334SOL    HW234581   4.387   6.184   7.936  2.0233  2.2233 -1.9118
11335SOL     OW34582   0.001   7.729   2.510  0.3498 -0.0557  0.0366
11335SOL    HW134583   0.025   7.704   2.599 -0.3345 -2.2197 -0.3205
11335SOL    HW234584   0.078   7.707   2.457  0.4634  0.4820 -0.0313
11336SOL     OW34585   5.671   2.329   6.607 -0.9272 -0.0343  0.3883
11336SOL    HW134586   5.647   2.243   6.574  0.3387 -0.0291 -0.6103
11336SOL    HW234587   5.765   2.324   6.623 -0.6289  1.4633 -0.6796
11337SOL     OW34588   9.473   5.655   5.470 -0.4380 -0.3325  0.6609
11337SOL    HW134589   9.499   5.734   5.516 -0.5024  0.2141 -0.2276
11337SOL    HW234590   9.474   5.587   5.537  1.6786 -0.0216  1.0210
11338SOL     OW34591   7.009   6.535   8.693  0.4368 -0.2924 -0.4450
11338SOL    HW134592   6.974   6.521   8.605 -2.6313  2.7051  0.0821
11338SOL    HW234593   7.063   6.614   8.685 -1.2118  1.0037  0.5506
11339SOL     OW34594   3.358   1.884   7.732 -0.1107 -0.5448  0.3891
11339SOL    HW134595   3.358   1.798   7.774  0.3633 -1.3960 -1.2463
11339SOL    HW234596   3.267   1.913   7.735  0.2612  0.7323  4.3670
11340SOL     OW34597   0.314   6.158   0.629  0.2404 -0.3535 -0.1914
11340SOL    HW134598   0.274   6.165   0.715  1.0633 -2.1431  0.3874
11340SOL    HW234599   0.290   6.070   0.598  1.0467 -0.2437 -1.1893
11341SOL     OW34600   9.410   3.250   4.382 -0.0728 -0.0667 -0.1092
11341SOL    HW134601   9.348   3.236   4.311  0.0681  0.9306 -0.4396
11341SOL    HW234602   9.355   3.273   4.458 -0.0762  2.2692 -0.7577
11342SOL     OW34603   2.138   5.430   4.046 -0.1278  0.1290  0.1542
11342SOL    HW134604   2.135   5.510   3.995 -1.3267  0.0134  0.0124
11342SOL    HW234605   2.100   5.454   4.130  1.2235  0.1513  0.7916
11343SOL     OW34606   2.584   3.730   4.274 -0.3298 -0.7432 -0.1821
11343SOL    HW134607   2.647   3.745   4.345 -0.7303 -0.0771  0.0399
11343SOL    HW234608   2.632   3.677   4.210  1.1213  1.3597 -0.9220
11344SOL     OW34609   4.080   6.470   0.449 -0.3943 -0.2227 -0.0736
11344SOL    HW134610   4.053   6.382   0.425  1.2195 -0.0761 -2.7341
11344SOL    HW234611   4.005   6.525   0.428 -0.9729 -0.7718  0.4945
11345SOL     OW34612   5.503   6.713   6.500  0.5356 -0.1877 -0.2578
11345SOL    HW134613   5.558   6.691   6.425  0.6141 -0.1450 -0.2127
11345SOL    HW234614   5.543   6.791   6.538 -0.0713  0.3774 -0.7548
11346SOL     OW34615   5.914   3.241   5.997  0.3864  0.3099 -0.5198
11346SOL    HW134616   5.864   3.265   6.075  0.6966 -0.2791 -0.1310
11346SOL    HW234617   6.000   3.216   6.031 -0.1979 -2.2785 -0.7568
11347SOL     OW34618   0.592   3.892   2.820  0.3057 -0.1629  0.2084
11347SOL    HW134619   0.651   3.954   2.775  0.1621  0.0302  0.2851
11347SOL    HW234620   0.621   3.894   2.911  0.4931 -0.4348  0.1580
11348SOL     OW34621   3.993   5.454   7.825  0.1145  0.4092  0.5313
11348SOL    HW134622   4.017   5.372   7.783  0.0159  2.0631 -3.1424
11348SOL    HW234623   3.899   5.446   7.843  0.1158 -0.2910  0.2311
11349SOL     OW34624   8.855   6.000   5.669  0.8212 -0.0862  0.3915
11349SOL    HW134625   8.810   6.035   5.746 -2.8832 -0.5551 -1.3176
11349SOL    HW234626   8.859   6.074   5.608 -2.2167 -1.0647 -1.2290
11350SOL     OW34627   6.337   3.917   8.830  0.2321 -0.7120  0.3745
11350SOL    HW134628   6.432   3.914   8.837  0.2420 -0.5694  0.3013
11350SOL    HW234629   6.313   4.005   8.858  0.0858 -0.8800  0.8008
11351SOL     OW34630   1.947   6.926   6.696  0.2835 -0.6937 -0.8380
11351SOL    HW134631   1.969   6.933   6.602  1.7115 -1.1438 -0.5645
11351SOL    HW234632   1.984   7.006   6.734 -0.7647 -0.2486 -0.7192
11352SOL     OW34633   2.751   9.058   1.225  0.2052 -0.4746  0.3769
11352SOL    HW134634   2.784   9.020   1.306 -1.1027 -0.8764  0.7435
11352SOL    HW234635   2.693   9.129   1.253  1.0480  0.4867 -0.2567
11353SOL     OW34636   4.798   0.495   0.298 -0.0054  0.1127  0.3565
11353SOL    HW134637   4.705   0.516   0.291 -0.0419 -0.1132  0.1358
11353SOL    HW234638   4.838   0.540   0.223  0.1000  0.4176  0.5966
11354SOL     OW34639   1.474   3.355   8.036 -0.1704 -0.3538  0.8725
11354SOL    HW134640   1.484   3.334   8.129 -1.1334 -0.8747  0.8663
11354SOL    HW234641   1.533   3.296   7.991 -0.4883 -0.8402  1.0861
11355SOL     OW34642   0.356   8.183   7.153  0.0194  0.4519 -0.3268
11355SOL    HW134643   0.361   8.111   7.090 -0.5137  2.1422 -2.4509
11355SOL    HW234644   0.411   8.251   7.114  1.0638  0.9883  1.9609
11356SOL     OW34645   8.200   0.738   3.204  0.4190  0.4021 -0.0603
11356SOL    HW134646   8.178   0.813   3.148  0.5876  0.3536 -0.1914
11356SOL    HW234647   8.220   0.667   3.143 -1.4110 -0.2642  0.0469
11357SOL     OW34648   2.304   3.948   6.040 -0.2279  0.4940 -0.5791
11357SOL    HW134649   2.253   3.940   5.959 -0.5480 -1.5011 -0.2169
11357SOL    HW234650   2.368   3.878   6.034  1.1309  1.6323 -0.0259
11358SOL     OW34651   8.426   4.668   9.629 -0.2273  0.2050  0.1232
11358SOL    HW134652   8.392   4.579   9.640  0.3207  0.1377  1.5286
11358SOL    HW234653   8.348   4.724   9.628 -0.5319 -0.2170  0.1605
11359SOL     OW34654   5.414   8.137   8.183 -0.3421  0.1857 -0.0262
11359SOL    HW134655   5.510   8.145   8.184 -0.3035 -0.3009  0.4145
11359SOL    HW234656   5.383   8.226   8.169  0.1591  0.5318  0.9607
11360SOL     OW34657   9.441   7.502   4.308 -0.0141  0.0119 -0.5826
11360SOL    HW134658   9.535   7.494   4.295  0.2876  1.1977  0.5404
11360SOL    HW234659   9.427   7.477   4.399 -0.9921 -1.4272 -1.1004
11361SOL     OW34660   4.376   6.374   9.260  0.1022 -0.6726 -0.4823
11361SOL    HW134661   4.289   6.374   9.301 -0.0607 -1.7909 -0.8175
11361SOL    HW234662   4.434   6.343   9.329  0.4190  1.0406  0.0680
11362SOL     OW34663   0.688   2.594   4.304  0.4091 -0.8597  0.8659
11362SOL    HW134664   0.620   2.600   4.237 -1.1751  0.2620  2.5003
11362SOL    HW234665   0.743   2.671   4.289 -1.1301  0.5400  2.0193
11363SOL     OW34666   8.347   1.764   4.306 -0.2605 -0.3054 -0.2674
11363SOL    HW134667   8.302   1.710   4.240 -0.0564 -1.8074  0.7704
11363SOL    HW234668   8.440   1.756   4.284 -0.3081  0.7933 -0.9387
11364SOL     OW34669   3.085   0.319   2.200  0.3761 -0.1095  0.3798
11364SOL    HW134670   3.140   0.263   2.255  0.3792 -1.1914 -0.6620
11364SOL    HW234671   3.147   0.371   2.149  0.3979  0.0693  0.5901
11365SOL     OW34672   8.896   9.964   4.466  0.2750 -0.1811 -0.3512
11365SOL    HW134673   8.871  10.050   4.501 -0.9726 -0.8776  0.5485
11365SOL    HW234674   8.816   9.913   4.469  1.1799 -1.6316 -0.1199
11366SOL     OW34675   6.654   8.135   0.118  0.0022 -1.2694 -0.3443
11366SOL    HW134676   6.668   8.044   0.147  2.4928 -1.1473 -0.9122
11366SOL    HW234677   6.562   8.153   0.139  0.2985 -2.7949  2.9353
11367SOL     OW34678   8.975   0.789   5.096  0.1521 -0.0072  0.5143
11367SOL    HW134679   8.942   0.874   5.124  2.8623  1.0389  0.8410
11367SOL    HW234680   8.970   0.734   5.174  0.5894  0.5718  0.9535
11368SOL     OW34681   5.611   3.956   9.859  0.6574 -0.4548  0.4727
11368SOL    HW134682   5.582   4.017   9.792  3.1439  1.2946  0.8510
11368SOL    HW234683   5.535   3.946   9.917 -0.5451  0.4054 -0.8863
11369SOL     OW34684   7.702   0.682   9.511 -0.1776 -0.4927  0.1904
11369SOL    HW134685   7.617   0.649   9.538 -0.0921 -1.3246 -0.5091
11369SOL    HW234686   7.716   0.761   9.564 -1.2216 -0.5408  0.5472
11370SOL     OW34687   0.594   5.692   6.465  0.4220 -0.0722  0.1360
11370SOL    HW134688   0.525   5.647   6.513  0.7094 -1.1100 -0.4066
11370SOL    HW234689   0.613   5.770   6.518 -1.8408  0.7918 -0.1766
11371SOL     OW34690   6.498   0.602   5.728 -0.2772  0.8068  0.5755
11371SOL    HW134691   6.549   0.613   5.648 -1.2664  1.6936  0.0506
11371SOL    HW234692   6.488   0.691   5.763 -1.7012  0.6939  0.5072
11372SOL     OW34693   7.490   2.092   1.514 -0.0541  0.0453 -0.3790
11372SOL    HW134694   7.395   2.094   1.516 -0.0808 -0.2057  2.2825
11372SOL    HW234695   7.512   2.002   1.490 -0.4953 -0.0046 -0.5922
11373SOL     OW34696   0.200   9.878   1.244  0.0384 -0.4116  0.5927
11373SOL    HW134697   0.219   9.793   1.206 -1.2124 -0.4907  0.0789
11373SOL    HW234698   0.240   9.876   1.331 -0.1174 -1.5810  0.6484
11374SOL     OW34699   8.385   8.962   1.613  0.1674 -0.0531  0.1175
11374SOL    HW134700   8.312   8.976   1.552  1.1497  0.0939 -1.0719
11374SOL    HW234701   8.343   8.953   1.699 -1.3721 -1.6057 -0.7334
11375SOL     OW34702   6.144   5.098   1.410  0.5238  0.0872 -0.2613
11375SOL    HW134703   6.215   5.120   1.350  0.6207 -0.5330 -0.3782
11375SOL    HW234704   6.175   5.021   1.457  0.5903  0.7599  0.8320
11376SOL     OW34705   7.391   7.057   1.100 -0.0080  0.5532 -0.3624
11376SOL    HW134706   7.410   7.007   1.021 -0.1888  0.6570 -0.4726
11376SOL    HW234707   7.309   7.019   1.133  0.2036  0.3345 -0.0796
11377SOL     OW34708   9.253   9.017   2.375 -0.3209  0.4412  0.1241
11377SOL    HW134709   9.280   9.087   2.316  0.5864 -0.0876 -0.1085
11377SOL    HW234710   9.187   8.968   2.327  1.2639 -0.7060 -0.9656
11378SOL     OW34711   3.912   2.947   7.431 -0.0139  0.1603 -0.3467
11378SOL    HW134712   3.984   2.926   7.490 -1.0741 -0.2502  0.8388
11378SOL    HW234713   3.854   2.871   7.435 -1.8309  1.5120  0.7876
11379SOL     OW34714   6.868   4.438   7.116 -0.4177 -0.0627 -0.2448
11379SOL    HW134715   6.875   4.518   7.064 -0.5742  0.5318  0.6356
11379SOL    HW234716   6.956   4.425   7.152 -0.0880 -0.9413 -1.3115
11380SOL     OW34717   0.725   6.151   5.538 -0.0222  0.7204 -0.0602
11380SOL    HW134718   0.674   6.102   5.603 -0.7895  0.3750 -0.9105
11380SOL    HW234719   0.785   6.087   5.501 -1.6768  0.1139 -1.8610
11381SOL     OW34720   5.203   6.953   7.733 -0.5089  0.5669 -0.1744
11381SOL    HW134721   5.279   6.901   7.704 -0.4148  0.8049 -0.3573
11381SOL    HW234722   5.128   6.900   7.709 -0.4030  0.3746 -0.0847
11382SOL     OW34723   2.114   7.823   2.930  0.0497 -0.1076  0.5043
11382SOL    HW134724   2.160   7.907   2.921  0.6253 -0.3820  0.7869
11382SOL    HW234725   2.139   7.792   3.017  0.4173 -0.9025  0.1272
11383SOL     OW34726   8.524   7.292   5.803  0.3175 -0.0760  0.1287
11383SOL    HW134727   8.609   7.248   5.800  1.1436  1.5067 -1.3770
11383SOL    HW234728   8.521   7.333   5.889  0.4253 -1.3246  0.7469
11384SOL     OW34729   5.099   7.328   6.603 -0.0273  0.3759  0.4715
11384SOL    HW134730   5.020   7.276   6.590 -0.6399  1.2976  0.4307
11384SOL    HW234731   5.127   7.309   6.692  1.0058 -1.6799 -0.2277
11385SOL     OW34732   8.128   9.749   6.932  0.1862  0.1546 -0.3710
11385SOL    HW134733   8.203   9.806   6.949  0.3825  0.0598 -0.9161
11385SOL    HW234734   8.083   9.743   7.016  0.5768  0.5200 -0.1350
11386SOL     OW34735   1.663   7.135   7.155 -0.7300  0.5274 -0.0705
11386SOL    HW134736   1.715   7.056   7.140 -1.0292  0.6115 -1.7511
11386SOL    HW234737   1.717   7.206   7.121 -0.1822  1.1964  2.0034
11387SOL     OW34738   2.830   6.461   8.342  0.3776 -0.0026 -0.0911
11387SOL    HW134739   2.875   6.452   8.426  1.7215 -0.9651 -0.8861
11387SOL    HW234740   2.857   6.384   8.291 -1.3289 -0.0574 -1.0060
11388SOL     OW34741   9.558   1.338   3.494  0.1188 -0.8197  0.2769
11388SOL    HW134742   9.652   1.354   3.499  0.3074 -1.1540 -1.5604
11388SOL    HW234743   9.531   1.373   3.409 -1.1357 -1.9748  0.1501
11389SOL     OW34744   2.961   7.529   4.674 -0.6933  0.2011 -0.1508
11389SOL    HW134745   3.047   7.494   4.649 -0.0501  0.5072  1.4482
11389SOL    HW234746   2.898   7.480   4.622  0.3221 -1.7418  0.3474
11390SOL     OW34747   1.398   5.704   3.126 -0.0863  0.3669  0.4450
11390SOL    HW134748   1.377   5.648   3.200 -1.4150  1.5795  1.0348
11390SOL    HW234749   1.406   5.644   3.052  0.0715 -0.7375  1.3306
11391SOL     OW34750   1.931   4.211   7.996 -0.7560  0.7402  0.2946
11391SOL    HW134751   1.852   4.259   8.022 -0.0521  1.0395  2.0410
11391SOL    HW234752   1.985   4.209   8.075  0.7412  0.0324 -0.6911
11392SOL     OW34753   7.037   7.713   5.935 -0.1398 -0.0634 -0.3675
11392SOL    HW134754   6.975   7.778   5.966  0.8887  1.0815 -0.6409
11392SOL    HW234755   7.011   7.632   5.979 -0.2410  0.9512  1.5272
11393SOL     OW34756   4.348   8.665   9.868  0.0857  0.2742  0.3912
11393SOL    HW134757   4.371   8.752   9.837  1.6498 -0.4983 -0.7822
11393SOL    HW234758   4.254   8.668   9.883 -0.3180  1.4800 -1.9909
11394SOL     OW34759   9.325   4.408   0.996  0.4520 -0.3165 -0.5500
11394SOL    HW134760   9.257   4.420   0.930  2.2251  2.9192 -2.0543
11394SOL    HW234761   9.378   4.335   0.964  0.3655  0.1949 -1.9371
11395SOL     OW34762   4.104   2.985   1.892 -0.1845 -0.4161 -0.3943
11395SOL    HW134763   4.055   3.055   1.848  0.7510 -0.7680 -2.1228
11395SOL    HW234764   4.038   2.932   1.935 -1.1923 -0.0497 -1.4361
11396SOL     OW34765   4.939   1.698   2.249 -0.1607  0.0524 -0.6176
11396SOL    HW134766   4.988   1.778   2.268  0.1489 -0.3485  0.3501
11396SOL    HW234767   4.999   1.627   2.271 -0.7381 -0.4470 -0.6155
11397SOL     OW34768   0.305   2.534   0.879  0.3782  1.2591  0.2939
11397SOL    HW134769   0.222   2.529   0.927  1.6592 -0.4028  2.5417
11397SOL    HW234770   0.281   2.519   0.788 -1.7514  0.3266  0.9423
11398SOL     OW34771   8.517   2.799   8.955 -0.6357 -0.2074  0.3302
11398SOL    HW134772   8.543   2.743   9.028  0.5571  0.4458  0.4234
11398SOL    HW234773   8.544   2.750   8.877  0.6488  0.3338  0.4190
11399SOL     OW34774   7.215   9.963   6.168 -0.4646 -0.0957 -0.0204
11399SOL    HW134775   7.307   9.971   6.143 -0.8443  1.2201 -1.1295
11399SOL    HW234776   7.188   9.878   6.134 -0.3235  0.6244 -2.0632
11400SOL     OW34777   3.743   9.243   1.388 -0.1692  0.2346  0.0943
11400SOL    HW134778   3.797   9.244   1.309  0.3351  0.2558  0.4324
11400SOL    HW234779   3.681   9.315   1.376  0.7878  1.1248  0.3152
11401SOL     OW34780   1.021   2.855   9.513 -0.1780  0.0500  0.0597
11401SOL    HW134781   1.068   2.825   9.590  0.1751  1.3849  0.3867
11401SOL    HW234782   0.954   2.914   9.546 -2.6654 -2.3526 -0.3232
11402SOL     OW34783   2.989   2.224   7.678  0.1954  0.3398  0.3282
11402SOL    HW134784   3.050   2.280   7.725  1.9098 -0.8539 -0.3775
11402SOL    HW234785   3.023   2.222   7.588 -0.4595 -0.9333  0.0831
11403SOL     OW34786   4.257   3.416   4.037 -0.2292 -0.3040 -0.5301
11403SOL    HW134787   4.313   3.465   4.097 -1.5574  0.0188  0.4946
11403SOL    HW234788   4.179   3.396   4.089 -0.6053 -1.6761 -1.5811
11404SOL     OW34789   6.912   1.450   5.755  0.1207 -0.1685  0.2191
11404SOL    HW134790   6.918   1.355   5.742 -0.1348 -0.1592  0.0180
11404SOL    HW234791   6.971   1.468   5.828  2.2269 -0.1049 -1.4101
11405SOL     OW34792   5.076   6.158   2.414 -0.0031 -0.0216 -0.8151
11405SOL    HW134793   5.126   6.102   2.474  1.4155 -0.1456 -2.0651
11405SOL    HW234794   4.991   6.169   2.457  0.3608 -1.5393  0.3753
11406SOL     OW34795   0.918   1.055   2.842  0.1751  0.1653 -0.6318
11406SOL    HW134796   0.823   1.052   2.848  0.1955  0.7232  0.2168
11406SOL    HW234797   0.938   1.146   2.819  0.5382  0.4102  0.5459
11407SOL     OW34798   8.565   7.049   7.493 -0.1901 -0.2835 -0.4529
11407SOL    HW134799   8.579   7.001   7.411  0.2069 -1.6252  0.3691
11407SOL    HW234800   8.606   6.995   7.560 -0.2368  0.9462  0.6060
11408SOL     OW34801   9.015   4.076   7.015 -0.2132  0.9016  0.2948
11408SOL    HW134802   8.952   4.072   7.086 -1.3344 -0.1757 -0.7034
11408SOL    HW234803   8.962   4.086   6.936  0.7926 -0.4261 -0.6051
11409SOL     OW34804   1.233   2.878   7.546 -0.4425  0.3817  0.4292
11409SOL    HW134805   1.156   2.927   7.519 -1.1748 -0.4857  0.8610
11409SOL    HW234806   1.198   2.800   7.590  0.6513  1.0685  2.6940
11410SOL     OW34807   3.500   0.999   7.258 -0.1553 -0.1919  0.3572
11410SOL    HW134808   3.583   1.042   7.236  0.1595 -0.9492 -0.0068
11410SOL    HW234809   3.435   1.041   7.201  0.0954 -0.0182  0.1970
11411SOL     OW34810   8.747   3.608   4.177  0.2410 -0.2893  0.1367
11411SOL    HW134811   8.839   3.634   4.182  0.6014 -1.6872  1.7999
11411SOL    HW234812   8.701   3.673   4.229  0.3281  0.2473 -0.4554
11412SOL     OW34813   5.262   4.859   0.658 -0.1050  0.2458  0.2169
11412SOL    HW134814   5.268   4.779   0.710  1.5922 -0.8995 -1.6130
11412SOL    HW234815   5.302   4.926   0.713  2.1293 -1.0371  0.2513
11413SOL     OW34816   0.508   4.281   0.845  0.2594  0.2825  0.2070
11413SOL    HW134817   0.458   4.247   0.919  0.9887  1.0045  1.0530
11413SOL    HW234818   0.598   4.251   0.860  0.5173  0.8646 -0.1112
11414SOL     OW34819   9.880   8.172   5.394 -0.0113  0.2135  0.0358
11414SOL    HW134820   9.875   8.250   5.340 -1.9982  0.0899 -0.0141
11414SOL    HW234821   9.895   8.205   5.483  1.1785  0.5130 -0.2539
11415SOL     OW34822   0.791   5.164   9.484  0.0397  0.3626 -0.3881
11415SOL    HW134823   0.841   5.182   9.404  0.7480  2.9004  0.5396
11415SOL    HW234824   0.834   5.216   9.552 -1.6539 -0.2841  1.2635
11416SOL     OW34825   4.934   8.724   1.584  0.4689  0.0070 -0.1878
11416SOL    HW134826   4.944   8.763   1.497  3.0704  2.2454  0.9808
11416SOL    HW234827   4.871   8.781   1.628  0.0054 -0.4711 -0.2210
11417SOL     OW34828   2.160   5.014   0.735  0.0561  0.1715  0.4589
11417SOL    HW134829   2.131   4.972   0.654 -1.8177 -0.9046  1.6086
11417SOL    HW234830   2.192   5.100   0.707  0.2670 -0.4877 -1.5021
11418SOL     OW34831   5.439   2.462   8.284 -0.7354 -0.7623 -0.0218
11418SOL    HW134832   5.495   2.490   8.357  0.0659 -0.6124 -0.6713
11418SOL    HW234833   5.494   2.473   8.207 -1.4869 -1.1573 -0.6267
11419SOL     OW34834   2.287   4.720   8.789 -0.3080 -0.0031 -0.1172
11419SOL    HW134835   2.314   4.682   8.873  0.5483  1.9776  0.5550
11419SOL    HW234836   2.191   4.727   8.795 -0.3168 -0.5181  0.3948
11420SOL     OW34837   4.809   4.888   6.861 -0.0942  0.4587  0.7256
11420SOL    HW134838   4.767   4.974   6.850 -1.5690 -0.5353 -2.6660
11420SOL    HW234839   4.745   4.826   6.826  1.3996 -1.9476  2.0461
11421SOL     OW34840   5.924   0.908   9.853 -0.1420 -0.3941 -0.1734
11421SOL    HW134841   5.831   0.899   9.875  0.0923 -1.8680  0.3609
11421SOL    HW234842   5.968   0.910   9.938  0.3486 -0.0930 -0.4336
11422SOL     OW34843   7.585   2.468   6.340 -0.2981 -0.5557  0.3041
11422SOL    HW134844   7.498   2.482   6.378  0.0301 -1.6133  1.4994
11422SOL    HW234845   7.566   2.422   6.257 -0.9684  1.1083 -0.5098
11423SOL     OW34846   2.203   5.573   4.352  0.3348 -0.0340  0.3653
11423SOL    HW134847   2.123   5.612   4.317  1.2279  0.3270 -1.3497
11423SOL    HW234848   2.174   5.525   4.430 -1.5592 -0.0440 -0.3018
11424SOL     OW34849   3.690   5.597   8.281 -0.1011  0.0147 -0.0546
11424SOL    HW134850   3.776   5.571   8.248  0.1857  0.0791  0.6237
11424SOL    HW234851   3.642   5.626   8.203  0.7910  0.7972 -0.3399
11425SOL     OW34852   1.204   3.117   8.112  0.1939  0.2524  0.0543
11425SOL    HW134853   1.246   3.034   8.137  0.0345 -0.1875 -1.0928
11425SOL    HW234854   1.250   3.183   8.164 -1.2062 -0.7586  2.7453
11426SOL     OW34855   1.533   9.238   3.644  0.0688  0.5749 -0.5060
11426SOL    HW134856   1.489   9.297   3.582 -0.1318 -0.3699 -1.2919
11426SOL    HW234857   1.624   9.237   3.614  0.1326  0.7123 -0.3147
11427SOL     OW34858   8.266   4.148   1.787 -0.0914 -0.8194 -0.3093
11427SOL    HW134859   8.193   4.128   1.845  0.4281 -1.1139  0.2644
11427SOL    HW234860   8.341   4.160   1.846  0.3487 -0.6527 -0.8874
11428SOL     OW34861   5.850   1.002   4.228 -0.4623  0.1279 -0.4053
11428SOL    HW134862   5.815   0.949   4.156  0.9787 -1.4361 -0.0285
11428SOL    HW234863   5.877   1.084   4.186  1.4582 -1.1949 -1.9776
11429SOL     OW34864   9.690   2.517   5.389 -0.1602 -0.1660  0.9605
11429SOL    HW134865   9.742   2.595   5.407 -0.7416  0.2054  1.0643
11429SOL    HW234866   9.605   2.550   5.360 -0.4389 -0.7566  1.0675
11430SOL     OW34867   8.013   1.462   2.986 -0.3274  0.3864 -0.3911
11430SOL    HW134868   8.027   1.367   2.988 -2.5627 -0.2785 -4.3842
11430SOL    HW234869   8.100   1.499   2.971  0.4279 -1.1211  0.1180
11431SOL     OW34870   2.809   4.208   6.109 -0.6411  0.1963  0.2553
11431SOL    HW134871   2.849   4.245   6.187  0.4579 -0.2252 -0.0916
11431SOL    HW234872   2.746   4.144   6.142  0.9647 -1.1488  0.7913
11432SOL     OW34873   1.154   4.456   8.440  0.5392 -0.1854  0.3404
11432SOL    HW134874   1.157   4.396   8.514 -2.6217 -0.6189  0.2884
11432SOL    HW234875   1.141   4.399   8.364 -0.4454  0.4191  0.0357
11433SOL     OW34876   6.186   8.452   6.471  0.5912 -0.4604  0.0127
11433SOL    HW134877   6.161   8.430   6.561 -2.4424  0.1510 -0.5877
11433SOL    HW234878   6.272   8.493   6.480  0.1937 -0.0234  2.6919
11434SOL     OW34879   6.941   2.401   0.684  0.4320 -0.2254  0.7807
11434SOL    HW134880   7.005   2.398   0.755 -0.8058  0.6162  1.9980
11434SOL    HW234881   6.914   2.492   0.681 -1.6634 -0.7769  1.2418
11435SOL     OW34882   1.729   8.913   0.943 -0.0579 -0.2747 -0.0561
11435SOL    HW134883   1.823   8.911   0.930 -0.3663  0.8042 -3.3295
11435SOL    HW234884   1.701   8.822   0.933  0.4180 -0.2581 -1.7945
11436SOL     OW34885   1.964   3.421   5.434  0.3550 -0.2423  0.0436
11436SOL    HW134886   1.965   3.489   5.501  0.4555  0.3741 -0.5705
11436SOL    HW234887   1.881   3.434   5.388  0.8404  0.1489 -0.7444
11437SOL     OW34888   2.717   2.534   9.204 -0.5431 -0.1009 -0.0318
11437SOL    HW134889   2.632   2.492   9.194 -1.2545  1.4698 -1.0070
11437SOL    HW234890   2.760   2.523   9.119  0.2198 -0.8106  0.4274
11438SOL     OW34891   3.821   3.359   9.447  0.0762 -0.8106 -0.1837
11438SOL    HW134892   3.809   3.418   9.373  1.2908 -1.1545 -0.6679
11438SOL    HW234893   3.839   3.417   9.521 -2.2589 -0.3950  0.1310
11439SOL     OW34894   4.726   7.052   3.631  0.4601  0.2156 -0.0852
11439SOL    HW134895   4.760   7.049   3.542 -2.0376  0.7087 -1.1439
11439SOL    HW234896   4.745   6.965   3.666 -0.4770 -0.8058 -1.9361
11440SOL     OW34897   3.255   5.231   2.712  0.8104 -0.5404  0.6695
11440SOL    HW134898   3.240   5.205   2.803 -0.9429 -0.5041  0.4370
11440SOL    HW234899   3.303   5.157   2.674  0.2390 -1.2446  1.2629
11441SOL     OW34900   3.852   3.769   5.340 -0.3679  0.4089 -0.5081
11441SOL    HW134901   3.840   3.864   5.338  0.6937  0.5479 -1.2272
11441SOL    HW234902   3.899   3.752   5.421 -1.7778  0.3178  0.3176
11442SOL     OW34903   1.252   1.463   0.582  0.1092 -0.0015 -0.1112
11442SOL    HW134904   1.250   1.438   0.489 -0.4385 -1.4863  0.2663
11442SOL    HW234905   1.160   1.474   0.606  0.1293 -1.3857  0.6801
11443SOL     OW34906   9.171   7.413   2.897  0.3909  0.8886  0.6721
11443SOL    HW134907   9.251   7.392   2.848 -0.2840  1.0821 -0.5431
11443SOL    HW234908   9.117   7.463   2.835 -0.8422  0.4423  1.3555
11444SOL     OW34909   8.777   4.220   6.101  0.4115  0.6889 -0.5169
11444SOL    HW134910   8.847   4.186   6.045 -1.0355 -1.3271 -1.2096
11444SOL    HW234911   8.733   4.285   6.047  1.0777  1.1964 -0.4628
11445SOL     OW34912   4.534   2.816   7.705 -0.7463 -0.2903 -0.1164
11445SOL    HW134913   4.554   2.909   7.719 -0.8452 -0.1761 -0.7195
11445SOL    HW234914   4.614   2.771   7.731 -0.3183  0.0428 -0.8373
11446SOL     OW34915   6.058   7.597   5.819 -0.5828  0.0491  0.1774
11446SOL    HW134916   6.107   7.672   5.852  1.3545 -1.4980  1.0392
11446SOL    HW234917   6.078   7.526   5.881 -1.3148 -1.5150 -1.2853
11447SOL     OW34918   5.238   8.652   6.433  0.1575  0.1938 -0.2044
11447SOL    HW134919   5.181   8.662   6.357  0.4586  0.5966 -0.3742
11447SOL    HW234920   5.327   8.664   6.400  0.2790  0.5726  0.2374
11448SOL     OW34921   8.849   6.584   4.491 -0.1943 -0.8477  0.5210
11448SOL    HW134922   8.838   6.639   4.569  1.0130 -0.6378  0.5668
11448SOL    HW234923   8.933   6.541   4.504  0.7640  0.3493 -1.3403
11449SOL     OW34924   3.328   2.718   9.589 -0.1395 -0.1777 -0.5935
11449SOL    HW134925   3.379   2.671   9.523  1.5421  0.0101  0.5197
11449SOL    HW234926   3.248   2.666   9.598  1.2903 -2.4620  0.0069
11450SOL     OW34927   5.884   8.105   6.693 -0.1337  0.1970 -0.2510
11450SOL    HW134928   5.845   8.077   6.610  0.3536  3.5213 -1.7529
11450SOL    HW234929   5.812   8.146   6.740  0.2006  0.7924 -0.2596
11451SOL     OW34930   4.861   5.106   9.640  0.3882 -0.1966 -0.5119
11451SOL    HW134931   4.843   5.200   9.634  2.4099  0.1150 -2.9706
11451SOL    HW234932   4.800   5.065   9.578 -0.5324 -0.6004  0.5967
11452SOL     OW34933   5.928   5.828   9.240 -0.2680  0.2425  0.1076
11452SOL    HW134934   6.009   5.786   9.270 -0.4007 -1.1786 -1.3572
11452SOL    HW234935   5.944   5.849   9.149 -2.0874 -1.7084 -0.7682
11453SOL     OW34936   2.102   8.180   9.013  0.7607  0.1706  0.2372
11453SOL    HW134937   2.028   8.196   9.073  0.6846 -1.4228  0.6074
11453SOL    HW234938   2.169   8.140   9.068  1.8422  1.3758 -0.1538
11454SOL     OW34939   6.307   7.473   6.694 -0.4077  0.3056  0.1773
11454SOL    HW134940   6.347   7.397   6.737 -0.7244  1.0315  1.8032
11454SOL    HW234941   6.315   7.453   6.600 -0.7854 -1.8954  0.5445
11455SOL     OW34942   5.945   4.953   3.308  0.1344  0.0233  0.3624
11455SOL    HW134943   5.889   5.015   3.354 -0.7143  0.0465 -0.6653
11455SOL    HW234944   6.019   5.005   3.277  0.0941  0.2418  0.6317
11456SOL     OW34945   2.689   8.342   6.598  0.2015  0.1308  0.1612
11456SOL    HW134946   2.775   8.304   6.618  0.6976  0.4205 -1.2524
11456SOL    HW234947   2.706   8.401   6.524 -1.4640 -0.9208 -1.1250
11457SOL     OW34948   0.741   4.868   4.516 -0.3321  0.0523  0.0756
11457SOL    HW134949   0.717   4.945   4.465  0.4044 -0.7584 -1.5758
11457SOL    HW234950   0.829   4.845   4.485 -0.3995 -1.2464  0.7778
11458SOL     OW34951   9.528   5.391   6.527 -0.5606  0.9709 -0.1974
11458SOL    HW134952   9.551   5.466   6.472  0.5663  0.1673 -0.8702
11458SOL    HW234953   9.433   5.395   6.535 -0.4993  2.6375  0.0351
11459SOL     OW34954   5.573   6.080   0.361 -0.2434 -0.3546 -0.4193
11459SOL    HW134955   5.597   6.105   0.451  0.0100 -0.9087 -0.3294
11459SOL    HW234956   5.555   6.164   0.317 -0.7389 -0.0987  0.2500
11460SOL     OW34957   2.918   1.196   2.625  0.3726 -0.1101  0.1620
11460SOL    HW134958   2.958   1.266   2.676 -0.1712  0.0440  0.3903
11460SOL    HW234959   2.990   1.156   2.577  0.8033  0.1142  0.6175
11461SOL     OW34960   9.818   3.146   2.164 -0.1483  0.2564 -0.0550
11461SOL    HW134961   9.741   3.094   2.139 -0.0710  0.2308 -0.2487
11461SOL    HW234962   9.796   3.183   2.249  0.0221 -0.5539  0.3433
11462SOL     OW34963   8.540   2.371   6.307 -0.1229  0.0336  0.1594
11462SOL    HW134964   8.525   2.299   6.246 -0.4325  1.0077 -0.9645
11462SOL    HW234965   8.635   2.374   6.318 -0.1208 -0.6433  0.3448
11463SOL     OW34966   5.558   1.534   8.367 -0.0565 -0.0630 -0.1095
11463SOL    HW134967   5.610   1.492   8.299  0.1864  2.6249 -1.7265
11463SOL    HW234968   5.617   1.541   8.442  0.8453 -0.0017 -0.8140
11464SOL     OW34969   4.386   6.915   9.400  0.4288  0.0544  0.1564
11464SOL    HW134970   4.395   6.996   9.349  0.3839 -0.8561 -1.3449
11464SOL    HW234971   4.297   6.918   9.433  0.0991  0.1826 -0.7081
11465SOL     OW34972   4.061   7.577   9.464 -0.2925  0.0527  0.5988
11465SOL    HW134973   4.045   7.628   9.544 -0.1872  0.8237  0.1417
11465SOL    HW234974   4.155   7.563   9.464 -0.3122 -0.0783  0.6901
11466SOL     OW34975   5.705   5.640   6.882  0.1073  0.2796  0.1503
11466SOL    HW134976   5.691   5.618   6.974  1.4471  0.5009  0.4132
11466SOL    HW234977   5.746   5.726   6.883  1.4370 -0.3256 -0.5807
11467SOL     OW34978   9.171   0.630   3.154 -0.6257  0.7319  0.1439
11467SOL    HW134979   9.122   0.587   3.084  0.4441 -0.0468 -0.1460
11467SOL    HW234980   9.158   0.575   3.231 -0.9784  1.0438  0.3112
11468SOL     OW34981   3.295   7.411   1.183 -0.1557 -0.1949 -0.3373
11468SOL    HW134982   3.299   7.489   1.239  0.5165  0.6813 -1.5515
11468SOL    HW234983   3.363   7.353   1.219  0.5892  0.5501 -0.4957
11469SOL     OW34984   1.567   7.109   3.634 -0.3466  0.6539 -0.6173
11469SOL    HW134985   1.643   7.056   3.610 -0.1618  1.3366 -1.6192
11469SOL    HW234986   1.536   7.072   3.716  0.2572 -0.4906 -0.8903
11470SOL     OW34987   2.068   7.875   6.138  0.2511 -0.2285 -0.0669
11470SOL    HW134988   2.159   7.847   6.134  0.1476 -0.7656  0.9327
11470SOL    HW234989   2.043   7.865   6.230  0.0508  2.7719  0.3132
11471SOL     OW34990   4.691   8.704   6.554 -0.2636  0.1292 -0.0710
11471SOL    HW134991   4.646   8.774   6.602 -1.5867 -0.7473  0.0267
11471SOL    HW234992   4.656   8.709   6.465 -0.8432 -0.7713  0.0885
11472SOL     OW34993   6.750   0.906   5.121 -0.0913  0.3787  0.3848
11472SOL    HW134994   6.840   0.876   5.136  0.3077  1.5949  0.5664
11472SOL    HW234995   6.705   0.888   5.203 -0.6046 -2.1110 -0.3576
11473SOL     OW34996   1.993   3.245   2.778  0.4478  0.1236 -0.3558
11473SOL    HW134997   1.990   3.214   2.687 -0.5536 -1.1608  0.0723
11473SOL    HW234998   2.086   3.244   2.801  0.5287 -2.1451 -0.5637
11474SOL     OW34999   5.529   0.536   3.799  0.2906 -0.1900 -0.0937
11474SOL    HW135000   5.479   0.550   3.718  1.3823  0.8737 -0.6116
11474SOL    HW235001   5.462   0.527   3.867 -0.6325  0.3007 -0.9067
11475SOL     OW35002   3.867   6.342   6.768 -0.1571 -0.5706 -0.4757
11475SOL    HW135003   3.908   6.400   6.704 -2.0851  2.6902  0.9988
11475SOL    HW235004   3.853   6.397   6.845 -0.1218 -3.6620  1.9271
11476SOL     OW35005   7.183   3.197   4.733 -0.0565  0.3410 -0.0451
11476SOL    HW135006   7.130   3.164   4.806  1.7244 -0.2545  1.0426
11476SOL    HW235007   7.202   3.288   4.756 -1.0224  0.7393 -0.7217
11477SOL     OW35008   0.668   4.539   2.865 -0.1544 -0.1936 -0.2761
11477SOL    HW135009   0.671   4.462   2.808  1.2086 -0.9267  0.7405
11477SOL    HW235010   0.758   4.570   2.867 -0.5761  1.0612 -0.1449
11478SOL     OW35011   1.439   3.837   5.478  0.5102 -0.6450  0.1099
11478SOL    HW135012   1.355   3.826   5.433 -0.4369 -0.1935  1.7138
11478SOL    HW235013   1.450   3.931   5.486  1.6412 -0.6613 -0.8723
11479SOL     OW35014   3.626   8.127   7.366 -0.1334 -0.1774 -0.0965
11479SOL    HW135015   3.652   8.192   7.431 -1.6244 -0.1821  0.5366
11479SOL    HW235016   3.633   8.043   7.412 -2.1949 -0.0982  0.4345
11480SOL     OW35017   8.162   3.263   0.929  0.3644  0.6126 -0.0049
11480SOL    HW135018   8.230   3.324   0.903  0.1344  1.3467  1.0403
11480SOL    HW235019   8.202   3.210   0.998  0.2724  0.2032 -0.2647
11481SOL     OW35020   3.561   2.280  -0.005  0.2656  0.2152  0.1876
11481SOL    HW135021   3.551   2.195   0.038  0.5353  0.6828  1.1906
11481SOL    HW235022   3.612   2.333   0.056 -1.1606  1.5923  0.2593
11482SOL     OW35023   7.645   1.164   9.574 -0.3838 -0.4763  0.0594
11482SOL    HW135024   7.620   1.213   9.496  0.8246  0.1140  0.0264
11482SOL    HW235025   7.612   1.216   9.647  0.7924  0.3533  0.0201
11483SOL     OW35026   5.705   1.663   6.310 -0.2852 -0.3643  0.4256
11483SOL    HW135027   5.652   1.743   6.314 -2.5155 -1.7843  0.9952
11483SOL    HW235028   5.792   1.691   6.338 -0.8895  1.9248  0.2610
11484SOL     OW35029   1.663   4.769   2.967 -0.4102  0.2260 -0.0211
11484SOL    HW135030   1.648   4.679   2.995  0.1283  0.9206  2.8007
11484SOL    HW235031   1.591   4.819   3.005 -0.8309  1.0123 -1.7421
11485SOL     OW35032   3.743   8.967   8.775 -0.0128 -0.2982  0.1557
11485SOL    HW135033   3.751   9.061   8.794  0.3249  0.0062 -1.3432
11485SOL    HW235034   3.827   8.944   8.736 -0.5262 -0.9278 -0.6087
11486SOL     OW35035   1.522   0.242   5.714  0.5713 -0.2127  0.1579
11486SOL    HW135036   1.506   0.324   5.761  1.1839 -0.1375  0.2562
11486SOL    HW235037   1.495   0.174   5.774  0.9085 -0.1034  0.4356
11487SOL     OW35038   8.063   4.726   1.533 -0.8853 -0.3125  0.6048
11487SOL    HW135039   8.067   4.631   1.535 -2.3800 -0.3830  1.3578
11487SOL    HW235040   8.154   4.754   1.524 -0.5316 -1.8149 -0.8637
11488SOL     OW35041   2.106   8.796   5.891 -0.4150 -0.3230  0.1114
11488SOL    HW135042   2.125   8.709   5.927 -1.9865 -0.6422  0.2502
11488SOL    HW235043   2.179   8.815   5.833  0.1205 -1.5946  0.3410
11489SOL     OW35044   4.281   0.228   8.539 -0.5277 -0.1064  0.1463
11489SOL    HW135045   4.256   0.270   8.457  2.3972  0.8170 -0.4014
11489SOL    HW235046   4.298   0.137   8.516  0.9782  0.3076 -0.4903
11490SOL     OW35047   8.732   4.427   8.002  0.3021  0.1646  0.1397
11490SOL    HW135048   8.683   4.345   8.007  1.3426 -0.6087 -1.4943
11490SOL    HW235049   8.819   4.405   8.033  1.6072 -0.3089 -3.3829
11491SOL     OW35050   1.698   8.563   3.442  0.0990 -0.4991 -0.1109
11491SOL    HW135051   1.788   8.554   3.410  0.1303  0.8629 -0.4561
11491SOL    HW235052   1.644   8.540   3.367  0.1499 -1.5014  0.1519
11492SOL     OW35053   6.392   3.100   2.030 -0.4150  0.3277  0.1012
11492SOL    HW135054   6.433   3.076   1.946  0.0235  0.5490  0.2460
11492SOL    HW235055   6.338   3.176   2.008 -0.8459 -0.0372 -0.1154
11493SOL     OW35056   7.451   9.646   6.083 -0.0338 -0.3470  0.0661
11493SOL    HW135057   7.465   9.677   6.172 -1.3271  0.9688 -0.1474
11493SOL    HW235058   7.415   9.558   6.093  2.5674 -1.4532  0.7167
11494SOL     OW35059   6.694   1.767   9.642 -0.8339 -0.5811  0.4325
11494SOL    HW135060   6.679   1.823   9.718 -2.0630 -1.1326  0.6239
11494SOL    HW235061   6.651   1.685   9.665  1.1786 -1.7401  0.2864
11495SOL     OW35062   9.024   5.262   9.665 -0.3797 -0.0328  0.3911
11495SOL    HW135063   8.997   5.229   9.751 -1.3601  0.4362  0.2807
11495SOL    HW235064   8.947   5.308   9.631  0.8837  2.4310  0.5619
11496SOL     OW35065   8.828   5.746   1.284  0.3212  0.1136  1.1793
11496SOL    HW135066   8.911   5.783   1.254 -0.0437  1.5308  1.8049
11496SOL    HW235067   8.824   5.659   1.244  2.0309  0.0759  1.0355
11497SOL     OW35068   6.194   5.523   6.808 -0.2416 -0.3968 -0.9066
11497SOL    HW135069   6.259   5.520   6.879 -0.5520 -1.1464 -0.6436
11497SOL    HW235070   6.155   5.610   6.815 -0.2205 -0.4372 -0.1971
11498SOL     OW35071   6.637   9.204   5.596 -0.7275  0.7789 -0.3107
11498SOL    HW135072   6.639   9.112   5.623  0.2690  1.3038  1.5293
11498SOL    HW235073   6.572   9.244   5.654  0.2865  1.6141  0.2768
11499SOL     OW35074   2.708   3.521   6.719  0.1746  0.4049  0.0042
11499SOL    HW135075   2.737   3.445   6.669  1.9878  0.4108  0.9467
11499SOL    HW235076   2.635   3.490   6.772 -1.0395  0.1217 -1.7824
11500SOL     OW35077   6.548   5.256   3.413  0.1271  0.3248  0.5354
11500SOL    HW135078   6.553   5.195   3.339  0.2695  2.1031 -0.9784
11500SOL    HW235079   6.637   5.261   3.446 -0.4583 -3.1694  3.2369
11501SOL     OW35080   4.666   6.888   1.111  0.3803 -0.2650  0.0845
11501SOL    HW135081   4.639   6.860   1.024 -1.5945 -1.2903  0.9640
11501SOL    HW235082   4.710   6.811   1.149 -0.6207 -0.5541  0.7071
11502SOL     OW35083   3.217   8.636   3.812 -0.2649  0.0815 -0.0060
11502SOL    HW135084   3.154   8.564   3.818 -0.4152  0.1912 -0.2491
11502SOL    HW235085   3.189   8.686   3.736 -0.5076  0.7341  0.5016
11503SOL     OW35086   9.263   6.546   5.720  0.5548 -0.1617 -0.5854
11503SOL    HW135087   9.266   6.638   5.747 -0.5014  0.0178 -1.0171
11503SOL    HW235088   9.172   6.532   5.692  0.8956 -1.1151 -1.2863
11504SOL     OW35089   0.152   6.282   8.966 -0.4660 -0.0977  0.4160
11504SOL    HW135090   0.226   6.341   8.954  1.0297 -1.4576  2.4245
11504SOL    HW235091   0.075   6.337   8.949  0.9249  1.7033 -0.4258
11505SOL     OW35092   6.176   6.242   4.139  0.3474 -0.3599  0.5888
11505SOL    HW135093   6.125   6.173   4.097 -0.6580  1.4073 -1.2695
11505SOL    HW235094   6.118   6.278   4.206  0.5259 -0.6716  0.9181
11506SOL     OW35095   3.571   7.151   2.690 -0.1045  0.0218  0.0170
11506SOL    HW135096   3.627   7.080   2.657  0.9597  1.8535 -2.3727
11506SOL    HW235097   3.539   7.195   2.611 -2.2741  1.1025  1.4059
11507SOL     OW35098   3.060   2.018   1.785 -0.3707  0.3330 -0.4425
11507SOL    HW135099   3.082   2.007   1.877  0.2584 -1.5250 -0.7607
11507SOL    HW235100   3.006   2.097   1.782  0.4570  1.0170  1.3505
11508SOL     OW35101   0.325   7.823   5.762  0.3467 -0.2345 -0.7122
11508SOL    HW135102   0.285   7.743   5.796  0.6515 -1.3555 -2.7928
11508SOL    HW235103   0.323   7.884   5.835 -3.0789 -0.9532 -0.0232
11509SOL     OW35104   2.649   8.652   4.523 -0.1855  0.2615  0.5216
11509SOL    HW135105   2.678   8.602   4.447 -0.2879  1.7768 -0.5481
11509SOL    HW235106   2.568   8.608   4.551 -1.0651  0.6673 -1.2745
11510SOL     OW35107   8.160   1.763   3.189  0.2525  0.1075 -0.5120
11510SOL    HW135108   8.186   1.816   3.114 -0.6656  1.4848  0.0991
11510SOL    HW235109   8.068   1.743   3.173  0.1344  0.1498  0.0927
11511SOL     OW35110   2.590   2.113   6.078 -0.1326 -0.2803 -0.1081
11511SOL    HW135111   2.620   2.164   6.153 -1.1931 -0.8537  0.7469
11511SOL    HW235112   2.670   2.089   6.031  0.3919  2.3785 -0.7282
11512SOL     OW35113   5.699   2.529   0.282  0.4156  0.0763  0.1045
11512SOL    HW135114   5.631   2.550   0.346 -1.0573  0.1650 -1.4292
11512SOL    HW235115   5.734   2.614   0.254  0.9546  0.0433  0.6508
11513SOL     OW35116   0.723   0.833   6.772 -0.1131  0.2549 -0.6822
11513SOL    HW135117   0.743   0.802   6.860  0.0446  1.7167 -0.1735
11513SOL    HW235118   0.688   0.921   6.785  1.9571  1.3768 -2.1991
11514SOL     OW35119   0.314   0.075   6.925 -0.4632 -0.2345  0.2789
11514SOL    HW135120   0.270   0.032   6.852 -0.4300 -0.5812  0.4599
11514SOL    HW235121   0.334   0.004   6.987 -0.2760  0.0181  0.5147
11515SOL     OW35122   0.262   7.318   1.804 -0.7667  0.5615  0.6351
11515SOL    HW135123   0.332   7.333   1.868 -1.3824 -0.0895  1.4961
11515SOL    HW235124   0.308   7.293   1.724  0.0106  0.7107  1.0198
11516SOL     OW35125   7.295   0.281   6.622  0.2714 -0.5282 -0.1714
11516SOL    HW135126   7.250   0.364   6.605 -0.4874 -1.3242 -2.3187
11516SOL    HW235127   7.316   0.285   6.716 -3.2226  0.3961  0.7311
11517SOL     OW35128   5.506   1.950   1.694 -0.0947  0.5600  0.0886
11517SOL    HW135129   5.513   1.952   1.598  1.0113 -2.0658  0.0354
11517SOL    HW235130   5.412   1.957   1.711 -0.5377 -1.1777 -1.3516
11518SOL     OW35131   3.182   4.121   4.644 -0.3700 -0.1577  0.1710
11518SOL    HW135132   3.228   4.070   4.710 -1.8900  0.8192  2.0878
11518SOL    HW235133   3.251   4.156   4.588  0.7751 -3.4293 -0.6501
11519SOL     OW35134   1.680   8.384   9.277  0.0702 -0.0435  0.1989
11519SOL    HW135135   1.689   8.378   9.372  2.5587  0.1035  0.0327
11519SOL    HW235136   1.691   8.478   9.258 -0.7838 -0.0174 -0.2303
11520SOL     OW35137   3.094   1.796   4.342  0.0255 -0.7675 -0.0652
11520SOL    HW135138   3.136   1.777   4.426 -2.3362  1.0997  1.7075
11520SOL    HW235139   3.150   1.862   4.302  1.4094 -1.9834 -0.2387
11521SOL     OW35140   3.754   9.111   1.836  0.2628  0.4503  0.0480
11521SOL    HW135141   3.666   9.072   1.839  1.1093 -1.5356  1.8171
11521SOL    HW235142   3.784   9.095   1.746 -0.6898 -0.0117 -0.2006
11522SOL     OW35143   5.809   8.091   2.254  0.2756  0.5269 -0.1524
11522SOL    HW135144   5.865   8.123   2.183 -0.6525  2.6926  0.0152
11522SOL    HW235145   5.739   8.043   2.209  1.2054 -0.6134 -0.4647
11523SOL     OW35146   2.313   3.507   8.505 -0.1059  0.1907 -0.6688
11523SOL    HW135147   2.221   3.530   8.508  0.3169  2.1296 -1.3672
11523SOL    HW235148   2.345   3.543   8.422  1.7170  1.4704  0.4925
11524SOL     OW35149   4.613   9.575   6.362 -0.2775 -0.7815  0.3536
11524SOL    HW135150   4.675   9.510   6.396  0.6052  0.3962  1.0896
11524SOL    HW235151   4.601   9.637   6.434 -2.8718 -1.3081  0.4755
11525SOL     OW35152   5.911   1.555   3.608  0.4257 -0.4096 -0.2425
11525SOL    HW135153   5.837   1.592   3.656 -0.1705 -0.8144 -0.8244
11525SOL    HW235154   5.974   1.531   3.676  0.2085  0.3299  0.2315
11526SOL     OW35155   2.935   0.585   6.684 -0.2967 -0.3878  0.2968
11526SOL    HW135156   2.863   0.549   6.632 -1.0185  2.1448 -0.6178
11526SOL    HW235157   2.925   0.680   6.675  3.0003  0.0657  0.3912
11527SOL     OW35158   9.605   7.792   8.914 -0.1671 -0.2913  0.9944
11527SOL    HW135159   9.522   7.832   8.941 -0.8495 -1.1333  0.2107
11527SOL    HW235160   9.594   7.775   8.820  0.5841 -1.1466  1.0491
11528SOL     OW35161   2.142   3.710   2.228 -0.1977 -0.3351  0.2378
11528SOL    HW135162   2.083   3.756   2.287 -1.1922 -2.6155  1.1668
11528SOL    HW235163   2.118   3.741   2.141 -0.9100  0.7448  0.7907
11529SOL     OW35164   3.075   8.534   9.167  0.1437  0.5970 -0.2071
11529SOL    HW135165   3.090   8.622   9.131 -1.9713  0.6792 -1.0440
11529SOL    HW235166   3.082   8.545   9.262  0.8748  1.4638 -0.3516
11530SOL     OW35167   6.451   3.531   9.441 -0.2522 -0.2156  0.3128
11530SOL    HW135168   6.398   3.584   9.500 -4.7101  0.5609 -3.6972
11530SOL    HW235169   6.511   3.594   9.400  2.0435 -0.5610  2.8381
11531SOL     OW35170   0.108   9.180   3.285 -0.2822  0.5065  0.0937
11531SOL    HW135171   0.062   9.127   3.219 -0.4863  0.9945 -0.1579
11531SOL    HW235172   0.070   9.151   3.369  0.3991 -0.5434  0.0614
11532SOL     OW35173   6.622   4.372   7.975 -0.2689 -0.2458 -0.1008
11532SOL    HW135174   6.652   4.369   7.885 -0.1092  1.3387 -0.1381
11532SOL    HW235175   6.695   4.410   8.024 -0.3795 -1.0131  0.6938
11533SOL     OW35176   3.633   5.482   0.926  0.0775  0.1469 -0.5942
11533SOL    HW135177   3.611   5.440   0.843  0.0552 -0.8008 -0.1254
11533SOL    HW235178   3.703   5.428   0.962  0.1681  0.6162 -0.0531
11534SOL     OW35179   3.886   7.181   8.511 -0.2149 -0.4363 -0.3232
11534SOL    HW135180   3.946   7.245   8.549  0.8120 -0.9169 -1.0866
11534SOL    HW235181   3.892   7.195   8.417  0.2717 -1.8490 -0.5249
11535SOL     OW35182   8.119   7.461   8.986 -0.3552  0.5382  0.1413
11535SOL    HW135183   8.144   7.467   9.078  0.9378  1.6190 -0.2499
11535SOL    HW235184   8.179   7.396   8.949 -0.5553  0.4639 -0.0567
11536SOL     OW35185   0.455   6.491   3.847 -0.1130  0.2825 -0.1387
11536SOL    HW135186   0.487   6.575   3.880  1.3006 -0.2827  0.0321
11536SOL    HW235187   0.535   6.441   3.831 -0.8217 -0.1649 -2.5939
11537SOL     OW35188   1.230   2.845   2.217  0.5331  0.4754  0.1578
11537SOL    HW135189   1.231   2.818   2.125 -0.1911  0.0026  0.2855
11537SOL    HW235190   1.265   2.770   2.265 -0.8624 -0.0192  0.4460
11538SOL     OW35191   5.608   5.519   0.091  0.1000  0.0873 -0.4290
11538SOL    HW135192   5.544   5.480   0.032 -0.5064  0.0944  0.2065
11538SOL    HW235193   5.645   5.592   0.041 -1.9273  1.4339 -0.0917
11539SOL     OW35194   8.111   8.597   5.357 -0.3260  0.2083 -0.4095
11539SOL    HW135195   8.191   8.633   5.320 -0.1156 -0.0931 -0.2529
11539SOL    HW235196   8.040   8.637   5.307 -0.0346 -0.5471 -1.4635
11540SOL     OW35197   0.319   1.985   0.035 -0.2225  0.1019  1.0270
11540SOL    HW135198   0.388   2.047   0.057 -1.7490  1.8500  1.1719
11540SOL    HW235199   0.321   1.978  -0.060  0.0852  0.2302  1.0250
11541SOL     OW35200   1.703   8.624   3.739 -0.5271 -0.0434  0.6175
11541SOL    HW135201   1.759   8.701   3.732  0.2243 -0.5884  0.5919
11541SOL    HW235202   1.684   8.599   3.648  1.2854 -1.3548  0.5448
11542SOL     OW35203   7.345   7.660   1.403 -0.2000  0.2169 -0.3293
11542SOL    HW135204   7.429   7.694   1.372  0.2032 -0.3726  0.1008
11542SOL    HW235205   7.328   7.585   1.346 -0.3991  0.2939 -0.3701
11543SOL     OW35206   8.790   5.454   1.254 -0.0495  0.5531 -0.2421
11543SOL    HW135207   8.769   5.485   1.167  0.1252  0.8468 -0.1821
11543SOL    HW235208   8.709   5.416   1.287  0.1315 -0.4292 -0.8944
11544SOL     OW35209   5.653   0.772   6.854  0.2112 -0.1721  0.3548
11544SOL    HW135210   5.588   0.818   6.907  0.6208 -1.3638  1.9637
11544SOL    HW235211   5.732   0.770   6.908  0.9892 -0.4738 -0.7521
11545SOL     OW35212   1.103   8.109   8.092  0.4047 -0.4845 -0.1869
11545SOL    HW135213   1.037   8.179   8.104  0.0825 -1.1285  2.6126
11545SOL    HW235214   1.137   8.123   8.004 -1.3622  1.7261 -0.6241
11546SOL     OW35215   3.466   1.935   3.900 -0.0104  0.2414 -0.9624
11546SOL    HW135216   3.380   1.963   3.869 -0.2963  1.0514  0.4997
11546SOL    HW235217   3.448   1.884   3.978  0.8307  0.3303 -0.7031
11547SOL     OW35218   8.173   8.695   0.950  0.5448 -0.2533 -0.8640
11547SOL    HW135219   8.266   8.685   0.934  0.0818 -2.0123 -2.9744
11547SOL    HW235220   8.152   8.629   1.016  0.8829  0.5610  0.0651
11548SOL     OW35221   2.766   0.517   4.639  0.1605  0.1497 -0.5451
11548SOL    HW135222   2.732   0.474   4.561 -0.2613 -1.2420  0.3553
11548SOL    HW235223   2.766   0.611   4.618 -0.0936 -0.1886 -2.1254
11549SOL     OW35224   1.469   7.479   9.943  0.2885 -0.9789  0.3627
11549SOL    HW135225   1.407   7.467   9.871  0.3409  0.0552  0.1390
11549SOL    HW235226   1.534   7.410   9.930  0.8573 -0.2042 -1.1798
11550SOL     OW35227   2.088   0.518   2.078  0.1128 -0.3562  0.1582
11550SOL    HW135228   2.115   0.606   2.052  0.2299  0.4748  2.8423
11550SOL    HW235229   2.147   0.459   2.031 -0.1347  0.9309 -1.8818
11551SOL     OW35230   3.798   6.905   7.271 -0.4145 -0.1327  0.1219
11551SOL    HW135231   3.765   6.951   7.348  1.5301  1.1811  0.2438
11551SOL    HW235232   3.761   6.817   7.278 -0.0685 -0.1431  2.7193
11552SOL     OW35233   8.307   0.229   4.069  0.0486  0.4775 -0.7079
11552SOL    HW135234   8.402   0.236   4.079  0.2419  0.0579 -2.0379
11552SOL    HW235235   8.273   0.239   4.158  1.4500 -1.2046  0.0891
11553SOL     OW35236   8.360   5.440   5.660 -0.6397  0.1374 -0.1152
11553SOL    HW135237   8.353   5.497   5.737 -1.3953 -1.3353  0.9746
11553SOL    HW235238   8.278   5.454   5.612 -0.7606  0.0824  0.0736
11554SOL     OW35239   5.477   0.612   3.183 -0.1705 -0.1969 -0.3267
11554SOL    HW135240   5.391   0.618   3.223 -0.1376 -1.3339 -0.0713
11554SOL    HW235241   5.539   0.628   3.254 -0.1465  2.3815 -0.8242
11555SOL     OW35242   5.094   0.668   5.511 -0.0645  0.3604  0.3265
11555SOL    HW135243   5.013   0.690   5.466 -0.8603 -0.6751  1.1980
11555SOL    HW235244   5.115   0.580   5.480  0.6035  0.5251  0.2940
11556SOL     OW35245   2.710   2.832   8.044  0.0381  0.3672 -0.8249
11556SOL    HW135246   2.725   2.915   7.997 -0.2023  0.7006 -0.3214
11556SOL    HW235247   2.751   2.844   8.129 -0.2680  0.0836 -0.6331
11557SOL     OW35248   7.927   7.984   6.395 -0.0165  0.2097 -0.2707
11557SOL    HW135249   7.876   8.062   6.373  0.5243  1.0510  1.3429
11557SOL    HW235250   7.870   7.935   6.455  0.4794  0.4518  0.4147
11558SOL     OW35251   8.408   4.128   0.349  0.3542 -0.3375 -0.3325
11558SOL    HW135252   8.451   4.096   0.427  0.0661  0.9437  0.3780
11558SOL    HW235253   8.464   4.199   0.317 -0.2977  0.1597 -0.4074
11559SOL     OW35254   7.716   4.819   4.163  0.0351  0.4263 -0.0295
11559SOL    HW135255   7.664   4.824   4.083 -0.5300 -0.4300  0.2612
11559SOL    HW235256   7.663   4.765   4.222 -0.0519  1.9165  1.3097
11560SOL     OW35257   1.410   4.883   7.097 -0.4067 -0.6239  0.2062
11560SOL    HW135258   1.473   4.924   7.038 -1.6929 -0.0051 -0.7880
11560SOL    HW235259   1.420   4.930   7.180  1.2310 -1.3225  0.4309
11561SOL     OW35260   2.487   9.538   8.170 -0.3838  0.0964 -0.3742
11561SOL    HW135261   2.396   9.511   8.183 -0.6224 -1.0053 -3.4795
11561SOL    HW235262   2.529   9.521   8.254 -2.3364 -2.4884  0.2203
11562SOL     OW35263   5.232   1.347   8.692 -0.2274 -0.6314 -0.2067
11562SOL    HW135264   5.222   1.365   8.599  1.2208 -1.6749 -0.5945
11562SOL    HW235265   5.323   1.371   8.712 -0.7109  0.2664  1.1197
11563SOL     OW35266   9.839   5.242   5.529  0.2029  0.1352  0.3731
11563SOL    HW135267   9.897   5.283   5.465 -0.2832  1.7545  0.9081
11563SOL    HW235268   9.859   5.148   5.524  0.8206  0.3311 -1.4671
11564SOL     OW35269   0.956   0.144   8.008 -0.7156 -0.3045  0.0719
11564SOL    HW135270   0.995   0.077   7.953 -2.2156 -1.7063  0.6392
11564SOL    HW235271   0.953   0.104   8.096 -1.6998  0.4444  0.4029
11565SOL     OW35272   8.499   4.571   3.353 -0.2976 -0.5276 -0.4791
11565SOL    HW135273   8.542   4.651   3.383 -0.5589 -0.1536 -1.0972
11565SOL    HW235274   8.411   4.599   3.328 -1.2817 -1.4332  1.6745
11566SOL     OW35275   6.472   3.903   0.018  0.0417 -0.2852 -0.2459
11566SOL    HW135276   6.472   3.808   0.010  1.5659 -0.1751 -2.5863
11566SOL    HW235277   6.556   3.930  -0.017 -1.1026  2.0320 -1.4214
11567SOL     OW35278   2.133   1.502   0.053 -0.6345 -0.4863  0.4379
11567SOL    HW135279   2.152   1.443   0.125 -0.8126 -1.0014  0.0693
11567SOL    HW235280   2.165   1.587   0.082 -0.0305 -0.8422  0.8149
11568SOL     OW35281   7.132   6.945   9.205  0.1907 -0.4289  0.0304
11568SOL    HW135282   7.188   6.870   9.225  1.7654  0.6959  0.0265
11568SOL    HW235283   7.137   7.000   9.284  1.8682  1.3052 -1.1927
11569SOL     OW35284   8.186   6.489   6.199 -0.2841 -0.2251  0.1951
11569SOL    HW135285   8.097   6.454   6.190 -1.2625  1.9257  0.8858
11569SOL    HW235286   8.209   6.471   6.290 -1.2295  1.6935  0.8866
11570SOL     OW35287   0.076   5.751   2.285 -0.3371  0.0879 -0.4779
11570SOL    HW135288   0.141   5.696   2.329  1.6052  2.7793  0.3010
11570SOL    HW235289   0.001   5.693   2.270 -0.5496 -1.5279  4.8083
11571SOL     OW35290   3.321   3.207   3.535 -0.8487  0.3061 -0.2685
11571SOL    HW135291   3.317   3.233   3.628  1.4371 -0.7523  0.2022
11571SOL    HW235292   3.290   3.116   3.535 -2.6791  0.8891 -0.8965
11572SOL     OW35293   3.884   9.146   5.970  0.0676  0.2266  0.5205
11572SOL    HW135294   3.834   9.139   5.888 -0.6183 -0.5254  0.9835
11572SOL    HW235295   3.823   9.114   6.037  0.3993  1.4056  1.4120
11573SOL     OW35296   4.808   5.792   8.537  0.4413  0.4490  0.6766
11573SOL    HW135297   4.800   5.880   8.574  0.7880  0.2999  1.1070
11573SOL    HW235298   4.827   5.736   8.612 -1.4480 -0.2595  0.6685
11574SOL     OW35299   7.239   3.189   0.139  0.1370  0.3945 -0.1862
11574SOL    HW135300   7.227   3.119   0.203  1.1963  0.7465  0.4269
11574SOL    HW235301   7.154   3.234   0.136  0.4060  1.1329  1.9052
11575SOL     OW35302   2.166   8.666   4.834 -0.5248 -0.3323  0.3439
11575SOL    HW135303   2.171   8.729   4.762 -0.7136  0.2926  0.8679
11575SOL    HW235304   2.136   8.585   4.793  0.0714 -0.1859 -0.4034
11576SOL     OW35305   7.351   5.837   5.194 -0.8090  0.5560 -0.1384
11576SOL    HW135306   7.354   5.932   5.204  0.6990  0.5594 -0.4267
11576SOL    HW235307   7.269   5.811   5.237  0.7246  1.5363  3.7884
11577SOL     OW35308   3.929   0.363   7.520 -0.3871 -0.3811 -0.0380
11577SOL    HW135309   3.971   0.364   7.606 -1.0778  0.0907  0.3122
11577SOL    HW235310   3.891   0.275   7.513  0.0230 -0.5604 -0.0444
11578SOL     OW35311   7.648   8.187   6.095  0.3008  0.5577  0.4776
11578SOL    HW135312   7.677   8.267   6.138 -0.7637 -0.3436  3.0712
11578SOL    HW235313   7.556   8.178   6.120  0.0849 -0.8727 -0.7067
11579SOL     OW35314   6.258   4.340   8.294  0.0672  0.0445  0.5013
11579SOL    HW135315   6.311   4.342   8.214  0.5310 -0.7876  0.7657
11579SOL    HW235316   6.319   4.311   8.361 -0.9293 -1.9282  0.6338
11580SOL     OW35317   1.455   3.762   0.904  0.2761 -0.2274 -0.0213
11580SOL    HW135318   1.523   3.698   0.884  0.7834  0.3042 -0.0279
11580SOL    HW235319   1.382   3.710   0.936 -0.2861 -1.0786 -2.4649
11581SOL     OW35320   5.696   2.481   6.396  0.4103 -0.3603 -0.0269
11581SOL    HW135321   5.678   2.438   6.479 -1.4074  1.2292  0.4943
11581SOL    HW235322   5.610   2.510   6.365  1.0924 -0.5431 -2.2714
11582SOL     OW35323   8.216   1.414   7.432  0.2654 -0.1588  0.2471
11582SOL    HW135324   8.236   1.331   7.475  0.9770 -0.0813  0.0702
11582SOL    HW235325   8.255   1.406   7.345 -0.4526  0.0074 -0.1056
11583SOL     OW35326   8.442   6.438   2.318 -0.3591 -0.0602  0.4124
11583SOL    HW135327   8.365   6.446   2.263 -2.9579 -2.5919  3.2544
11583SOL    HW235328   8.420   6.370   2.381  2.6410  1.8374  3.9925
11584SOL     OW35329   7.204   0.015   5.212 -0.4501  0.1250 -0.1496
11584SOL    HW135330   7.140   0.075   5.249  0.6866  0.5389  1.2079
11584SOL    HW235331   7.180  -0.071   5.247  1.3635  0.6801  2.7696
11585SOL     OW35332   2.119   9.538   0.469  0.3046  0.3689 -0.0759
11585SOL    HW135333   2.178   9.507   0.537 -0.7682  0.5044  0.9525
11585SOL    HW235334   2.082   9.619   0.505 -1.1664 -0.1819 -0.2966
11586SOL     OW35335   1.859   9.697   6.461  0.3229  0.5718 -0.1111
11586SOL    HW135336   1.839   9.661   6.374 -0.7686  0.0645  0.3290
11586SOL    HW235337   1.949   9.728   6.454  0.3375  0.3027 -1.3501
11587SOL     OW35338   8.508   2.242   6.725  0.4098  0.3169  0.0788
11587SOL    HW135339   8.494   2.210   6.636 -1.7558  0.8968  0.1562
11587SOL    HW235340   8.600   2.222   6.743 -0.1179 -3.7125 -0.7292
11588SOL     OW35341   7.627   1.938   0.969  0.0844  0.4725 -0.1264
11588SOL    HW135342   7.595   1.893   1.048 -0.3260  2.0570  0.6430
11588SOL    HW235343   7.602   1.880   0.897  0.5721 -1.0636  0.8940
11589SOL     OW35344   1.571   0.846   7.512  0.1737  0.3649 -0.1514
11589SOL    HW135345   1.595   0.909   7.444  2.0013  0.3972  0.4767
11589SOL    HW235346   1.583   0.893   7.594  0.0009 -0.3233  0.2774
11590SOL     OW35347   6.778   4.372   7.382 -0.0556 -0.2265  0.3545
11590SOL    HW135348   6.861   4.393   7.425  0.4871 -1.4633 -0.0461
11590SOL    HW235349   6.765   4.443   7.320  1.5800 -0.8575 -0.7837
11591SOL     OW35350   1.072   6.420   5.035  0.4323 -0.4193  0.5232
11591SOL    HW135351   0.994   6.404   4.982  0.3203 -0.9632  0.8468
11591SOL    HW235352   1.077   6.345   5.094  1.8709 -1.0000 -0.3023
11592SOL     OW35353   4.923   1.770   5.554  0.4561 -0.2700 -0.5957
11592SOL    HW135354   4.947   1.856   5.521  1.1157 -0.2476 -0.0823
11592SOL    HW235355   4.829   1.775   5.571  0.7431  0.8062  0.7842
11593SOL     OW35356   7.162   2.927   5.781 -0.0357  0.5616  0.3207
11593SOL    HW135357   7.123   2.970   5.856  0.2617  0.2829  0.6396
11593SOL    HW235358   7.248   2.899   5.811  0.5950  1.5510 -0.5093
11594SOL     OW35359   4.801   4.778   3.347 -0.3128  0.6424 -0.4326
11594SOL    HW135360   4.846   4.814   3.424  0.8637  0.1993 -0.8886
11594SOL    HW235361   4.765   4.695   3.377 -0.6856  0.9182 -0.1064
11595SOL     OW35362   6.981   0.068   8.592 -0.2286 -0.0671  0.5536
11595SOL    HW135363   6.937   0.152   8.607 -0.6969 -0.3729  0.9732
11595SOL    HW235364   7.014   0.043   8.678 -0.1992 -0.3704  0.4557
11596SOL     OW35365   2.772   2.011   7.616  0.1453 -0.1686 -0.6129
11596SOL    HW135366   2.729   2.076   7.672  0.4945  0.0463 -0.5848
11596SOL    HW235367   2.811   2.063   7.546  0.8962 -0.2801 -0.2915
11597SOL     OW35368   8.637   6.687   3.599 -0.2425 -0.0338  0.4318
11597SOL    HW135369   8.609   6.604   3.562 -0.3743  0.3600 -0.3842
11597SOL    HW235370   8.581   6.699   3.676 -0.6571 -0.3973  0.1915
11598SOL     OW35371   0.759   2.886   6.245 -0.0103 -0.0595  0.5057
11598SOL    HW135372   0.758   2.957   6.181  0.7103  0.1395  0.6993
11598SOL    HW235373   0.785   2.929   6.327 -1.2091 -0.2572  1.0094
11599SOL     OW35374   1.816   1.690   4.319  0.4726 -0.3765 -0.3704
11599SOL    HW135375   1.805   1.748   4.394  0.4133 -0.8313 -0.0241
11599SOL    HW235376   1.775   1.736   4.246 -1.7407 -1.0309  0.4060
11600SOL     OW35377   8.255   1.886   7.432  0.3252  0.3179  0.3987
11600SOL    HW135378   8.173   1.838   7.426 -0.1416  0.9420  1.5248
11600SOL    HW235379   8.230   1.978   7.421  1.0578  0.4071 -0.6103
11601SOL     OW35380   2.229   0.256   8.976 -0.3391 -0.1341  0.1382
11601SOL    HW135381   2.239   0.346   8.944 -0.9761 -0.1027  0.0207
11601SOL    HW235382   2.191   0.266   9.063  0.2901 -0.2672  0.4375
11602SOL     OW35383   8.181   3.766   7.390  0.0264 -0.3224  0.2274
11602SOL    HW135384   8.239   3.832   7.426  1.4542 -1.2742 -0.2328
11602SOL    HW235385   8.167   3.794   7.299 -0.8530  0.2980  0.5454
11603SOL     OW35386   9.972   4.932   6.063 -0.2633 -0.1587  0.3277
11603SOL    HW135387   9.885   4.911   6.096 -0.5252  1.6336  0.8500
11603SOL    HW235388  10.000   5.009   6.113  1.4608 -0.4399 -0.1121
11604SOL     OW35389   8.270   7.154   0.771 -0.2658  0.2088 -0.0709
11604SOL    HW135390   8.331   7.146   0.844  0.0593 -0.4727 -0.4113
11604SOL    HW235391   8.314   7.213   0.709  0.1654 -0.4802 -0.4287
11605SOL     OW35392   5.644   0.913   9.884  0.1494 -0.6425 -0.7528
11605SOL    HW135393   5.617   0.974   9.953 -0.9755 -1.0813 -0.7880
11605SOL    HW235394   5.587   0.837   9.895 -0.4816 -0.4854 -2.5300
11606SOL     OW35395   5.566   6.525   2.337  0.4742  0.1738  0.2507
11606SOL    HW135396   5.631   6.548   2.403  1.0437 -1.1520  0.1858
11606SOL    HW235397   5.517   6.452   2.374  0.3002 -0.0974 -0.4829
11607SOL     OW35398   3.363   9.395   2.823 -0.2362  0.8496  0.1082
11607SOL    HW135399   3.412   9.322   2.861 -2.3252 -0.7239  0.0250
11607SOL    HW235400   3.411   9.473   2.848  2.4158 -0.5555 -0.2452
11608SOL     OW35401   1.828   7.433   0.180 -0.2892  0.0600 -1.0646
11608SOL    HW135402   1.886   7.361   0.206  1.0119  1.3922 -0.1378
11608SOL    HW235403   1.746   7.389   0.154  0.4575 -1.7421 -0.5490
11609SOL     OW35404   4.688   9.537   0.228 -0.1249 -0.1161  0.0518
11609SOL    HW135405   4.721   9.479   0.296  1.0555 -1.5200 -1.6382
11609SOL    HW235406   4.757   9.538   0.161 -0.6823  2.2167 -0.5852
11610SOL     OW35407   1.975   3.650   1.272  0.4231 -0.1378 -0.0243
11610SOL    HW135408   1.908   3.705   1.314 -0.3655  0.2176 -1.6660
11610SOL    HW235409   1.974   3.569   1.323 -1.8740 -0.4585 -0.4442
11611SOL     OW35410   9.228   2.886   7.778  0.3939 -0.0085  0.3569
11611SOL    HW135411   9.221   2.863   7.685  0.6384  0.9876  0.0760
11611SOL    HW235412   9.176   2.966   7.786 -0.5339 -0.6796  1.3212
11612SOL     OW35413   7.320   8.054   7.065  0.2016  0.5876 -0.2696
11612SOL    HW135414   7.311   7.958   7.063 -2.6204  0.7775 -0.6897
11612SOL    HW235415   7.401   8.071   7.017  1.0531 -1.5866  0.2394
11613SOL     OW35416   4.497   1.615   7.841  0.2092  0.5679  0.1241
11613SOL    HW135417   4.439   1.581   7.909 -0.6512  1.7845  0.0259
11613SOL    HW235418   4.523   1.702   7.873  0.5817  0.7470 -0.6528
11614SOL     OW35419   9.568   6.328   9.045 -0.0268  0.0140  0.4636
11614SOL    HW135420   9.530   6.352   8.961  1.5128  1.3891  0.1175
11614SOL    HW235421   9.572   6.232   9.043 -0.9112 -0.0119 -0.6044
11615SOL     OW35422   6.819   1.083   9.539  0.2496 -0.2471 -0.0245
11615SOL    HW135423   6.866   1.000   9.527 -0.1532 -0.1533 -2.8736
11615SOL    HW235424   6.879   1.149   9.505  0.0736  0.5213  1.1042
11616SOL     OW35425   1.992   1.826   4.071  0.0037 -0.2645 -0.3225
11616SOL    HW135426   1.901   1.826   4.041 -0.3018 -1.8171  0.4841
11616SOL    HW235427   2.030   1.747   4.033  1.0473  0.4050 -0.7037
11617SOL     OW35428   5.183   6.239   9.397 -0.4942 -0.1393  0.2892
11617SOL    HW135429   5.098   6.270   9.367  0.3974  1.1794 -1.0184
11617SOL    HW235430   5.210   6.175   9.330 -0.8140 -1.2245  1.1649
11618SOL     OW35431   0.843   3.549   1.009 -0.4074 -0.3650  1.2136
11618SOL    HW135432   0.833   3.513   1.097 -0.8371 -3.0884  0.1307
11618SOL    HW235433   0.820   3.477   0.950 -0.1438  1.3603 -1.1568
11619SOL     OW35434   2.961   3.382   7.161 -0.6296  0.8101 -0.2701
11619SOL    HW135435   2.873   3.415   7.183 -1.1339 -0.9855  0.6478
11619SOL    HW235436   3.016   3.460   7.159 -1.7728  1.7436  1.6421
11620SOL     OW35437   4.542   8.924   0.582  0.5848  0.7010 -0.0107
11620SOL    HW135438   4.474   8.935   0.516  0.7552  2.3388  0.0419
11620SOL    HW235439   4.624   8.934   0.534  0.7636 -0.0290  0.1326
11621SOL     OW35440   9.184   2.453   4.971  0.6066  0.4111 -0.0918
11621SOL    HW135441   9.184   2.370   4.924 -1.2530  0.5436 -0.3860
11621SOL    HW235442   9.219   2.517   4.909  3.6243 -0.3508  0.6617
11622SOL     OW35443   3.640   8.945   4.246  0.5251  0.4599 -0.1909
11622SOL    HW135444   3.545   8.950   4.260  0.5167  1.4623 -0.5108
11622SOL    HW235445   3.649   8.900   4.163  0.4403 -1.8734  0.9740
11623SOL     OW35446   4.177   5.976   3.068 -0.3145 -0.0641  0.1991
11623SOL    HW135447   4.234   6.051   3.084  0.8040 -0.9432  0.4966
11623SOL    HW235448   4.141   5.991   2.981  0.0493  0.7133  0.1734
11624SOL     OW35449   6.875   9.419   9.715  0.0433 -0.1288 -0.0146
11624SOL    HW135450   6.800   9.402   9.658  0.1807  0.4157 -0.3639
11624SOL    HW235451   6.859   9.366   9.793 -1.2256  0.7746  0.3592
11625SOL     OW35452   7.160   7.597   9.261  0.2427  0.4615 -0.4023
11625SOL    HW135453   7.146   7.605   9.167  0.1961  0.5546 -0.3884
11625SOL    HW235454   7.121   7.677   9.297  0.9769  0.8130 -0.3819
11626SOL     OW35455   6.660   0.980   5.982 -0.1686 -0.3422 -0.4146
11626SOL    HW135456   6.739   1.031   5.964 -0.1001  0.0635  0.9547
11626SOL    HW235457   6.638   1.000   6.073 -1.2003 -1.3321 -0.4205
11627SOL     OW35458   1.501   4.879   8.927  0.0489  0.3021 -0.2944
11627SOL    HW135459   1.554   4.850   8.853 -0.3111  0.3891 -0.5908
11627SOL    HW235460   1.507   4.975   8.925  0.6075  0.2876  0.2175
11628SOL     OW35461   5.303   7.173   3.035 -0.6971  0.2827 -0.2839
11628SOL    HW135462   5.368   7.243   3.040 -1.1729  0.7301 -0.3167
11628SOL    HW235463   5.351   7.099   2.998 -0.4718  0.9524 -1.3798
11629SOL     OW35464   3.913   2.157   0.217  0.0391 -0.2034  0.1798
11629SOL    HW135465   3.985   2.220   0.223  0.4444 -0.6354 -0.0706
11629SOL    HW235466   3.902   2.143   0.123 -1.7424  1.4014  0.0906
11630SOL     OW35467   9.726   9.227   8.837  0.0953  0.6628  0.2559
11630SOL    HW135468   9.659   9.201   8.773 -0.4968  0.1703  1.0556
11630SOL    HW235469   9.677   9.275   8.903  0.9184  2.4388 -0.3608
11631SOL     OW35470   4.147   0.904   0.677  0.3062  0.0239  0.0170
11631SOL    HW135471   4.114   0.947   0.756  1.7654 -1.8313  1.7673
11631SOL    HW235472   4.101   0.820   0.674 -0.2518  0.3635 -1.5503
11632SOL     OW35473   0.292   9.599   9.481  0.8909 -0.0060  0.0026
11632SOL    HW135474   0.356   9.566   9.545 -1.7026 -3.9704  0.8958
11632SOL    HW235475   0.278   9.525   9.422 -2.9013  0.5909 -0.0497
11633SOL     OW35476   6.328   6.806   2.396  0.3807  0.4672 -0.0647
11633SOL    HW135477   6.363   6.873   2.337  0.7058  0.3145 -0.0471
11633SOL    HW235478   6.383   6.729   2.380  0.5573  0.4626  0.5280
11634SOL     OW35479   0.553   6.895   8.811  0.0532 -0.2076 -0.5545
11634SOL    HW135480   0.487   6.956   8.844 -1.6798 -1.8975 -0.7207
11634SOL    HW235481   0.503   6.830   8.763  1.7163 -2.2901  0.3845
11635SOL     OW35482   7.867   0.170   4.182  0.1833 -0.6077  0.6724
11635SOL    HW135483   7.905   0.207   4.262  0.7531  0.9526 -0.2848
11635SOL    HW235484   7.776   0.202   4.183  0.4790  0.2767  0.1981
11636SOL     OW35485   5.031   3.349   3.297 -0.2055 -0.5102  0.0474
11636SOL    HW135486   4.997   3.262   3.273  0.6802 -0.4960 -1.4191
11636SOL    HW235487   5.125   3.336   3.304 -0.1503  0.1798  0.5703
11637SOL     OW35488   0.850   4.340   2.335  0.4890  0.2253  0.4464
11637SOL    HW135489   0.927   4.292   2.304 -0.6321 -0.7525 -0.9582
11637SOL    HW235490   0.776   4.298   2.291 -0.7963  1.5947  1.2005
11638SOL     OW35491   2.471   6.088   0.073  0.4949 -0.1339 -0.9778
11638SOL    HW135492   2.477   5.993   0.061  0.8010 -0.1798 -0.5000
11638SOL    HW235493   2.449   6.099   0.166  0.3033  0.2575 -1.0701
11639SOL     OW35494   3.270   3.439   1.725  0.4994 -0.1559  0.0152
11639SOL    HW135495   3.328   3.491   1.669  0.3437  0.2306  0.2119
11639SOL    HW235496   3.301   3.349   1.714  0.1274 -0.1599 -1.1246
11640SOL     OW35497   6.384   9.797   7.223  0.2916 -0.4320  0.1500
11640SOL    HW135498   6.378   9.761   7.135  2.2010  1.2205 -0.7674
11640SOL    HW235499   6.319   9.867   7.225 -0.5677 -1.2305  0.4852
11641SOL     OW35500   9.396   9.264   7.488  0.5442 -0.1036 -0.2219
11641SOL    HW135501   9.484   9.244   7.521  0.6311  1.6505  0.7279
11641SOL    HW235502   9.411   9.298   7.399  0.7190 -0.7648 -0.4497
11642SOL     OW35503   1.312   7.801   7.894  0.4255 -0.6982  0.1475
11642SOL    HW135504   1.324   7.819   7.988 -0.3765 -1.8178  0.4863
11642SOL    HW235505   1.368   7.725   7.878  0.0015 -0.9519 -0.1186
11643SOL     OW35506   1.278   1.871   2.746  0.0346  0.2797 -0.0256
11643SOL    HW135507   1.218   1.940   2.718  2.1281  1.5325 -1.7732
11643SOL    HW235508   1.226   1.791   2.743 -1.5349  1.2846 -1.5056
11644SOL     OW35509   3.697   8.667   1.944  0.1129  0.5575  0.2192
11644SOL    HW135510   3.684   8.696   1.853  1.0314 -0.3061 -0.2082
11644SOL    HW235511   3.676   8.744   1.997  1.9491  1.8827 -0.8389
11645SOL     OW35512   9.265   5.394   5.096 -0.2517 -0.3114  0.4093
11645SOL    HW135513   9.292   5.439   5.016 -2.6729 -1.3629 -1.0943
11645SOL    HW235514   9.345   5.352   5.128  0.6280 -0.5421 -1.9121
11646SOL     OW35515   6.852   8.339   9.629 -0.0750  0.1067  0.7610
11646SOL    HW135516   6.777   8.291   9.594 -0.2443  0.6815  0.2969
11646SOL    HW235517   6.855   8.317   9.722  1.9185 -3.4986  0.0197
11647SOL     OW35518   3.659   1.120   5.927  0.2275  0.6235 -0.3727
11647SOL    HW135519   3.600   1.052   5.895 -3.0825  2.6692  0.8702
11647SOL    HW235520   3.744   1.100   5.886 -0.7469 -3.6497 -0.6952
11648SOL     OW35521   1.600   3.255   7.436  0.0178  0.3197 -0.5934
11648SOL    HW135522   1.505   3.265   7.450 -0.0590  1.8187 -1.9390
11648SOL    HW235523   1.608   3.227   7.345  0.8964  0.2630 -0.5066
11649SOL     OW35524   2.985   7.804   0.648 -0.6177  0.6246  0.3229
11649SOL    HW135525   3.011   7.827   0.558 -2.9741 -1.4200 -1.0088
11649SOL    HW235526   2.923   7.872   0.673 -0.8246  0.5771 -0.0510
11650SOL     OW35527   7.558   9.658   7.996 -0.0668  0.1788 -0.0833
11650SOL    HW135528   7.606   9.681   7.916 -0.0379  0.6395  0.0667
11650SOL    HW235529   7.552   9.740   8.045  1.7257 -0.4843  1.3735
11651SOL     OW35530   2.165   8.097   1.835  0.4026  0.4210 -0.3344
11651SOL    HW135531   2.244   8.135   1.796  0.9739  0.0449  0.4335
11651SOL    HW235532   2.126   8.170   1.884  0.0932  0.6927 -0.9821
11652SOL     OW35533   0.360   5.965   9.204 -0.4326  0.4423 -0.3492
11652SOL    HW135534   0.316   5.897   9.256 -0.2531  0.6189  0.0387
11652SOL    HW235535   0.416   6.011   9.267 -1.9535  2.1657 -0.1677
11653SOL     OW35536   0.719   5.543   4.993 -0.2577 -0.1321  0.1077
11653SOL    HW135537   0.748   5.605   4.927 -3.2942  0.5421 -0.7517
11653SOL    HW235538   0.781   5.554   5.066  2.3680  0.0622 -2.0213
11654SOL     OW35539   7.569   5.434   3.066  0.2639  0.2755  0.5154
11654SOL    HW135540   7.534   5.373   3.001 -1.0164 -0.0995  1.5128
11654SOL    HW235541   7.582   5.516   3.019 -2.1703  0.4863  0.1084
11655SOL     OW35542   4.752   7.579   3.383  0.5272 -0.1819  0.1210
11655SOL    HW135543   4.723   7.670   3.382 -0.5667 -0.5200 -0.0430
11655SOL    HW235544   4.770   7.558   3.291 -0.3090 -0.4537  0.0091
11656SOL     OW35545   9.484   4.666   3.781 -0.0630 -0.0633  0.3861
11656SOL    HW135546   9.432   4.724   3.837  0.1460 -0.7912  1.3592
11656SOL    HW235547   9.562   4.646   3.833  1.1468  0.8945 -0.9972
11657SOL     OW35548   8.912   7.635   5.224 -0.0102  0.1863 -0.5258
11657SOL    HW135549   8.993   7.595   5.256  0.3370  1.7759  0.7123
11657SOL    HW235550   8.917   7.626   5.129  0.5553 -1.6820 -0.3620
11658SOL     OW35551   4.293   2.728   8.483 -0.2014  0.1086  0.6541
11658SOL    HW135552   4.328   2.755   8.568 -0.9860 -1.5343  1.5561
11658SOL    HW235553   4.228   2.795   8.461 -0.4606  0.2144  1.6769
11659SOL     OW35554   7.502   0.262   3.313  0.2024  0.1622  0.5350
11659SOL    HW135555   7.434   0.324   3.288 -0.2443  0.0105  1.3257
11659SOL    HW235556   7.459   0.202   3.375  0.2518 -1.7960 -1.2291
11660SOL     OW35557   8.737   3.244   5.968 -0.4353  0.3424 -0.2655
11660SOL    HW135558   8.651   3.227   5.931 -0.0072  0.6005 -1.4251
11660SOL    HW235559   8.728   3.330   6.009 -0.3721  1.0578 -1.6616
11661SOL     OW35560   1.561   9.948   0.111  0.9640  0.6806 -0.0578
11661SOL    HW135561   1.539   9.970   0.021 -2.4930 -1.7773 -0.0093
11661SOL    HW235562   1.499   9.999   0.164  2.8577  1.9881  1.0373
11662SOL     OW35563   7.664   9.828   0.240  0.1794 -0.4291  0.0458
11662SOL    HW135564   7.646   9.828   0.146 -0.6661 -0.4928  0.1984
11662SOL    HW235565   7.635   9.915   0.270 -0.2108 -0.6647  0.3628
11663SOL     OW35566   5.985   6.198   1.092  0.1887 -0.3233 -0.6140
11663SOL    HW135567   5.909   6.141   1.089 -0.7535  0.9218 -1.1932
11663SOL    HW235568   5.981   6.248   1.010  0.5811  1.0767  0.1981
11664SOL     OW35569   7.333   5.020  10.012 -0.1641 -0.8546  0.2328
11664SOL    HW135570   7.385   5.043   9.936 -4.0781  0.2267 -2.4409
11664SOL    HW235571   7.283   4.943   9.985  0.4883 -2.3678  2.9354
11665SOL     OW35572   4.108   0.784   8.989  0.5375 -0.0779  0.1618
11665SOL    HW135573   4.019   0.819   8.992  0.2493 -0.8267  1.3299
11665SOL    HW235574   4.163   0.856   9.018  0.3730  0.5044 -0.9118
11666SOL     OW35575   5.749   5.721   2.131 -0.7602  0.2876 -0.8460
11666SOL    HW135576   5.797   5.665   2.192  0.8947  1.2493 -1.2108
11666SOL    HW235577   5.676   5.756   2.183 -1.3136 -1.4624 -0.3798
11667SOL     OW35578   7.709   4.360   0.804  0.3398  0.1875  0.4262
11667SOL    HW135579   7.799   4.372   0.836  0.4069  1.8143 -0.2916
11667SOL    HW235580   7.654   4.385   0.878  0.3819 -2.5187  1.5074
11668SOL     OW35581   9.215   0.331   2.954  0.6689  0.1193  0.1349
11668SOL    HW135582   9.253   0.315   2.868 -0.5442  1.0903 -0.6206
11668SOL    HW235583   9.135   0.278   2.955  0.2364  0.7687  0.3257
11669SOL     OW35584   5.662   6.699   0.744 -0.2678  0.1036  0.1852
11669SOL    HW135585   5.663   6.730   0.835  0.2540 -0.8665  0.5313
11669SOL    HW235586   5.577   6.655   0.736 -0.7210  1.0175 -0.0986
11670SOL     OW35587   9.105   6.586   4.133  0.0085  0.1957 -0.1702
11670SOL    HW135588   9.014   6.557   4.139 -0.0540 -0.0471 -1.6886
11670SOL    HW235589   9.157   6.508   4.153 -0.1591 -0.4340 -1.9690
11671SOL     OW35590   0.490   7.925   2.584  0.8463 -0.5503  0.3482
11671SOL    HW135591   0.559   7.887   2.529  0.4523 -0.2518 -0.3730
11671SOL    HW235592   0.490   8.018   2.562  0.7378 -0.4099  0.9239
11672SOL     OW35593   2.927   7.068   4.770 -0.3026  0.3063  0.1272
11672SOL    HW135594   3.008   7.023   4.746  0.2131  2.2842 -2.2076
11672SOL    HW235595   2.957   7.143   4.823 -0.4414  1.4946 -1.3992
11673SOL     OW35596   4.565   9.420   8.712 -0.1090 -0.3000  0.0084
11673SOL    HW135597   4.565   9.372   8.794 -0.3008 -1.2325 -0.5254
11673SOL    HW235598   4.517   9.364   8.651  0.1531  0.3063 -0.7717
11674SOL     OW35599   6.553   5.155   9.405 -0.5152 -0.3023  0.2948
11674SOL    HW135600   6.571   5.191   9.318  0.5257 -0.8521  0.2666
11674SOL    HW235601   6.632   5.173   9.456 -0.4058 -1.5085  0.5995
11675SOL     OW35602   5.835   7.077   4.842 -0.2030 -0.2178  0.3120
11675SOL    HW135603   5.772   7.110   4.907 -1.2428 -0.6112 -0.4685
11675SOL    HW235604   5.907   7.043   4.894  0.0072  1.4800  1.1973
11676SOL     OW35605   2.237   4.880   4.823  0.5295  0.3024  0.0990
11676SOL    HW135606   2.174   4.808   4.823 -0.5192  1.1624  1.6104
11676SOL    HW235607   2.202   4.943   4.760  0.1349  0.5628  0.5769
11677SOL     OW35608   4.630   6.827   3.205 -0.3293  0.2145  0.3157
11677SOL    HW135609   4.711   6.798   3.246  0.4468  1.3017 -0.3972
11677SOL    HW235610   4.577   6.747   3.198  0.4323 -0.3990  1.3206
11678SOL     OW35611   8.434   5.245   5.484  0.2455  0.2741  0.2152
11678SOL    HW135612   8.358   5.196   5.454  0.8633 -0.3314 -0.4098
11678SOL    HW235613   8.398   5.316   5.536 -0.7699  0.2779 -0.4634
11679SOL     OW35614   2.607   4.587   0.552  0.2684 -0.1436  0.3207
11679SOL    HW135615   2.549   4.632   0.613 -1.9314  0.8601 -2.2987
11679SOL    HW235616   2.564   4.502   0.537 -0.2386  0.3461 -1.1459
11680SOL     OW35617   0.564   0.975   7.451  0.0336 -0.3333 -0.2625
11680SOL    HW135618   0.624   1.020   7.391 -0.7576 -0.2254 -1.0097
11680SOL    HW235619   0.505   1.045   7.482 -0.4944 -0.6403 -0.5469
11681SOL     OW35620   4.531   2.235   2.349  0.5168 -0.3371  0.3363
11681SOL    HW135621   4.561   2.192   2.429 -2.6490 -2.4168  0.6137
11681SOL    HW235622   4.611   2.258   2.302  2.4684 -0.1457  3.4942
11682SOL     OW35623   0.936   8.737   8.212  0.1119 -0.4216 -0.3944
11682SOL    HW135624   0.923   8.831   8.215 -1.9496 -0.6740  0.2993
11682SOL    HW235625   1.000   8.719   8.280 -0.2387  0.3927  0.1629
11683SOL     OW35626   9.503   3.129   9.318 -0.0503 -0.0415 -0.5472
11683SOL    HW135627   9.483   3.036   9.303 -1.3171  0.0526  0.3639
11683SOL    HW235628   9.592   3.141   9.284 -0.1053 -1.4395 -1.2435
11684SOL     OW35629   0.285   7.927   0.830 -0.3334  0.3558 -1.0453
11684SOL    HW135630   0.327   7.976   0.900  0.6492 -0.9967 -0.6288
11684SOL    HW235631   0.321   7.964   0.749 -0.8322  1.3640 -0.8120
11685SOL     OW35632   7.525   7.882   7.386  0.3825 -0.1242 -0.1638
11685SOL    HW135633   7.572   7.931   7.454  0.4277 -0.1868 -0.1498
11685SOL    HW235634   7.449   7.846   7.431  0.4074 -0.1582 -0.1488
11686SOL     OW35635   5.108   7.874   4.278 -0.2927 -0.0146 -0.3532
11686SOL    HW135636   5.111   7.900   4.186  1.3163 -0.0829 -0.3587
11686SOL    HW235637   5.165   7.798   4.283 -0.0812  0.1964  0.7582
11687SOL     OW35638   0.252   7.857   3.777  0.2705 -0.0130 -0.1900
11687SOL    HW135639   0.316   7.837   3.846  0.8331  0.9805 -0.3852
11687SOL    HW235640   0.292   7.823   3.697 -0.2095 -0.8382 -0.0797
11688SOL     OW35641   8.515   6.418   0.441  0.1654  0.3097  0.3866
11688SOL    HW135642   8.577   6.461   0.499  0.0919  1.2713 -0.2256
11688SOL    HW235643   8.450   6.379   0.500 -0.2002  1.7134  0.9492
11689SOL     OW35644   2.113   0.750   2.822 -0.1134  0.0244 -0.3321
11689SOL    HW135645   2.092   0.842   2.805 -0.5533 -0.3643 -2.1834
11689SOL    HW235646   2.047   0.701   2.772  1.5432 -1.2828 -1.3487
11690SOL     OW35647   7.324   5.758   8.892 -0.0079  0.4054  0.2154
11690SOL    HW135648   7.348   5.724   8.979 -0.2854 -0.7811 -0.1528
11690SOL    HW235649   7.354   5.849   8.893  0.4747  0.2547  1.3658
11691SOL     OW35650   1.088   3.261   6.559 -0.0542 -0.2404 -0.2515
11691SOL    HW135651   1.036   3.254   6.639 -0.0340 -0.9477 -0.2896
11691SOL    HW235652   1.116   3.171   6.541  1.5800  0.1676  0.0355
11692SOL     OW35653   0.732   6.591   8.517  0.5693 -0.3184  0.2919
11692SOL    HW135654   0.672   6.601   8.591  0.3319 -1.1155  0.2151
11692SOL    HW235655   0.816   6.623   8.550  0.3764 -0.2960  0.7759
11693SOL     OW35656   5.829   3.913   7.825 -0.2379  0.3249 -0.1694
11693SOL    HW135657   5.843   3.900   7.919 -2.1636 -1.3856 -0.0580
11693SOL    HW235658   5.743   3.956   7.820 -0.6086 -0.4885 -1.1429
11694SOL     OW35659   5.543   5.671   8.169  0.4012 -0.1664  0.1421
11694SOL    HW135660   5.480   5.630   8.109  0.1099 -0.8811  0.9181
11694SOL    HW235661   5.527   5.765   8.160  0.2754 -0.2674 -0.7972
11695SOL     OW35662   7.430   1.921   2.899  0.8653  0.0243  0.0474
11695SOL    HW135663   7.515   1.959   2.879  0.1282  3.2194  2.2492
11695SOL    HW235664   7.368   1.973   2.849 -0.1848  2.0981  3.1702
11696SOL     OW35665   8.230   3.568   3.922 -0.0090 -0.2653 -0.0219
11696SOL    HW135666   8.278   3.610   3.851 -2.6934  2.4530 -0.4134
11696SOL    HW235667   8.296   3.557   3.991  1.4454  2.5312 -0.7969
11697SOL     OW35668   4.549   0.833   1.455  0.5395  0.1801 -0.2150
11697SOL    HW135669   4.548   0.789   1.370  1.1251 -1.7192  0.6922
11697SOL    HW235670   4.642   0.839   1.477  0.3565 -0.5598  0.8441
11698SOL     OW35671   9.700   4.105   2.295  0.0972 -0.8290  0.0222
11698SOL    HW135672   9.676   4.019   2.330  1.5392 -1.7214 -1.0493
11698SOL    HW235673   9.793   4.097   2.274  0.2248  0.9607 -0.2395
11699SOL     OW35674   0.449   6.970   3.616  0.3424 -0.3314  0.0531
11699SOL    HW135675   0.537   6.993   3.585  0.4045 -0.6456 -0.0021
11699SOL    HW235676   0.430   6.886   3.574  0.4367 -0.7777  0.8854
11700SOL     OW35677   1.671   2.054   1.819  0.5843  0.5273  0.5020
11700SOL    HW135678   1.594   1.997   1.820  0.1247  1.1086 -0.3139
11700SOL    HW235679   1.660   2.108   1.741  0.8565  1.9361  1.3989
11701SOL     OW35680   6.050   7.144   5.674  0.0954 -0.1972 -0.1406
11701SOL    HW135681   6.113   7.090   5.626  0.1788  0.4409 -0.7561
11701SOL    HW235682   6.007   7.082   5.733 -0.4735 -1.1371 -1.4823
11702SOL     OW35683   9.165   5.227   4.304 -0.1503 -0.0066 -0.0037
11702SOL    HW135684   9.157   5.265   4.392 -1.3185 -0.7969  0.2538
11702SOL    HW235685   9.075   5.206   4.279  0.2088 -0.1392 -1.2409
11703SOL     OW35686   3.502   4.026   5.886 -0.1887  0.0994 -0.1600
11703SOL    HW135687   3.485   4.035   5.980 -0.7851  1.2339 -0.3515
11703SOL    HW235688   3.493   3.933   5.869 -0.2396 -0.1040  0.8873
11704SOL     OW35689   8.948   6.339   3.428 -0.2630  0.2988 -0.0076
11704SOL    HW135690   8.993   6.258   3.404 -2.2370 -0.7190 -0.4785
11704SOL    HW235691   9.002   6.377   3.497  0.5248 -1.6023  0.4718
11705SOL     OW35692   6.988   3.098   9.516 -0.0172 -0.0779 -0.1231
11705SOL    HW135693   6.979   3.168   9.451 -0.2277 -0.5605 -0.6151
11705SOL    HW235694   7.082   3.085   9.525  0.0325  0.4216  0.1413
11706SOL     OW35695   8.883   6.869   8.606 -0.1730 -0.0494 -0.1000
11706SOL    HW135696   8.925   6.828   8.682 -1.3993  0.5753  0.9521
11706SOL    HW235697   8.804   6.817   8.592 -0.4050  0.3837 -0.4024
11707SOL     OW35698   0.247   5.531   0.826 -0.1346  0.1176  0.0986
11707SOL    HW135699   0.247   5.535   0.730  1.9513  0.5837  0.0703
11707SOL    HW235700   0.266   5.440   0.847  0.5990  0.2544  0.0429
11708SOL     OW35701   5.864   6.741   7.806  0.5166 -0.2995 -0.1021
11708SOL    HW135702   5.904   6.698   7.881 -1.3119 -0.1931  0.9865
11708SOL    HW235703   5.890   6.833   7.814  0.2117 -0.2615  0.5008
11709SOL     OW35704   2.131   8.640   7.542  0.0681 -0.0261  0.0999
11709SOL    HW135705   2.210   8.673   7.584  0.4546  0.0084 -0.6400
11709SOL    HW235706   2.092   8.717   7.501 -0.3903 -0.0290  0.5220
11710SOL     OW35707   9.410   4.717   7.474  0.3863 -0.6326  0.3174
11710SOL    HW135708   9.345   4.786   7.489  2.1352  0.9009  1.3541
11710SOL    HW235709   9.386   4.648   7.535 -1.6377 -1.1754 -1.0213
11711SOL     OW35710   5.650   6.160   9.488  0.1456 -0.4463 -0.0098
11711SOL    HW135711   5.733   6.131   9.450  0.6011 -1.0730  1.4011
11711SOL    HW235712   5.585   6.099   9.453 -0.0509  0.9952 -2.3833
11712SOL     OW35713   0.968   8.046   7.732  0.0350 -0.0816  0.6244
11712SOL    HW135714   0.896   8.090   7.777  0.4514  0.1323  1.0810
11712SOL    HW235715   1.047   8.082   7.771  0.3915 -0.8197  0.6096
11713SOL     OW35716   3.977   5.911   2.640  0.4783  0.0213 -0.5422
11713SOL    HW135717   3.937   5.888   2.556  0.5687  1.9074 -1.1464
11713SOL    HW235718   3.932   5.856   2.704  0.7142 -1.7859 -1.8421
11714SOL     OW35719   0.083   8.036   7.153 -0.6703 -0.2559  0.2464
11714SOL    HW135720   0.093   7.941   7.142 -0.7437 -0.2429  0.0711
11714SOL    HW235721   0.170   8.067   7.178 -0.5379 -0.3024 -0.1582
11715SOL     OW35722   1.286   9.096   1.185 -0.7611 -0.1152 -0.2661
11715SOL    HW135723   1.254   9.005   1.183 -1.3303 -0.0438  2.2940
11715SOL    HW235724   1.381   9.087   1.188 -0.8333 -0.6708  0.7385
11716SOL     OW35725   7.539   8.147   2.215  0.1376  0.5275  0.1224
11716SOL    HW135726   7.496   8.061   2.218 -0.9118  0.9219 -1.6832
11716SOL    HW235727   7.604   8.139   2.145 -1.9495  1.9462 -2.1563
11717SOL     OW35728   3.171   0.884   5.202  0.0505 -0.2534 -0.5495
11717SOL    HW135729   3.189   0.900   5.110 -0.8693 -0.7437 -0.8259
11717SOL    HW235730   3.081   0.850   5.204  0.7486 -2.1937  0.3162
11718SOL     OW35731   7.573   6.816   8.256 -0.3760 -0.2313 -0.1833
11718SOL    HW135732   7.645   6.772   8.300 -0.4428  0.4523  0.6426
11718SOL    HW235733   7.508   6.747   8.241 -0.4610 -0.4285  1.0457
11719SOL     OW35734   7.678   8.927   5.507 -0.3449  0.9248 -0.0746
11719SOL    HW135735   7.631   8.870   5.447  1.9259 -0.2577 -0.8286
11719SOL    HW235736   7.737   8.978   5.452  1.9479 -0.3356  1.0828
11720SOL     OW35737   6.644   3.732   6.283  0.0510  1.0050 -0.0180
11720SOL    HW135738   6.562   3.779   6.267 -1.2202 -1.7471 -2.7512
11720SOL    HW235739   6.686   3.728   6.197 -0.0690 -2.8689 -0.0639
11721SOL     OW35740   5.065   4.753   4.068  0.5594  0.2012  0.0511
11721SOL    HW135741   5.061   4.693   4.142 -0.4673  1.4485  1.0511
11721SOL    HW235742   5.158   4.758   4.047  1.0354  0.6929  2.0340
11722SOL     OW35743   0.184   7.328   5.732 -0.3916  0.8601  0.8823
11722SOL    HW135744   0.179   7.385   5.655  0.3838  0.8693  0.8354
11722SOL    HW235745   0.163   7.240   5.698  2.8858  0.2893  0.0026
11723SOL     OW35746   0.993   7.886   8.434 -0.0270 -0.3284 -0.3495
11723SOL    HW135747   1.075   7.925   8.464 -0.7191  2.3895 -1.6318
11723SOL    HW235748   1.004   7.879   8.339 -0.9026 -0.8765 -0.4167
11724SOL     OW35749   7.092   3.586   9.609  0.2304  0.1831 -0.7494
11724SOL    HW135750   7.145   3.517   9.568  1.3181 -0.0559  0.9764
11724SOL    HW235751   7.051   3.543   9.684  0.8427  1.3681  0.2923
11725SOL     OW35752   8.994   0.162   6.543  0.2265 -0.1367  0.9669
11725SOL    HW135753   9.037   0.211   6.613  1.6986 -0.6369  0.4433
11725SOL    HW235754   9.056   0.093   6.520 -0.9535 -1.0164  0.3130
11726SOL     OW35755   2.821   4.495   1.121 -0.2189 -0.0922  0.2890
11726SOL    HW135756   2.834   4.480   1.027 -1.3024  1.9405 -0.2566
11726SOL    HW235757   2.752   4.434   1.146  1.0042 -1.6097  0.1341
11727SOL     OW35758   4.059   9.667   0.001  0.7321 -0.0930 -1.0788
11727SOL    HW135759   4.127   9.705   0.056 -1.4378  2.0955  0.2464
11727SOL    HW235760   4.029   9.590   0.050  0.8140  0.1489 -0.6478
11728SOL     OW35761   6.656   9.969   8.724  0.2771 -0.1243  0.2217
11728SOL    HW135762   6.729   9.954   8.783 -0.1632  0.2387  0.8672
11728SOL    HW235763   6.695   9.971   8.637  1.1481  0.8740  0.6215
11729SOL     OW35764   7.534   4.637   1.225  0.1003  0.0059 -0.2282
11729SOL    HW135765   7.559   4.563   1.170 -1.9035  1.0769 -2.8077
11729SOL    HW235766   7.602   4.702   1.211 -0.4087  0.2819 -1.5617
11730SOL     OW35767   0.274   3.679   4.303 -0.1284  0.1363 -0.5544
11730SOL    HW135768   0.179   3.690   4.300 -0.3814 -0.8882  1.7631
11730SOL    HW235769   0.288   3.615   4.373  2.3067  0.5908 -0.5656
11731SOL     OW35770   7.969   2.893   4.428  0.2625 -0.0846 -0.3803
11731SOL    HW135771   7.979   2.859   4.517 -1.3660  0.7829  0.1831
11731SOL    HW235772   7.882   2.863   4.401  0.1760  0.7998 -1.1418
11732SOL     OW35773   7.866   3.301   0.113  0.0598  0.2103  0.6553
11732SOL    HW135774   7.848   3.374   0.054  0.7636 -0.5863 -0.5635
11732SOL    HW235775   7.790   3.244   0.104 -0.7504  1.0048  2.0178
11733SOL     OW35776   2.189   9.627   9.721  0.0341 -0.3392  0.3244
11733SOL    HW135777   2.271   9.639   9.674 -0.3721  0.4291 -0.2095
11733SOL    HW235778   2.125   9.678   9.672 -0.7896 -0.9999  0.6750
11734SOL     OW35779   7.105   3.262   5.225  0.3589 -0.2875 -0.5264
11734SOL    HW135780   7.198   3.245   5.240  0.1236 -0.6508  0.6445
11734SOL    HW235781   7.063   3.234   5.306 -0.6840  0.6087 -0.7388
11735SOL     OW35782   7.664   0.943   4.735  0.7945 -0.0614  0.2844
11735SOL    HW135783   7.690   1.033   4.753 -0.0291  0.7492 -2.1215
11735SOL    HW235784   7.700   0.925   4.647 -0.1218 -1.6311  0.1960
11736SOL     OW35785   4.296   1.545   1.120  0.3133 -0.2251 -0.1220
11736SOL    HW135786   4.314   1.588   1.203  0.9781  1.1382 -0.9389
11736SOL    HW235787   4.203   1.560   1.104  0.5922  1.1691 -0.5205
11737SOL     OW35788   7.836   8.259   6.744  0.0806 -0.3017  0.2706
11737SOL    HW135789   7.776   8.297   6.808 -0.2009 -2.5620  1.4226
11737SOL    HW235790   7.923   8.285   6.775 -0.1125 -0.3419  0.8573
11738SOL     OW35791   5.971   1.681   4.417 -0.1407  0.5555 -0.0530
11738SOL    HW135792   5.883   1.663   4.452  0.4703 -0.4377  1.0369
11738SOL    HW235793   6.013   1.736   4.483  0.4201  0.1282 -0.0426
11739SOL     OW35794   9.596   2.729   2.474  0.1942  0.0497  0.2372
11739SOL    HW135795   9.678   2.778   2.470 -0.0837  0.5677  0.7419
11739SOL    HW235796   9.544   2.762   2.401  0.3381 -0.1089  0.0613
11740SOL     OW35797   6.957   6.589   7.774  0.5731 -0.2151 -0.3134
11740SOL    HW135798   6.916   6.624   7.853  0.0006  0.4888 -0.9087
11740SOL    HW235799   7.003   6.510   7.804  1.1946  0.5696  0.9048
11741SOL     OW35800   0.697   5.128   4.407 -0.2329 -0.8521 -0.2612
11741SOL    HW135801   0.773   5.180   4.379  0.3590 -1.9125 -0.6807
11741SOL    HW235802   0.624   5.190   4.403  0.6440  0.2746  0.4463
11742SOL     OW35803   7.888   3.909   1.176 -0.1427 -0.5769  0.2695
11742SOL    HW135804   7.855   3.969   1.110 -2.1451 -0.7121  1.0701
11742SOL    HW235805   7.825   3.837   1.177  1.3277 -1.9129  0.4461
11743SOL     OW35806   0.940   8.511   5.135 -0.4074  0.0159 -0.0140
11743SOL    HW135807   0.876   8.440   5.128 -0.8232  0.5204 -1.9892
11743SOL    HW235808   0.999   8.497   5.060  0.7860  0.5508  0.7935
11744SOL     OW35809   5.025   1.698   3.515  0.4705 -0.3878 -0.4852
11744SOL    HW135810   5.015   1.650   3.433  1.2393 -1.0439 -0.2140
11744SOL    HW235811   4.937   1.726   3.538  0.5291  2.2069 -2.9354
11745SOL     OW35812   5.582   5.991   1.458 -0.2087  0.1413  0.1009
11745SOL    HW135813   5.496   5.953   1.477  0.1141 -0.4015  0.4774
11745SOL    HW235814   5.644   5.920   1.471  0.1926  0.1836 -1.3824
11746SOL     OW35815   3.103   0.452   1.537  0.0746  0.2830  0.4206
11746SOL    HW135816   3.170   0.383   1.542 -0.7912 -0.5073  1.6556
11746SOL    HW235817   3.150   0.528   1.503  1.5175 -0.3655  0.8782
11747SOL     OW35818   8.990   0.786   3.801 -1.2435  0.4400  0.2570
11747SOL    HW135819   9.020   0.804   3.890 -0.5634  1.3105 -0.1361
11747SOL    HW235820   8.905   0.830   3.795 -1.0849  0.7585  0.3371
11748SOL     OW35821   0.506   2.279   0.619 -0.4159  0.6713  0.2280
11748SOL    HW135822   0.521   2.362   0.664 -0.1708  2.1427 -2.3675
11748SOL    HW235823   0.413   2.260   0.637 -0.6029  1.7358  0.5017
11749SOL     OW35824   2.990   1.503   3.027 -0.3957  0.0163  0.0803
11749SOL    HW135825   3.060   1.562   3.056 -1.3001  0.5677  1.2037
11749SOL    HW235826   2.951   1.470   3.108  0.5869 -2.8188 -0.4705
11750SOL     OW35827   6.194   3.631   2.580 -0.7717 -0.3996  0.0699
11750SOL    HW135828   6.108   3.667   2.558 -1.3490 -2.1273 -0.7141
11750SOL    HW235829   6.250   3.658   2.507 -0.7154  0.4438  0.4138
11751SOL     OW35830   1.582   6.459   1.618 -0.1855 -0.2904  0.2577
11751SOL    HW135831   1.518   6.391   1.639 -1.3308  0.9882  1.1172
11751SOL    HW235832   1.665   6.424   1.650 -1.1030 -0.4312  2.7118
11752SOL     OW35833   8.675   0.868   1.949  0.3211  0.4487  0.0039
11752SOL    HW135834   8.686   0.890   1.857  3.3381  2.9450  0.7811
11752SOL    HW235835   8.614   0.933   1.983  0.2060  0.3279  0.0307
11753SOL     OW35836   2.843   3.327   8.021  0.1302  0.2812 -0.4153
11753SOL    HW135837   2.810   3.249   7.978 -1.6759  0.2735  0.8447
11753SOL    HW235838   2.764   3.375   8.048  1.1836  2.0876 -0.3659
11754SOL     OW35839   9.829   1.579   3.710 -0.2085  0.1322  0.5879
11754SOL    HW135840   9.799   1.561   3.621  0.5627 -4.6127  1.0470
11754SOL    HW235841   9.750   1.607   3.757 -0.7320  2.1763 -1.3115
11755SOL     OW35842   6.063   3.794   2.990  0.2372 -0.4525 -0.4617
11755SOL    HW135843   6.000   3.724   3.006 -1.5362  0.5622 -2.4510
11755SOL    HW235844   6.085   3.827   3.078 -0.8736 -1.7972  0.3672
11756SOL     OW35845   1.616   2.065   3.690  0.2641 -0.3662  0.3295
11756SOL    HW135846   1.598   2.075   3.597 -2.1537  1.5740  0.9102
11756SOL    HW235847   1.705   2.098   3.701 -0.3044  1.8029 -0.9580
11757SOL     OW35848   8.259   3.119   1.125  0.1948  0.1052  0.1987
11757SOL    HW135849   8.313   3.047   1.091  1.5185  1.0535  0.2011
11757SOL    HW235850   8.242   3.095   1.216  0.7257 -0.1609  0.2336
11758SOL     OW35851   9.213   1.793   3.825  0.4739 -0.1976 -0.0116
11758SOL    HW135852   9.288   1.754   3.869 -0.1267 -1.0577  0.2781
11758SOL    HW235853   9.151   1.721   3.815 -0.5898  0.6363  0.3745
11759SOL     OW35854   2.490   7.275   2.993  0.3922  0.1903 -0.3116
11759SOL    HW135855   2.419   7.308   3.048 -0.0204 -0.6464 -0.3240
11759SOL    HW235856   2.476   7.315   2.908  0.5240  0.8106 -0.0496
11760SOL     OW35857   1.079   0.148   0.905 -0.2026 -0.3219 -0.0609
11760SOL    HW135858   1.086   0.059   0.940 -0.1026 -0.5794 -0.7100
11760SOL    HW235859   1.057   0.135   0.812  0.6021  0.3071 -0.3514
11761SOL     OW35860   8.279   2.120   3.712  0.0451  0.1669  0.4238
11761SOL    HW135861   8.203   2.148   3.762  0.3505  1.1098  0.3736
11761SOL    HW235862   8.270   2.025   3.706 -0.7453  0.1958  1.0311
11762SOL     OW35863   0.983   0.550   5.406 -0.8443  0.0534  0.2685
11762SOL    HW135864   1.006   0.506   5.324  1.4054  1.2677  0.1717
11762SOL    HW235865   1.022   0.495   5.474 -2.8243 -1.0261  0.5984
11763SOL     OW35866   1.511   0.479   1.846  0.6695 -0.1133 -0.2242
11763SOL    HW135867   1.574   0.537   1.888 -0.5333  1.3731 -0.3792
11763SOL    HW235868   1.464   0.535   1.784  1.1492 -1.8197 -2.2629
11764SOL     OW35869   6.040   4.710   1.835 -0.5476 -0.0579 -0.1560
11764SOL    HW135870   5.990   4.661   1.770 -0.5237  1.3916 -1.2993
11764SOL    HW235871   6.034   4.656   1.914 -2.2453 -0.8913 -0.7936
11765SOL     OW35872   1.077   1.564   4.282 -0.1621  0.1303 -0.3496
11765SOL    HW135873   1.091   1.633   4.216 -0.1723  1.3616  0.8840
11765SOL    HW235874   1.111   1.602   4.363 -0.3842 -1.2554  0.4180
11766SOL     OW35875   1.035   1.323   4.191 -0.2593 -0.6727 -0.5593
11766SOL    HW135876   1.008   1.345   4.102  0.6812  0.0808 -0.6807
11766SOL    HW235877   1.063   1.406   4.229  0.0188 -1.0958  0.1973
11767SOL     OW35878   4.514   2.230   0.796  0.1762  0.0215 -0.1886
11767SOL    HW135879   4.454   2.270   0.860  2.0441  0.7353  1.2197
11767SOL    HW235880   4.512   2.290   0.721  1.1689  1.5733  0.9620
11768SOL     OW35881   7.317   3.274   6.633  0.0722  0.1905  0.3915
11768SOL    HW135882   7.380   3.341   6.662 -0.0838  1.3648 -1.8220
11768SOL    HW235883   7.234   3.299   6.674  0.3775  0.3250  0.9464
11769SOL     OW35884   7.573   1.852   1.486  0.2293  0.0733  0.7026
11769SOL    HW135885   7.528   1.772   1.515 -2.2622 -0.1210 -3.0345
11769SOL    HW235886   7.651   1.820   1.441  1.7983  0.1788  3.1066
11770SOL     OW35887   1.933   1.838   3.440  0.6921  0.4754  0.0135
11770SOL    HW135888   2.007   1.887   3.474  0.7140 -0.2850  1.1479
11770SOL    HW235889   1.950   1.828   3.347  3.1906 -1.5990  0.5872
11771SOL     OW35890   7.806   1.282   0.992  0.2689 -0.5521 -0.2129
11771SOL    HW135891   7.847   1.210   0.943  0.2005 -0.7896  0.0797
11771SOL    HW235892   7.788   1.348   0.926 -0.7167 -1.2620 -0.6782
11772SOL     OW35893   9.365   7.742   2.879  0.2163  0.3035 -0.3295
11772SOL    HW135894   9.385   7.695   2.960  1.3021  2.5554  0.7983
11772SOL    HW235895   9.425   7.706   2.814  1.0243  0.1332  0.5048
11773SOL     OW35896   5.220   5.122   4.114 -0.6465  0.0474  0.1480
11773SOL    HW135897   5.150   5.113   4.050 -0.9445 -0.1655  0.5048
11773SOL    HW235898   5.176   5.146   4.195 -0.4124 -1.0305  0.6144
11774SOL     OW35899   7.542   6.434   7.933 -0.0396  0.3513 -0.1345
11774SOL    HW135900   7.609   6.366   7.935  0.7825  1.1680  1.1985
11774SOL    HW235901   7.482   6.405   7.864  1.5933 -0.4514 -1.2916
11775SOL     OW35902   6.859   6.839   1.289  0.3245  0.3617  0.4784
11775SOL    HW135903   6.836   6.746   1.299  1.5833  0.0653  0.7445
11775SOL    HW235904   6.814   6.865   1.209 -0.6859 -0.2578  0.8162
11776SOL     OW35905   7.529   5.446   6.122 -0.1855  0.0508  0.5080
11776SOL    HW135906   7.535   5.483   6.034 -3.3174 -0.9663 -0.2783
11776SOL    HW235907   7.520   5.522   6.179  0.8539  0.6902 -0.1537
11777SOL     OW35908   6.756   0.301   6.444 -0.4925 -0.3441 -0.2550
11777SOL    HW135909   6.846   0.331   6.450  0.2478 -2.5024  0.4973
11777SOL    HW235910   6.708   0.375   6.409  0.8240  2.2713  2.9318
11778SOL     OW35911   7.892   8.235   5.602  0.5593  0.4368 -0.2412
11778SOL    HW135912   7.985   8.216   5.596  0.4598  0.1103 -0.7739
11778SOL    HW235913   7.857   8.166   5.658  0.5067  0.0860 -0.6965
11779SOL     OW35914   5.778   5.544   1.914  0.5705 -0.0118 -0.1446
11779SOL    HW135915   5.770   5.622   1.969  0.6712  0.4650 -0.7896
11779SOL    HW235916   5.768   5.471   1.974  2.5664  0.4569  0.8371
11780SOL     OW35917   3.383   7.072   1.443  0.1102 -0.4811  0.3135
11780SOL    HW135918   3.353   7.120   1.520 -2.0946 -1.1123 -0.0557
11780SOL    HW235919   3.381   6.980   1.470 -0.9298 -0.7309 -0.5070
11781SOL     OW35920   1.525   4.674   1.067  0.3051  0.4244 -0.3125
11781SOL    HW135921   1.535   4.767   1.047 -0.3690  0.7983  0.9838
11781SOL    HW235922   1.441   4.668   1.112 -0.1241 -0.9730 -1.2293
11782SOL     OW35923   2.049   3.598   9.025 -0.4332  0.2907 -0.1840
11782SOL    HW135924   2.071   3.509   9.052  0.4182 -0.1366 -2.1677
11782SOL    HW235925   1.970   3.619   9.075  0.0191 -1.1059  1.1992
11783SOL     OW35926   6.760   3.565   1.571  0.2569 -0.6112  0.3491
11783SOL    HW135927   6.811   3.643   1.592  0.2078  0.5163 -3.1547
11783SOL    HW235928   6.672   3.599   1.551 -0.3752 -1.8551  0.9227
11784SOL     OW35929   7.139   0.956   2.575  0.1670  0.2896 -0.3802
11784SOL    HW135930   7.051   0.992   2.586  0.5307  1.2105 -0.3809
11784SOL    HW235931   7.182   0.972   2.659  0.9949  1.7829 -1.0465
11785SOL     OW35932   1.493   8.736   0.037  0.3555  0.6114 -0.5497
11785SOL    HW135933   1.553   8.661   0.048  1.8706  1.7649 -0.6507
11785SOL    HW235934   1.542   8.798  -0.016 -0.9593  1.6087 -0.6379
11786SOL     OW35935   3.803   0.362   7.061  0.0893 -0.9923 -0.3818
11786SOL    HW135936   3.749   0.343   6.984  0.3750 -1.7879 -0.4010
11786SOL    HW235937   3.878   0.302   7.053  0.2294 -0.9369  0.4043
11787SOL     OW35938   8.123   8.806   6.392  0.3619 -0.1084 -0.0098
11787SOL    HW135939   8.210   8.798   6.353  0.8507  0.7036  0.8793
11787SOL    HW235940   8.088   8.888   6.357  0.2061 -0.1223  0.1100
11788SOL     OW35941   9.290   6.434   9.095  0.3510 -0.0321 -0.0228
11788SOL    HW135942   9.278   6.451   9.002 -0.1409 -0.4540 -0.0406
11788SOL    HW235943   9.383   6.418   9.105  0.5298  0.7676 -0.3156
11789SOL     OW35944   9.272   5.442   1.536  0.3899  0.2108 -0.3413
11789SOL    HW135945   9.176   5.435   1.532  0.1890 -2.1359  3.4900
11789SOL    HW235946   9.288   5.519   1.591  0.7167  0.3310 -0.6026
11790SOL     OW35947   0.078   1.353   6.294  0.5292  0.5243  0.1233
11790SOL    HW135948   0.057   1.412   6.367 -0.0993  0.5178 -0.0485
11790SOL    HW235949   0.164   1.318   6.316  1.1033  1.8375  0.0078
11791SOL     OW35950   7.692   8.510   1.201  0.3363  0.1169  0.2247
11791SOL    HW135951   7.715   8.499   1.109  0.4782 -0.6993  0.3492
11791SOL    HW235952   7.697   8.604   1.216  1.1042  0.1805 -0.3961
11792SOL     OW35953   6.681   2.096   7.491 -0.0300 -0.4916 -0.4284
11792SOL    HW135954   6.724   2.178   7.470 -0.8537 -0.1071 -0.6597
11792SOL    HW235955   6.744   2.048   7.544  1.3647 -0.6968 -2.1855
11793SOL     OW35956   6.877   7.235   7.870  0.1989  0.3620  0.2617
11793SOL    HW135957   6.835   7.291   7.805 -2.4308 -1.5795  0.1083
11793SOL    HW235958   6.854   7.274   7.954 -1.5768 -0.3721  0.1571
11794SOL     OW35959   2.227   1.115   4.344  0.0256  0.2696  0.1786
11794SOL    HW135960   2.133   1.133   4.338 -0.2010 -1.0664 -0.8564
11794SOL    HW235961   2.269   1.198   4.323 -0.9325  0.7554  0.1502
11795SOL     OW35962   9.132   1.146   4.152 -0.1791 -0.2718 -0.1193
11795SOL    HW135963   9.127   1.209   4.224 -3.3828 -2.7385  2.1091
11795SOL    HW235964   9.180   1.072   4.188 -2.5159 -1.8827 -0.0696
11796SOL     OW35965   2.492   0.658   1.916  0.8426  0.2290 -0.3106
11796SOL    HW135966   2.442   0.696   1.844  1.9358  0.2283 -1.0996
11796SOL    HW235967   2.568   0.715   1.925  0.3640  0.6626  1.3608
11797SOL     OW35968   0.078   1.170   7.414 -0.5992 -0.0990  0.2630
11797SOL    HW135969   0.014   1.240   7.424 -0.0790  0.3986  0.2105
11797SOL    HW235970   0.036   1.106   7.358 -0.3256  1.1658 -1.4772
11798SOL     OW35971   1.960   2.153   0.912  0.0975 -0.4156 -0.4409
11798SOL    HW135972   1.980   2.101   0.990 -0.1620  1.9357  1.3327
11798SOL    HW235973   1.946   2.089   0.843  1.8934 -2.5805  1.0409
11799SOL     OW35974   1.112   4.033   0.271  0.5390  0.1490 -0.3968
11799SOL    HW135975   1.131   4.009   0.180  0.1096 -0.3002 -0.3726
11799SOL    HW235976   1.197   4.040   0.313  0.6840 -1.9862 -0.2421
11800SOL     OW35977   7.665   3.702   7.333  0.7070 -0.0961 -0.0320
11800SOL    HW135978   7.647   3.671   7.422  2.8294 -1.2188  0.0652
11800SOL    HW235979   7.581   3.696   7.288 -0.2208 -0.3257  1.6414
11801SOL     OW35980   7.049   0.310   6.459  0.5538 -0.3017  0.3538
11801SOL    HW135981   7.101   0.390   6.472 -1.8959  1.5481 -0.4798
11801SOL    HW235982   7.064   0.285   6.368  1.2081 -0.7189  0.5730
11802SOL     OW35983   9.735   8.694   5.395  0.0419 -0.6134  0.2950
11802SOL    HW135984   9.686   8.663   5.471 -0.3867 -2.8903 -0.8207
11802SOL    HW235985   9.790   8.764   5.429 -1.4469 -0.3215  2.3090
11803SOL     OW35986   1.555   1.268   3.011  0.1455 -0.2195  0.7158
11803SOL    HW135987   1.479   1.287   3.066  1.0772  1.0559  1.6388
11803SOL    HW235988   1.629   1.274   3.071  1.0474 -0.5826 -0.3368
11804SOL     OW35989   6.437   6.369   1.139 -0.0729  0.7667 -0.2726
11804SOL    HW135990   6.353   6.391   1.179 -0.7431 -1.0415 -0.5729
11804SOL    HW235991   6.415   6.305   1.071  1.3268  1.7981 -1.7949
11805SOL     OW35992   8.595   0.173   8.625  0.0930 -0.2755 -0.4873
11805SOL    HW135993   8.509   0.185   8.664  0.6353  0.0079  0.6578
11805SOL    HW235994   8.657   0.203   8.692  1.0389  0.7428 -1.7647
11806SOL     OW35995   0.028   7.595   2.754 -0.7321  0.0233  0.2573
11806SOL    HW135996   0.063   7.619   2.839  0.2546  0.6306 -0.3000
11806SOL    HW235997   0.038   7.499   2.750  0.1045  0.0968  0.4437
11807SOL     OW35998   8.639   3.415   0.717 -0.2789 -0.1528  0.2729
11807SOL    HW135999   8.589   3.336   0.697 -0.1928 -0.2656  0.5082
11807SOL    HW236000   8.689   3.432   0.637 -0.2721 -0.3548  0.2340
11808SOL     OW36001   3.048   9.061   7.876 -0.6074 -0.2228  0.0773
11808SOL    HW136002   3.001   9.075   7.958 -0.5388  0.9008 -0.0634
11808SOL    HW236003   3.138   9.089   7.894 -0.2407 -1.2909  0.0116
11809SOL     OW36004   8.435   0.690   8.273 -0.6777 -0.1614  0.2537
11809SOL    HW136005   8.454   0.630   8.345 -1.5407 -1.0855 -0.2602
11809SOL    HW236006   8.340   0.682   8.261 -0.8612  1.5449  0.3623
11810SOL     OW36007   6.964   6.339   7.339 -0.2890  0.0725  0.0777
11810SOL    HW136008   6.999   6.250   7.340 -1.1518 -0.3257 -1.3793
11810SOL    HW236009   7.039   6.395   7.357  0.5255 -0.8961 -0.2148
11811SOL     OW36010   2.573   8.594   6.695  0.4266  0.3334  0.0483
11811SOL    HW136011   2.635   8.523   6.676  0.7679  0.7732 -0.4972
11811SOL    HW236012   2.571   8.646   6.615  0.6422  1.2804  0.6420
11812SOL     OW36013   7.723   8.906   7.184 -0.1206  0.5793  0.3315
11812SOL    HW136014   7.720   8.833   7.121  0.0383 -1.2743  2.3381
11812SOL    HW236015   7.658   8.968   7.151 -1.4309 -1.1999 -0.6660
11813SOL     OW36016   1.898   1.430   0.348  0.3226 -0.3374  0.4530
11813SOL    HW136017   1.812   1.471   0.359  0.9176  1.0947 -0.0397
11813SOL    HW236018   1.959   1.504   0.343  1.9754 -1.3271  3.6210
11814SOL     OW36019   8.441   1.359   8.142 -0.3731 -0.7786 -0.3512
11814SOL    HW136020   8.436   1.397   8.229 -0.1810 -0.0932 -0.6384
11814SOL    HW236021   8.358   1.312   8.132  0.3514 -2.3988  0.8908
11815SOL     OW36022   3.328   3.793   0.329 -0.0444  0.0013 -0.5412
11815SOL    HW136023   3.388   3.807   0.402  0.1053 -0.8947 -0.4790
11815SOL    HW236024   3.329   3.698   0.315  0.2689  0.1927 -2.0021
11816SOL     OW36025   6.545   3.619   3.051  0.3209 -0.4427 -0.1551
11816SOL    HW136026   6.546   3.701   3.003 -2.7268 -0.7329 -0.8882
11816SOL    HW236027   6.536   3.644   3.143  1.8146  0.0316 -0.1162
11817SOL     OW36028   5.936   1.110   7.406 -0.1225 -0.2472  0.0369
11817SOL    HW136029   5.906   1.168   7.337  0.9963  0.7928  0.3852
11817SOL    HW236030   6.002   1.055   7.364  1.4941  1.2490  0.5240
11818SOL     OW36031   4.401   3.932   0.061 -0.2896 -0.0613  0.0741
11818SOL    HW136032   4.375   3.882  -0.017 -1.0863  1.1181 -0.4481
11818SOL    HW236033   4.391   3.870   0.133 -0.3370 -0.9386 -0.6547
11819SOL     OW36034   0.304   6.629   0.603 -0.8894 -1.1403  0.3943
11819SOL    HW136035   0.398   6.616   0.587 -0.7866  0.4884 -0.5645
11819SOL    HW236036   0.298   6.638   0.698  0.1245 -0.0210  0.3749
11820SOL     OW36037   4.465   1.569   9.096  0.7878  0.1384  0.0266
11820SOL    HW136038   4.502   1.646   9.138  1.7929  0.0429 -0.6507
11820SOL    HW236039   4.394   1.602   9.041  2.1993  0.8274 -1.4810
11821SOL     OW36040   5.679   9.235   6.508 -0.3871  0.3504 -0.0041
11821SOL    HW136041   5.758   9.235   6.455 -0.1439  0.1667  0.3550
11821SOL    HW236042   5.624   9.304   6.470 -0.3410  0.0293 -0.6706
11822SOL     OW36043   8.834   1.721   3.789 -0.4015  0.6265 -0.4299
11822SOL    HW136044   8.845   1.626   3.786  0.3908  0.6237  1.5262
11822SOL    HW236045   8.906   1.755   3.736  0.8426  0.1849  0.9375
11823SOL     OW36046   4.351   8.688   8.437  0.4691 -0.0680  0.0401
11823SOL    HW136047   4.379   8.602   8.404  0.5384  0.3132 -0.9191
11823SOL    HW236048   4.276   8.668   8.493  0.3020 -0.7319 -0.4009
11824SOL     OW36049   2.599   5.140   4.050  0.2563  0.9473  0.6045
11824SOL    HW136050   2.597   5.205   3.979  0.0248  1.4100  1.0217
11824SOL    HW236051   2.677   5.161   4.100 -0.6776  1.9852  1.7025
11825SOL     OW36052   2.368   6.078   8.870  0.2321  0.4955 -0.0401
11825SOL    HW136053   2.328   6.136   8.934 -0.1634 -2.1620  2.3648
11825SOL    HW236054   2.313   5.999   8.871  1.3044 -0.3739 -2.3017
11826SOL     OW36055   6.592   0.598   7.420 -0.2022  0.8645  0.0640
11826SOL    HW136056   6.563   0.512   7.449  2.4455  0.6505  2.4809
11826SOL    HW236057   6.568   0.657   7.491 -0.8770  1.9439 -1.0170
11827SOL     OW36058   7.181   9.527   7.339  0.4215  0.2137 -0.0819
11827SOL    HW136059   7.106   9.550   7.395  0.0141 -0.8583 -0.1752
11827SOL    HW236060   7.229   9.609   7.330 -0.4570  0.8030  0.4133
11828SOL     OW36061   7.217   8.742   8.023 -0.1081  0.8368  0.1827
11828SOL    HW136062   7.223   8.815   7.962  0.4414  0.4629 -0.2173
11828SOL    HW236063   7.307   8.720   8.045 -0.2496  0.0250 -0.0078
11829SOL     OW36064   0.852   8.137   2.197  0.9057 -0.3546  0.1981
11829SOL    HW136065   0.802   8.162   2.275  0.4267  0.3172 -0.3126
11829SOL    HW236066   0.916   8.208   2.186  1.7163 -1.0064  0.6113
11830SOL     OW36067   0.270   5.573   2.380  0.3371 -0.3938  0.3411
11830SOL    HW136068   0.350   5.563   2.431  0.1674  0.4263  0.7866
11830SOL    HW236069   0.288   5.527   2.298  1.3960  0.0694  0.2902
11831SOL     OW36070   2.183   9.872   2.019 -0.2103  0.3226 -0.0577
11831SOL    HW136071   2.206   9.816   1.945  1.0092  0.5159  0.1621
11831SOL    HW236072   2.105   9.830   2.057 -0.4380 -0.1599 -1.0241
11832SOL     OW36073   2.612   0.365   2.742  0.1171  0.2835 -0.7782
11832SOL    HW136074   2.639   0.287   2.791 -1.4362 -0.8722 -1.6693
11832SOL    HW236075   2.629   0.342   2.650 -0.1878  1.0650 -1.0336
11833SOL     OW36076   0.129   9.744   4.930  0.0133 -0.3944  0.0339
11833SOL    HW136077   0.164   9.674   4.986 -0.1167 -0.7424 -0.3183
11833SOL    HW236078   0.202   9.770   4.874  0.3010  0.3282  0.7201
11834SOL     OW36079   8.149   0.476   4.698 -0.1215 -0.1502 -0.2328
11834SOL    HW136080   8.235   0.488   4.737  1.4349 -0.2254 -3.3186
11834SOL    HW236081   8.090   0.529   4.752  1.9462  0.4081  1.6048
11835SOL     OW36082   1.942   7.787   7.784 -0.0491  0.5050  0.1390
11835SOL    HW136083   2.029   7.750   7.800  0.5713  1.9037  0.1880
11835SOL    HW236084   1.949   7.828   7.698 -0.6087  0.7669  0.2176
11836SOL     OW36085   9.764   6.814   1.574  0.3093  0.1209  0.1442
11836SOL    HW136086   9.816   6.743   1.610 -1.7071 -1.3121  0.3898
11836SOL    HW236087   9.781   6.811   1.480  0.5952 -0.3781  0.2107
11837SOL     OW36088   2.650   1.734   5.982  0.3502 -0.1088  0.0725
11837SOL    HW136089   2.651   1.759   5.889 -0.7257 -0.2435  0.0090
11837SOL    HW236090   2.606   1.649   5.984  0.1262  0.0141  0.7330
11838SOL     OW36091   0.076   3.372   5.461 -0.0554  0.7737  0.0929
11838SOL    HW136092   0.047   3.459   5.486  0.9814  0.8908  0.9155
11838SOL    HW236093   0.080   3.323   5.543 -0.1956  0.0742 -0.3058
11839SOL     OW36094   6.640   1.508   0.994  0.9697  0.4220 -0.4719
11839SOL    HW136095   6.604   1.592   1.022  0.2755  0.0891 -0.3410
11839SOL    HW236096   6.662   1.520   0.902  0.7269  0.7066 -0.4940
11840SOL     OW36097   9.160   0.767   8.660  0.4900 -0.4001 -0.1575
11840SOL    HW136098   9.138   0.860   8.663  1.8049  0.0638 -2.3326
11840SOL    HW236099   9.156   0.738   8.751 -1.9138  1.2704  0.3497
11841SOL     OW36100   6.296   0.969   1.392 -0.2778 -0.2223  0.0088
11841SOL    HW136101   6.213   1.013   1.371 -1.0666 -1.7786 -0.3012
11841SOL    HW236102   6.310   0.909   1.319  2.3650  1.5868 -1.1364
11842SOL     OW36103   6.425   1.592   8.271  0.1471  0.4349 -0.0436
11842SOL    HW136104   6.378   1.647   8.207  0.4148 -1.3159 -1.8432
11842SOL    HW236105   6.388   1.505   8.260  0.3117  0.0296  2.1640
11843SOL     OW36106   9.025   3.560   1.106  0.2744  0.4032  0.1733
11843SOL    HW136107   8.932   3.581   1.107  0.1560  0.0181 -1.0265
11843SOL    HW236108   9.064   3.624   1.046  0.6396  0.0270  0.0025
11844SOL     OW36109   2.396   3.396   4.929  0.4751  0.0196  0.2045
11844SOL    HW136110   2.398   3.488   4.956 -0.3050  0.5746 -1.4791
11844SOL    HW236111   2.474   3.385   4.875 -0.9121  0.5543 -2.0240
11845SOL     OW36112   6.627   3.884   9.496 -0.2483  0.4022 -0.1752
11845SOL    HW136113   6.606   3.827   9.421  0.8849  1.3913 -1.3089
11845SOL    HW236114   6.722   3.897   9.489 -0.1331  0.5834  1.4178
11846SOL     OW36115   8.595   8.481   3.372 -0.0479 -0.0523 -0.5994
11846SOL    HW136116   8.678   8.511   3.335  0.2999  0.5527  0.6111
11846SOL    HW236117   8.555   8.560   3.408  2.2419 -1.0830  5.3604
11847SOL     OW36118   8.831   3.168   6.472  0.2131 -0.0142  0.0588
11847SOL    HW136119   8.892   3.095   6.470 -0.5605 -0.6600 -0.4117
11847SOL    HW236120   8.858   3.223   6.398 -0.5351 -0.9387 -0.9274
11848SOL     OW36121   2.172   9.021   1.892  0.2124 -0.4789 -0.1486
11848SOL    HW136122   2.240   8.996   1.830 -0.2482 -0.2798 -0.7407
11848SOL    HW236123   2.091   8.983   1.857 -0.6156  2.1522 -1.3671
11849SOL     OW36124   5.036   2.740   1.607  0.0929 -0.2680  0.2571
11849SOL    HW136125   4.966   2.765   1.667 -0.2592 -0.5614 -0.0229
11849SOL    HW236126   4.991   2.702   1.532  0.4695  1.1953 -0.7400
11850SOL     OW36127   4.914   7.143   6.574  0.4521  1.1939 -1.3236
11850SOL    HW136128   4.870   7.120   6.492  0.5386  0.1346 -1.0875
11850SOL    HW236129   4.975   7.071   6.590 -0.5414  0.6612  0.3617
11851SOL     OW36130   8.848   3.878   9.721 -0.5049  0.2576 -0.2076
11851SOL    HW136131   8.823   3.806   9.780 -2.3486  0.4406 -0.7029
11851SOL    HW236132   8.865   3.835   9.637  2.3881 -0.0374  0.4278
11852SOL     OW36133   1.081   2.929   4.174 -0.3789 -0.0889 -0.5731
11852SOL    HW136134   1.049   2.997   4.233 -0.3965 -1.4976  1.1166
11852SOL    HW236135   1.158   2.967   4.133  2.0488 -0.3176  3.3135
11853SOL     OW36136   0.627   9.653   0.964  0.0249 -0.0157  0.5504
11853SOL    HW136137   0.551   9.673   0.909  0.7202 -1.3711 -0.9849
11853SOL    HW236138   0.589   9.614   1.043 -0.8883 -1.1759 -0.4149
11854SOL     OW36139   6.144   0.441   6.216 -0.0772 -0.0837  0.2796
11854SOL    HW136140   6.071   0.378   6.225  0.3905 -0.4834  1.6363
11854SOL    HW236141   6.116   0.516   6.269  0.1529  0.0870  0.1551
11855SOL     OW36142   5.331   2.386   2.660 -0.5316  0.5785 -0.8458
11855SOL    HW136143   5.348   2.352   2.747 -2.9229 -2.5560 -1.4510
11855SOL    HW236144   5.257   2.446   2.671 -1.6538 -0.7817 -0.8503
11856SOL     OW36145   9.277   9.218   8.898 -0.9972  0.1385 -0.5008
11856SOL    HW136146   9.318   9.210   8.984  0.2447 -1.8545 -1.2085
11856SOL    HW236147   9.311   9.300   8.862  1.1461 -0.6534 -0.4028
11857SOL     OW36148   7.887   5.911   3.683  0.2673  0.2663  0.5466
11857SOL    HW136149   7.940   5.832   3.670 -1.3903 -0.9877  0.8868
11857SOL    HW236150   7.823   5.907   3.611 -1.1324  0.1221  1.7517
11858SOL     OW36151   5.864   4.454   8.175  0.0669  0.4035  0.0201
11858SOL    HW136152   5.931   4.489   8.116 -0.6809  1.0241 -0.4926
11858SOL    HW236153   5.904   4.378   8.215  0.5975 -0.0576 -1.3243
11859SOL     OW36154   7.094   5.194   5.687  0.1124  0.5476 -0.0107
11859SOL    HW136155   7.124   5.262   5.626  0.5670 -1.0491 -1.6538
11859SOL    HW236156   6.999   5.196   5.680  0.1158  1.0555  0.0220
11860SOL     OW36157   9.053   1.248   1.818  0.3747  0.6611 -0.5694
11860SOL    HW136158   9.086   1.337   1.806  2.8523  0.0318  0.8446
11860SOL    HW236159   9.116   1.207   1.878 -0.2841 -2.2465 -1.6885
11861SOL     OW36160   5.377  -0.006   1.712  0.5816  0.1434  0.4703
11861SOL    HW136161   5.331   0.067   1.671  0.6055 -1.1638 -2.0760
11861SOL    HW236162   5.339  -0.013   1.800 -1.1270  1.6727 -0.0924
11862SOL     OW36163   2.842   4.584   9.166  0.0744  0.3966  0.3637
11862SOL    HW136164   2.932   4.584   9.135  0.1063  1.3728  0.4167
11862SOL    HW236165   2.821   4.676   9.180 -0.7652  0.1504  0.8457
11863SOL     OW36166   8.159   9.329   8.412 -0.8636  0.3789  0.3579
11863SOL    HW136167   8.181   9.370   8.328  1.6570  0.5063  0.9962
11863SOL    HW236168   8.084   9.379   8.444 -0.7407  1.4955 -0.9982
11864SOL     OW36169   8.409   8.341   3.084 -0.0013 -0.0507  0.2231
11864SOL    HW136170   8.359   8.308   3.159 -0.3370 -3.0812 -1.1655
11864SOL    HW236171   8.500   8.323   3.106 -0.0192 -0.0598  0.2882
11865SOL     OW36172   7.468   1.496   5.760  0.0863 -0.2421 -0.0543
11865SOL    HW136173   7.555   1.534   5.752  0.4208 -1.0121 -0.1347
11865SOL    HW236174   7.482   1.401   5.759 -0.7914 -0.3855 -0.6112
11866SOL     OW36175   3.980   3.558   7.453 -0.3735 -0.4246  0.2879
11866SOL    HW136176   3.966   3.506   7.533 -1.1483 -1.1922 -0.3219
11866SOL    HW236177   3.942   3.504   7.383 -0.7164  0.7408 -0.4401
11867SOL     OW36178   7.794   1.426   6.369  0.1136 -0.3000  0.2442
11867SOL    HW136179   7.711   1.462   6.336  0.4438  0.2606  0.0180
11867SOL    HW236180   7.859   1.494   6.350  0.7893 -1.1102 -0.4015
11868SOL     OW36181   2.618   6.362   2.952 -0.1434  0.0121  0.0173
11868SOL    HW136182   2.709   6.333   2.945  0.4248  0.1923  4.1341
11868SOL    HW236183   2.619   6.452   2.920  0.7602 -0.4635 -1.3827
11869SOL     OW36184   0.543   6.741   3.967  0.1396 -0.2360 -0.6180
11869SOL    HW136185   0.559   6.815   3.910 -1.0737  0.2427 -0.3525
11869SOL    HW236186   0.573   6.770   4.053 -1.8345  0.5793 -0.1673
11870SOL     OW36187   5.830   9.180   7.759  0.0045 -0.0078 -0.3595
11870SOL    HW136188   5.740   9.200   7.732 -0.0089  0.2036 -0.1600
11870SOL    HW236189   5.841   9.087   7.739 -0.0912  0.0835 -0.8605
11871SOL     OW36190   9.482   8.928   7.716 -0.7366  0.2480  0.0209
11871SOL    HW136191   9.518   8.970   7.638  0.9264 -0.3700  0.4300
11871SOL    HW236192   9.432   8.854   7.682 -0.7081  0.4649 -0.5034
11872SOL     OW36193   1.670   6.272   3.518 -0.0370 -0.0072  0.8331
11872SOL    HW136194   1.701   6.186   3.489 -0.8718 -0.5295  1.4289
11872SOL    HW236195   1.702   6.280   3.608 -1.0344 -0.2732  1.2283
11873SOL     OW36196   4.683   9.842   8.557 -0.3326 -0.0065  0.1363
11873SOL    HW136197   4.616   9.873   8.618 -0.5948 -1.2469  0.5213
11873SOL    HW236198   4.635   9.786   8.495  0.4215 -1.6263  0.9362
11874SOL     OW36199   1.029   6.980   7.318  0.2675  0.3985 -0.0774
11874SOL    HW136200   1.034   7.075   7.331  2.5364  0.5438 -1.4566
11874SOL    HW236201   0.947   6.967   7.271  0.2494  1.7758 -0.4754
11875SOL     OW36202   2.386   2.585   7.791  0.2036  0.1122 -0.1626
11875SOL    HW136203   2.439   2.660   7.767 -1.9545  0.8955 -3.0823
11875SOL    HW236204   2.441   2.509   7.772  1.6212  0.9016  0.6993
11876SOL     OW36205   5.827   8.356   8.226 -0.2327 -0.0967  0.4796
11876SOL    HW136206   5.868   8.276   8.195 -1.9219 -0.9822  0.4322
11876SOL    HW236207   5.893   8.396   8.283  2.0014  0.3393 -2.2270
11877SOL     OW36208   8.451   4.381  10.002  0.5046 -0.1995  0.4785
11877SOL    HW136209   8.465   4.474   9.984  1.5763 -0.8229 -2.5776
11877SOL    HW236210   8.373   4.359   9.952 -0.0135 -0.8694  1.5634
11878SOL     OW36211   2.261   0.632   7.979  0.1894  0.5965 -0.3923
11878SOL    HW136212   2.248   0.714   7.930 -2.4123  1.6468  1.7610
11878SOL    HW236213   2.329   0.652   8.042  0.5339  0.6376 -0.7735
11879SOL     OW36214   4.355   2.310   4.521  0.0060 -0.0729 -0.6321
11879SOL    HW136215   4.309   2.248   4.466 -1.0649  0.7409 -0.6755
11879SOL    HW236216   4.288   2.370   4.553  0.7606  0.1359  0.6769
11880SOL     OW36217   4.830   6.746   4.826 -0.3269 -0.4013  0.7054
11880SOL    HW136218   4.791   6.677   4.878 -2.3907  0.1798  0.0458
11880SOL    HW236219   4.755   6.794   4.790  0.9489 -0.4750 -2.3854
11881SOL     OW36220   9.379   7.423   4.573 -0.0771 -0.3202 -0.0507
11881SOL    HW136221   9.419   7.474   4.643  1.3288 -1.8157  0.2860
11881SOL    HW236222   9.289   7.409   4.603 -0.0317  0.5971  0.5722
11882SOL     OW36223   6.184   2.432   6.397  0.4799 -0.2818 -0.2997
11882SOL    HW136224   6.160   2.453   6.307  0.2327  0.5919 -0.0445
11882SOL    HW236225   6.101   2.420   6.443  0.6126 -1.4449 -0.3369
11883SOL     OW36226   0.269   2.999   0.168  0.1622 -0.0675 -0.0030
11883SOL    HW136227   0.257   3.007   0.262 -1.5591 -1.8657 -0.0094
11883SOL    HW236228   0.339   2.936   0.157 -0.6768 -1.0369  0.1042
11884SOL     OW36229   9.538   2.467   5.033 -0.3876  0.3917  0.3418
11884SOL    HW136230   9.463   2.411   5.017  0.4209 -0.5868 -0.1788
11884SOL    HW236231   9.602   2.441   4.967  1.6918 -1.1927  2.7730
11885SOL     OW36232   3.709   2.932   2.631  0.6654 -0.3861  0.1155
11885SOL    HW136233   3.717   2.860   2.693  0.0367  0.4019  1.1567
11885SOL    HW236234   3.695   3.009   2.686  1.4912  0.5647 -0.9565
11886SOL     OW36235   4.034   2.643   7.755  0.5957  0.4768  0.1489
11886SOL    HW136236   3.963   2.671   7.813 -0.7846  0.3285 -1.4003
11886SOL    HW236237   4.047   2.551   7.777 -1.6736 -0.3059 -1.4023
11887SOL     OW36238   7.510   3.999   5.974  0.4326 -0.6628  0.1816
11887SOL    HW136239   7.479   4.074   6.026  0.3157  0.2786 -1.1673
11887SOL    HW236240   7.435   3.940   5.971 -0.0787 -0.0228 -0.1451
11888SOL     OW36241   2.167   6.322   4.441  0.0375 -0.4280 -0.1730
11888SOL    HW136242   2.217   6.293   4.517  0.7656  0.8917 -0.1258
11888SOL    HW236243   2.233   6.349   4.377 -0.5796 -0.8792 -1.0319
11889SOL     OW36244   2.015   7.519   7.089  0.2544 -0.1714  0.1732
11889SOL    HW136245   2.095   7.466   7.086 -0.3465 -1.1831  1.0746
11889SOL    HW236246   2.045   7.609   7.081  1.3585 -0.6124 -0.9264
11890SOL     OW36247   0.745   9.522   9.516 -0.1525  0.1485  0.2977
11890SOL    HW136248   0.664   9.493   9.560 -0.1536  1.5407  1.2738
11890SOL    HW236249   0.762   9.454   9.451 -1.9446 -0.3427  0.2762
11891SOL     OW36250   4.487   5.344   1.416  0.2389  0.4452  0.3465
11891SOL    HW136251   4.548   5.417   1.433 -1.9328  2.0205  1.8262
11891SOL    HW236252   4.479   5.299   1.499 -2.2325  1.6356  0.8474
11892SOL     OW36253   8.664   6.192   6.870  0.4074  0.0279  0.0534
11892SOL    HW136254   8.637   6.143   6.792 -3.1968 -1.8841  2.2225
11892SOL    HW236255   8.676   6.125   6.937  1.2324  1.7526  1.6932
11893SOL     OW36256   1.742   5.714   0.067  0.0044 -0.4707 -0.0117
11893SOL    HW136257   1.774   5.773  -0.001  1.7055 -1.5410 -0.1955
11893SOL    HW236258   1.655   5.747   0.089  0.0840  0.8547 -1.5536
11894SOL     OW36259   1.023   2.996   1.448 -0.0996  0.3210  0.2593
11894SOL    HW136260   0.990   3.078   1.484 -0.4272  0.7346 -0.9433
11894SOL    HW236261   1.106   3.021   1.405 -0.7612  0.2779 -1.1064
11895SOL     OW36262   7.702   5.879   3.461 -0.7931 -0.2380 -0.1807
11895SOL    HW136263   7.690   5.786   3.442 -0.6486 -0.2441 -0.2432
11895SOL    HW236264   7.615   5.909   3.489 -0.8186 -0.4119 -0.0736
11896SOL     OW36265   6.643   9.418   5.239 -0.0056 -0.3877 -1.0672
11896SOL    HW136266   6.663   9.409   5.145 -0.1403 -0.8213 -1.0604
11896SOL    HW236267   6.555   9.455   5.241  0.4303  0.6608 -1.1036
11897SOL     OW36268   1.915   3.875   2.311 -0.5414 -0.4705  0.5735
11897SOL    HW136269   1.951   3.963   2.308 -0.2944 -0.5967 -0.8991
11897SOL    HW236270   1.856   3.875   2.386 -1.0879  1.1650  0.1726
11898SOL     OW36271   6.641   2.777   4.518 -0.6252 -0.1476 -0.1823
11898SOL    HW136272   6.728   2.737   4.514 -1.9499 -3.5607  1.1343
11898SOL    HW236273   6.621   2.800   4.427  1.0642 -0.7125 -0.7337
11899SOL     OW36274   0.155   5.659   6.424  0.5501 -0.2117  0.2835
11899SOL    HW136275   0.069   5.660   6.466  1.7708  0.9743  2.9794
11899SOL    HW236276   0.163   5.745   6.384  0.4629 -0.3461 -0.0239
11900SOL     OW36277   7.334   7.504   5.829 -0.1274  0.6335 -0.6902
11900SOL    HW136278   7.340   7.592   5.791 -1.0596  0.4629 -1.2645
11900SOL    HW236279   7.387   7.449   5.770  1.8029  1.0503  0.5578
11901SOL     OW36280   9.910   8.640   4.854 -0.1815 -0.4545  0.5320
11901SOL    HW136281   9.822   8.644   4.891 -0.7556  0.6529 -0.8739
11901SOL    HW236282   9.916   8.553   4.815 -1.4180  0.1366 -1.0864
11902SOL     OW36283   4.882   8.919   9.046 -0.7476 -0.3656  0.0540
11902SOL    HW136284   4.951   8.960   9.098 -1.9590  0.6121  0.9371
11902SOL    HW236285   4.851   8.989   8.988 -0.4030 -1.0457 -0.9729
11903SOL     OW36286   5.434   6.195   6.766 -0.1354 -0.4115 -0.0190
11903SOL    HW136287   5.386   6.113   6.753 -2.0181  0.7396 -0.7273
11903SOL    HW236288   5.367   6.263   6.759  1.6720  1.3256 -1.4830
11904SOL     OW36289   7.651   2.627   1.935 -0.0223 -0.6070 -0.4342
11904SOL    HW136290   7.714   2.577   1.883 -0.0069  0.2226 -1.2148
11904SOL    HW236291   7.682   2.717   1.932  0.0177 -0.5424  1.0801
11905SOL     OW36292   6.343   6.709   3.158 -0.2683  0.2240  0.5456
11905SOL    HW136293   6.325   6.767   3.232  0.5190  0.7772  0.3059
11905SOL    HW236294   6.297   6.628   3.181 -0.8923  0.7281  1.1553
11906SOL     OW36295   9.307   9.721   4.687  0.6260 -0.5794  0.0747
11906SOL    HW136296   9.330   9.666   4.762  0.0708 -0.6693  0.1836
11906SOL    HW236297   9.217   9.695   4.664  0.4160  0.1612  0.0186
11907SOL     OW36298   6.483   9.469   8.342  0.2322  0.4720 -0.1068
11907SOL    HW136299   6.418   9.418   8.293 -1.6431  2.1929  0.4371
11907SOL    HW236300   6.524   9.405   8.400 -3.0110 -0.3436  1.5368
11908SOL     OW36301   8.274   0.602   3.665 -0.2408 -0.4078  0.2079
11908SOL    HW136302   8.340   0.671   3.668 -1.2057  0.6212 -1.1649
11908SOL    HW236303   8.323   0.523   3.643  0.9853 -0.3755  2.4745
11909SOL     OW36304   2.788   9.658   1.829  0.2315 -0.8179  0.2334
11909SOL    HW136305   2.866   9.603   1.829 -1.4964 -3.4781  0.7929
11909SOL    HW236306   2.783   9.693   1.740  1.6818 -1.1451  0.0003
11910SOL     OW36307   1.774   6.406   6.366  0.5997 -0.0781  1.0400
11910SOL    HW136308   1.797   6.383   6.276  0.9569 -0.5196  1.2359
11910SOL    HW236309   1.795   6.499   6.373  1.5721 -0.2778  0.9640
11911SOL     OW36310   8.244   2.513   4.216 -0.1688  0.0180 -0.3944
11911SOL    HW136311   8.296   2.494   4.293  0.7387  0.5351 -0.8558
11911SOL    HW236312   8.156   2.529   4.249 -0.5676 -2.9533  0.1921
11912SOL     OW36313   2.046   7.285   8.122  0.9309  0.5793 -0.2832
11912SOL    HW136314   1.982   7.320   8.060 -1.1929 -0.7919  1.0478
11912SOL    HW236315   2.005   7.294   8.207  0.7970 -3.7323  0.3060
11913SOL     OW36316   6.027   1.228   8.349 -0.0980 -0.3759  0.3641
11913SOL    HW136317   5.980   1.180   8.281 -0.4173 -1.3710  1.2602
11913SOL    HW236318   6.049   1.312   8.308  1.9958 -1.8648 -1.8590
11914SOL     OW36319   8.527   8.177   2.435 -0.1146 -0.1049  0.6128
11914SOL    HW136320   8.519   8.199   2.528 -0.7316  1.4798  0.2248
11914SOL    HW236321   8.605   8.121   2.430  0.3175  0.3279  2.0032
11915SOL     OW36322   4.800   5.286   1.169  0.3627 -0.1694 -0.1291
11915SOL    HW136323   4.894   5.277   1.177  0.6597  2.2085 -0.1493
11915SOL    HW236324   4.784   5.293   1.075  0.3881  0.8890 -0.0752
11916SOL     OW36325   9.631   8.954   9.713 -0.2408  0.3607 -0.4341
11916SOL    HW136326   9.551   8.951   9.659  0.0881  1.1500 -0.9886
11916SOL    HW236327   9.668   9.040   9.695  0.3014  0.3235  0.4609
11917SOL     OW36328   1.142   6.527   9.032 -0.0317  0.1401 -0.4249
11917SOL    HW136329   1.070   6.587   9.047  1.0439  1.2968  0.2589
11917SOL    HW236330   1.100   6.446   9.002 -1.6310  0.6136  0.4354
11918SOL     OW36331   9.182   4.218   5.383 -0.2677 -0.1398 -0.1195
11918SOL    HW136332   9.239   4.292   5.402 -0.8520  0.3721 -0.3208
11918SOL    HW236333   9.171   4.220   5.287  1.2363 -1.6364 -0.3734
11919SOL     OW36334   7.372   3.245   9.527  0.0335 -0.2754 -0.3986
11919SOL    HW136335   7.331   3.158   9.524  1.9716 -1.2716  0.4644
11919SOL    HW236336   7.318   3.298   9.469 -0.5289 -2.3485 -1.9153
11920SOL     OW36337   5.172   2.534   7.528 -0.1854  0.6565 -0.1809
11920SOL    HW136338   5.205   2.531   7.438  0.3461  1.2210 -0.0110
11920SOL    HW236339   5.099   2.597   7.525 -1.8802 -1.2186 -0.7376
11921SOL     OW36340   5.517   3.374   2.727 -0.3410  0.2188 -0.3064
11921SOL    HW136341   5.442   3.429   2.703 -1.5810 -1.6542 -0.9074
11921SOL    HW236342   5.496   3.288   2.691  1.0308 -0.9457  1.5194
11922SOL     OW36343   9.992   5.933   7.598 -0.0041  0.5219  0.5157
11922SOL    HW136344   9.905   5.912   7.562  0.5536 -0.0441 -0.5535
11922SOL    HW236345   9.978   5.937   7.693 -0.4171 -3.8619  0.8769
11923SOL     OW36346   3.831   4.967   9.490 -0.7199 -0.0501  0.1211
11923SOL    HW136347   3.754   4.939   9.441 -0.4601  3.2760 -2.5002
11923SOL    HW236348   3.813   5.058   9.513  1.4165  0.0540  1.6749
11924SOL     OW36349   3.889   1.662   8.427  0.0550  0.2405 -0.0616
11924SOL    HW136350   3.958   1.680   8.363  0.7929  0.1696  0.6886
11924SOL    HW236351   3.809   1.697   8.388  0.0628 -1.6443 -1.9735
11925SOL     OW36352   2.392   1.512   7.498 -0.0101 -0.1263  0.5148
11925SOL    HW136353   2.304   1.528   7.465 -0.7763  1.6169  3.0644
11925SOL    HW236354   2.381   1.440   7.561  0.8888 -1.5547 -0.9025
11926SOL     OW36355   9.712   2.239   2.506  0.4775 -0.1210  0.2963
11926SOL    HW136356   9.646   2.228   2.575 -0.2352  0.0264 -0.3474
11926SOL    HW236357   9.690   2.322   2.464  1.1103 -0.0463  0.1022
11927SOL     OW36358   9.642   4.755   0.428  0.3691 -0.1403  0.2356
11927SOL    HW136359   9.721   4.771   0.481 -0.0319 -1.0101  1.1326
11927SOL    HW236360   9.618   4.842   0.396  1.7288  0.1345 -0.1327
11928SOL     OW36361   5.018   7.572   7.683  0.5597 -0.3127 -0.1499
11928SOL    HW136362   5.044   7.662   7.663  1.0195 -0.3272  0.3410
11928SOL    HW236363   4.925   7.568   7.663  0.6432  0.1367 -0.6430
11929SOL     OW36364   1.607   6.968   2.818 -0.5622 -0.4027  0.4521
11929SOL    HW136365   1.545   6.940   2.751 -1.5044 -0.2752  1.2480
11929SOL    HW236366   1.637   6.887   2.859  0.5920 -0.5328 -0.5972
11930SOL     OW36367   4.610   6.668   1.389 -0.9413  0.5267 -0.2955
11930SOL    HW136368   4.686   6.670   1.330 -1.7903  1.9487 -1.3946
11930SOL    HW236369   4.584   6.759   1.399 -0.5177  0.4239  2.7906
11931SOL     OW36370   1.651   7.804   3.100 -0.0894 -0.3724  0.8256
11931SOL    HW136371   1.563   7.772   3.078 -0.5379  0.5024  1.2723
11931SOL    HW236372   1.654   7.801   3.196  1.1098 -2.2564  0.7820
11932SOL     OW36373   8.162   0.064   8.401 -0.0440  0.0917 -0.9441
11932SOL    HW136374   8.161   0.083   8.495 -1.1941 -2.4542 -0.3593
11932SOL    HW236375   8.252   0.034   8.383  0.2532  0.8417 -0.7357
11933SOL     OW36376   4.197   2.274   9.844 -1.0483  0.0476  0.4310
11933SOL    HW136377   4.211   2.264   9.750 -1.0354 -0.7844  0.5214
11933SOL    HW236378   4.224   2.191   9.882 -1.9018  0.0559  1.0762
11934SOL     OW36379   4.622   0.841   8.216  0.2790  0.0392  0.0995
11934SOL    HW136380   4.581   0.784   8.282 -0.9974  0.0365 -0.6509
11934SOL    HW236381   4.575   0.820   8.135  1.1351  0.7648 -0.5923
11935SOL     OW36382   0.798   9.953   9.588 -0.0094  0.7789 -0.4750
11935SOL    HW136383   0.790   9.941   9.682  4.4851  1.7183  0.2530
11935SOL    HW236384   0.834   9.870   9.556 -2.5994  0.0365 -1.6664
11936SOL     OW36385   7.092   8.038   3.760 -0.5077  0.3768 -0.4036
11936SOL    HW136386   7.023   8.062   3.821 -0.2760  0.2200 -0.0742
11936SOL    HW236387   7.097   8.111   3.699 -1.2284  0.2135 -0.6676
11937SOL     OW36388   6.007   1.276   8.872  0.1557  0.1795 -0.0907
11937SOL    HW136389   5.937   1.297   8.934 -0.5549 -1.4719 -0.2890
11937SOL    HW236390   5.962   1.245   8.794  1.0881  0.0390 -0.5892
11938SOL     OW36391   7.354   4.921   2.731 -0.7002 -0.0704  0.1874
11938SOL    HW136392   7.263   4.908   2.704 -0.3855 -3.4891  0.2754
11938SOL    HW236393   7.382   4.999   2.684 -2.3527 -1.4896 -3.6380
11939SOL     OW36394   0.600   7.594   8.689 -0.6055  0.1754 -0.6550
11939SOL    HW136395   0.670   7.534   8.664 -0.0942  0.7995 -0.7532
11939SOL    HW236396   0.582   7.575   8.781 -1.5274 -1.1850 -1.0948
11940SOL     OW36397   7.943   7.032   5.403  0.2025  0.7206  0.3242
11940SOL    HW136398   7.868   7.002   5.352 -0.9422 -0.9974  2.8247
11940SOL    HW236399   8.010   6.966   5.388 -0.0515  0.3429  0.8271
11941SOL     OW36400   3.923   5.170   5.486 -0.0307  0.1317 -0.2701
11941SOL    HW136401   3.842   5.220   5.492  1.0598  2.0718 -0.6261
11941SOL    HW236402   3.975   5.201   5.560  0.2911 -1.3071  0.1349
11942SOL     OW36403   6.718   2.095   3.351  0.6270 -0.6917  0.3876
11942SOL    HW136404   6.638   2.054   3.383  0.7316 -1.5896 -0.4363
11942SOL    HW236405   6.750   2.148   3.424 -1.2307  0.4799  0.4175
11943SOL     OW36406   4.775   7.835   4.133  0.1127  0.3998 -0.1066
11943SOL    HW136407   4.762   7.927   4.155 -0.0744  0.6477 -1.2067
11943SOL    HW236408   4.716   7.819   4.060  0.7380 -0.3752 -0.4599
11944SOL     OW36409   1.449   8.253   5.948 -0.4914 -0.4910 -0.3183
11944SOL    HW136410   1.421   8.168   5.913 -0.2442  0.1129 -2.0876
11944SOL    HW236411   1.472   8.304   5.870 -0.7460  1.2422  0.7118
11945SOL     OW36412   5.477   7.817   1.181 -0.5294  0.2137  0.0017
11945SOL    HW136413   5.511   7.752   1.243 -2.2048  0.5741  1.3689
11945SOL    HW236414   5.480   7.773   1.096  0.5107 -0.8046  0.5360
11946SOL     OW36415   6.876   0.602   4.281 -0.5178 -0.2719  0.4643
11946SOL    HW136416   6.886   0.527   4.341 -1.7090  1.2612  2.7432
11946SOL    HW236417   6.944   0.663   4.309 -0.3174  0.0052 -0.5931
11947SOL     OW36418   2.354   1.512   6.253  0.0124  0.2578 -0.1177
11947SOL    HW136419   2.272   1.560   6.247 -0.9196 -1.3789 -1.4361
11947SOL    HW236420   2.345   1.458   6.331 -0.3778 -0.2482 -0.5040
11948SOL     OW36421   5.295   8.195   5.335 -0.1601 -0.1141  0.1929
11948SOL    HW136422   5.264   8.124   5.278 -0.7509 -0.0680  0.4563
11948SOL    HW236423   5.283   8.162   5.424 -0.2399  0.2351  0.3124
11949SOL     OW36424   7.271   1.996   3.340 -0.3861 -0.1234  0.0352
11949SOL    HW136425   7.225   2.024   3.419 -0.8986  0.0037 -0.3014
11949SOL    HW236426   7.349   2.051   3.337 -0.5561  0.1338  0.2493
11950SOL     OW36427   6.147   3.672   8.830  0.0834  0.1883 -0.0187
11950SOL    HW136428   6.209   3.744   8.826  0.7355 -0.3753 -0.2659
11950SOL    HW236429   6.200   3.595   8.850 -0.7307 -0.0739  1.2751
11951SOL     OW36430   5.668   2.123   4.688  0.4866 -0.5323  0.0534
11951SOL    HW136431   5.692   2.181   4.616 -2.0890  0.2178 -0.3118
11951SOL    HW236432   5.686   2.174   4.767 -4.2258  2.1929 -0.2544
11952SOL     OW36433   3.981   9.277   5.620  0.6479  0.5460  0.0380
11952SOL    HW136434   4.038   9.330   5.563  0.9142 -0.1045 -0.3066
11952SOL    HW236435   3.978   9.326   5.702  0.1661  1.5603 -0.5625
11953SOL     OW36436   4.364   6.270   2.132  0.2808 -0.5975  0.2982
11953SOL    HW136437   4.334   6.179   2.124  2.2074 -1.4215  1.5251
11953SOL    HW236438   4.407   6.288   2.048  0.8643 -1.2528  0.4380
11954SOL     OW36439   6.581   8.995   0.543 -0.1658 -0.7679 -0.3441
11954SOL    HW136440   6.615   9.075   0.504 -1.7340  0.7738  1.2690
11954SOL    HW236441   6.657   8.953   0.582  0.4385  0.8975  0.3544
11955SOL     OW36442   5.190   9.792   9.145 -0.2655  0.1016  0.1540
11955SOL    HW136443   5.206   9.698   9.153 -0.3149  0.2157  2.0763
11955SOL    HW236444   5.123   9.810   9.211 -0.5716  1.4175 -0.5006
11956SOL     OW36445   6.969   6.341   9.853  0.2317 -0.4521 -0.8647
11956SOL    HW136446   6.988   6.249   9.872 -0.0032 -0.3191  0.0655
11956SOL    HW236447   6.969   6.347   9.758  2.8124 -0.8959 -0.9627
11957SOL     OW36448   0.318   4.908   5.596 -0.7717  0.0817  0.0542
11957SOL    HW136449   0.350   4.858   5.520  1.7067  0.8319  0.5144
11957SOL    HW236450   0.224   4.916   5.580 -0.3034  0.6968 -3.2641
11958SOL     OW36451   5.380   1.940   2.374 -0.6759  0.0418  0.0200
11958SOL    HW136452   5.380   1.885   2.296 -0.0837 -0.0864  0.1098
11958SOL    HW236453   5.379   2.030   2.340  0.7548  0.0133 -0.1678
11959SOL     OW36454   9.076   0.965   5.471  0.8046 -0.2793 -0.5675
11959SOL    HW136455   9.060   1.050   5.511 -0.1214 -0.2281 -1.0205
11959SOL    HW236456   9.028   0.967   5.389  0.0725 -1.5481 -0.1978
11960SOL     OW36457   4.947   7.005   1.033  0.4602  0.2742 -0.6212
11960SOL    HW136458   4.900   6.925   1.057 -0.1419  0.0599 -2.3518
11960SOL    HW236459   5.037   6.977   1.017  0.5364  0.1767 -0.0409
11961SOL     OW36460   5.739   7.447   1.059  0.3547  0.0050 -0.1116
11961SOL    HW136461   5.673   7.455   0.991 -2.7086 -0.8655  2.5032
11961SOL    HW236462   5.778   7.361   1.046 -0.4198 -0.2779 -0.5838
11962SOL     OW36463   5.760   6.104   2.057 -0.8351  0.4174  0.6648
11962SOL    HW136464   5.710   6.116   1.977 -0.0220  1.6623  0.3223
11962SOL    HW236465   5.850   6.093   2.028 -0.8082 -1.3577  1.3042
11963SOL     OW36466   5.092   0.089   7.063 -0.1271  0.0377 -0.5823
11963SOL    HW136467   5.185   0.111   7.065  0.0463 -0.6216 -1.2076
11963SOL    HW236468   5.049   0.173   7.047  0.3387  0.3846 -0.0649
11964SOL     OW36469   3.739   0.842   0.206 -0.1052  0.5156  0.2047
11964SOL    HW136470   3.698   0.927   0.196 -0.3722  0.2098 -1.5608
11964SOL    HW236471   3.690   0.800   0.277 -0.6036  1.4412  0.4205
11965SOL     OW36472   0.465   7.094   8.435  0.4366  0.1195  0.0278
11965SOL    HW136473   0.472   7.152   8.511 -0.1200 -1.7182  1.5510
11965SOL    HW236474   0.550   7.050   8.430 -0.3962 -1.7479  1.3211
11966SOL     OW36475   5.240   2.860   7.899  0.4717 -0.5224  0.8356
11966SOL    HW136476   5.168   2.871   7.961  1.0051 -0.4721  1.4586
11966SOL    HW236477   5.198   2.839   7.816 -0.1914 -2.4695  1.6127
11967SOL     OW36478   1.447   7.683   5.718 -0.1489 -0.0306 -0.0898
11967SOL    HW136479   1.357   7.667   5.690  0.0674 -1.8159  0.1620
11967SOL    HW236480   1.448   7.662   5.811  0.2363  1.3054  0.2318
11968SOL     OW36481   6.743   6.381   5.229  0.3624 -0.2991  0.6835
11968SOL    HW136482   6.795   6.358   5.152  0.3420 -3.0829  1.3769
11968SOL    HW236483   6.805   6.371   5.302  0.0401  0.9955  1.1542
11969SOL     OW36484   1.230   6.903   6.841 -0.2210 -0.1831  0.1133
11969SOL    HW136485   1.210   6.995   6.858 -0.3826 -0.0027 -1.0107
11969SOL    HW236486   1.145   6.862   6.826 -0.2697 -0.7991  1.8275
11970SOL     OW36487   3.068   0.376   3.322 -0.3352 -0.2903  0.3759
11970SOL    HW136488   3.099   0.381   3.231 -0.1489  1.7609  0.5074
11970SOL    HW236489   2.977   0.405   3.317 -1.1135 -2.4619  0.5667
11971SOL     OW36490   6.485   1.148   9.775 -0.7385 -0.5633 -0.0569
11971SOL    HW136491   6.502   1.055   9.794 -0.1294 -0.4316  0.0557
11971SOL    HW236492   6.465   1.150   9.681 -1.4443 -0.8970  0.0727
11972SOL     OW36493   5.684   6.701   7.626 -0.1872  0.5236  0.3158
11972SOL    HW136494   5.736   6.626   7.597  0.1716  1.7589 -2.7226
11972SOL    HW236495   5.728   6.732   7.705  1.6083 -0.5806 -0.1887
11973SOL     OW36496   1.550   7.386   1.601  0.2352 -0.1017  0.3030
11973SOL    HW136497   1.549   7.456   1.666  0.9519  0.1687  0.0232
11973SOL    HW236498   1.607   7.319   1.638  0.1429 -0.2190  0.2344
11974SOL     OW36499   4.909   8.019   8.966 -0.3491 -0.6742  0.5423
11974SOL    HW136500   4.922   7.960   8.891 -1.5841  0.5212 -0.6763
11974SOL    HW236501   4.817   8.008   8.990  0.2078 -1.5573  2.3839
11975SOL     OW36502   2.505   2.368   7.639 -0.5801  0.2172 -0.1632
11975SOL    HW136503   2.512   2.314   7.560 -0.6403 -0.1357  0.0730
11975SOL    HW236504   2.596   2.383   7.666 -0.5782 -0.1837  0.0547
11976SOL     OW36505   0.889   2.909   4.702 -0.0834 -0.3051 -0.2152
11976SOL    HW136506   0.809   2.945   4.665 -0.0946  0.1979  0.2709
11976SOL    HW236507   0.952   2.981   4.698 -0.1592 -0.1441  0.9430
11977SOL     OW36508   5.162   6.963   5.718 -0.6039  0.5305  0.0126
11977SOL    HW136509   5.096   6.912   5.765 -0.0704  0.2630  0.4922
11977SOL    HW236510   5.234   6.972   5.781  0.8826 -1.3501 -1.2901
11978SOL     OW36511   9.105   0.086   5.446  0.9390  0.8092  0.1278
11978SOL    HW136512   9.063   0.009   5.485 -0.6392  0.6757 -1.6581
11978SOL    HW236513   9.199   0.071   5.459  0.5952 -0.4508  1.5202
11979SOL     OW36514   6.146   9.940   8.329 -0.0466 -1.0631  0.3075
11979SOL    HW136515   6.107  10.025   8.310  2.5492  0.3801  0.9538
11979SOL    HW236516   6.075   9.890   8.370 -1.3789  1.1521  0.8736
11980SOL     OW36517   2.314   1.657   6.535 -0.0143 -0.1118  0.0944
11980SOL    HW136518   2.261   1.718   6.586  0.8519  1.2031 -0.5169
11980SOL    HW236519   2.301   1.572   6.578 -1.1688  0.5078  1.0336
11981SOL     OW36520   2.633   3.320   2.419  0.5803  0.3487 -0.5446
11981SOL    HW136521   2.657   3.253   2.355  1.5905  0.4339 -0.2632
11981SOL    HW236522   2.623   3.273   2.501  0.6361  0.4412 -0.4838
11982SOL     OW36523   6.649   6.871   0.542 -0.2394  0.2925  0.2868
11982SOL    HW136524   6.608   6.930   0.606  0.1610  1.4820 -0.5049
11982SOL    HW236525   6.619   6.904   0.457  0.1115 -0.5747 -0.1837
11983SOL     OW36526   8.458   5.002   0.384  0.7711  0.1293  0.0237
11983SOL    HW136527   8.540   5.025   0.428  1.8897 -1.6185 -1.0571
11983SOL    HW236528   8.483   4.938   0.317 -1.7708 -2.3336  1.2356
11984SOL     OW36529   8.282   9.501   0.055 -0.0974  0.7353 -0.2998
11984SOL    HW136530   8.327   9.421   0.027 -1.4515 -1.2565  2.7421
11984SOL    HW236531   8.351   9.566   0.061  1.2460 -0.4428 -1.8230
11985SOL     OW36532   0.325   5.609   9.496 -0.1301  0.0377  0.0179
11985SOL    HW136533   0.416   5.631   9.477  0.4751 -0.5636  1.9307
11985SOL    HW236534   0.295   5.561   9.419  1.7203 -1.2043  0.0062
11986SOL     OW36535   1.081   1.893   3.842 -0.8656  0.3927 -0.1770
11986SOL    HW136536   0.991   1.913   3.870 -0.2356  2.7069  0.3642
11986SOL    HW236537   1.080   1.908   3.747 -1.4022 -1.1541 -0.4470
11987SOL     OW36538   3.137   5.381   0.174  0.2653 -0.5612 -0.2359
11987SOL    HW136539   3.089   5.436   0.112 -0.0727 -0.8717 -0.2524
11987SOL    HW236540   3.221   5.365   0.131  0.5478  0.3287 -0.0229
11988SOL     OW36541   1.668   0.849   6.887 -0.1721 -0.5256 -0.1519
11988SOL    HW136542   1.652   0.811   6.974 -0.1792 -1.6123 -0.6146
11988SOL    HW236543   1.733   0.791   6.847  1.2623  1.0165 -0.1946
11989SOL     OW36544   4.446   7.635   7.419 -0.2368  0.4576  0.2086
11989SOL    HW136545   4.457   7.567   7.353 -1.6665  0.5038 -0.0904
11989SOL    HW236546   4.507   7.611   7.489  0.8498  0.0688 -0.8237
11990SOL     OW36547   3.978   5.338   8.721 -0.1141  0.2677 -0.3754
11990SOL    HW136548   3.884   5.324   8.734 -0.3565  2.5186  0.7195
11990SOL    HW236549   3.999   5.286   8.643 -1.8840 -1.6428  0.3226
11991SOL     OW36550   4.814   6.820   2.917 -0.3857 -0.8502 -0.3471
11991SOL    HW136551   4.773   6.785   2.996 -0.6652 -1.0656 -0.5828
11991SOL    HW236552   4.899   6.854   2.946 -1.3631  1.0501  0.4442
11992SOL     OW36553   5.871   5.044   1.126 -0.3520  0.2002  0.5773
11992SOL    HW136554   5.838   5.064   1.213  0.1015  0.3277  0.7224
11992SOL    HW236555   5.847   5.119   1.073  1.4308  1.2326  1.1428
11993SOL     OW36556   6.493   7.689   1.908 -0.0433 -0.3457  0.2376
11993SOL    HW136557   6.528   7.778   1.910  2.7914 -1.3198 -1.2851
11993SOL    HW236558   6.400   7.700   1.886  0.6437  2.1818 -1.9167
11994SOL     OW36559   5.308  -0.004   0.047  0.0756 -0.3565  0.0149
11994SOL    HW136560   5.388  -0.025   0.094  0.4742  3.6214  1.4811
11994SOL    HW236561   5.254   0.043   0.110 -3.1094 -1.9733 -1.2128
11995SOL     OW36562   4.201   1.695   7.289 -0.0711  0.2253 -0.2867
11995SOL    HW136563   4.175   1.619   7.340  0.0759  0.0628 -0.4551
11995SOL    HW236564   4.293   1.679   7.267 -0.2737  0.0519 -1.0430
11996SOL     OW36565   7.273   4.647   1.060  0.3593 -0.3992 -0.0668
11996SOL    HW136566   7.357   4.606   1.080 -0.0358 -2.0545 -1.5313
11996SOL    HW236567   7.259   4.709   1.131  2.9740  0.2097  0.0339
11997SOL     OW36568   4.330   2.144   8.516 -0.3341  0.3520  0.1016
11997SOL    HW136569   4.294   2.231   8.532 -0.3864  0.0544  1.8089
11997SOL    HW236570   4.408   2.140   8.571  0.5594 -0.1518 -1.1422
11998SOL     OW36571   8.828   7.887   3.038 -0.2266 -0.3401  0.2857
11998SOL    HW136572   8.862   7.955   3.097 -1.0603  2.3669 -2.1088
11998SOL    HW236573   8.893   7.880   2.969 -0.3208 -1.7958  0.3234
11999SOL     OW36574   9.958   4.855   8.276  0.2571 -0.0016 -0.2693
11999SOL    HW136575   9.990   4.815   8.195 -0.1402 -0.4764 -0.1920
11999SOL    HW236576   9.955   4.784   8.340 -0.1866  0.1994 -0.0560
12000SOL     OW36577   6.072   8.516   0.896  0.2356  0.0665 -0.1374
12000SOL    HW136578   6.016   8.591   0.912 -2.4885 -1.7813 -0.4187
12000SOL    HW236579   6.127   8.542   0.822  1.0858  2.5631  1.2637
12001SOL     OW36580   7.546   2.093   2.236  0.2636  0.2333 -0.1420
12001SOL    HW136581   7.627   2.127   2.197  0.1384  0.1692 -0.4544
12001SOL    HW236582   7.488   2.168   2.241  0.3013  0.2552 -0.0187
12002SOL     OW36583   9.395   1.639   9.293  0.3910  0.1790 -0.8545
12002SOL    HW136584   9.433   1.587   9.222  0.7049 -0.1906 -0.4215
12002SOL    HW236585   9.434   1.726   9.282  1.0128 -0.0772 -0.6853
12003SOL     OW36586   4.219   2.941   6.543 -0.1268 -0.4001  0.7263
12003SOL    HW136587   4.144   2.903   6.497 -0.0594  2.1823 -1.7951
12003SOL    HW236588   4.181   2.982   6.621 -1.5259  1.2942 -0.7665
12004SOL     OW36589   8.584   6.995   7.880  0.0570 -0.1830 -0.3586
12004SOL    HW136590   8.658   7.013   7.938  1.4624  0.0148 -2.1159
12004SOL    HW236591   8.624   6.958   7.801 -1.7100  0.0345 -1.4058
12005SOL     OW36592   5.237   2.269   4.517  0.4003 -0.5391  0.7758
12005SOL    HW136593   5.171   2.261   4.449 -0.7854  1.1647  1.6604
12005SOL    HW236594   5.188   2.289   4.596  1.8287 -1.3565  1.9282
12006SOL     OW36595   5.248   2.282   3.228 -0.6298  0.0750 -0.2321
12006SOL    HW136596   5.220   2.332   3.304 -1.1462 -1.9779  0.9816
12006SOL    HW236597   5.342   2.300   3.220 -0.3892 -0.3471  1.4313
12007SOL     OW36598   8.521   4.774   2.168 -0.2144 -0.2271  0.6185
12007SOL    HW136599   8.476   4.831   2.106 -1.1996 -0.5561  1.0229
12007SOL    HW236600   8.526   4.826   2.248 -0.9589 -0.6403  0.9352
12008SOL     OW36601   0.680   2.674   7.046  0.0613  0.6840  0.5022
12008SOL    HW136602   0.647   2.634   6.966 -1.4950 -0.3970  1.6303
12008SOL    HW236603   0.731   2.749   7.016 -0.2842  0.1790 -1.4939
12009SOL     OW36604   0.602   5.026   9.196 -0.2278 -0.3883  0.0907
12009SOL    HW136605   0.697   5.011   9.205 -0.3757 -1.3680  0.1785
12009SOL    HW236606   0.568   5.012   9.284 -0.3220  1.1265  0.3087
12010SOL     OW36607   7.511   3.265   9.233 -0.3608 -0.6035  0.0626
12010SOL    HW136608   7.442   3.330   9.247  0.2514  0.4384 -1.4507
12010SOL    HW236609   7.588   3.301   9.277 -0.1263 -0.4558 -0.4489
12011SOL     OW36610   6.590   2.111   0.533 -0.0911  1.0200 -0.1451
12011SOL    HW136611   6.631   2.077   0.454  1.3486 -0.1225  1.0287
12011SOL    HW236612   6.509   2.060   0.542  0.9267 -0.5706  0.3716
12012SOL     OW36613   6.632   7.367   9.630 -0.6545  0.8666  0.1477
12012SOL    HW136614   6.544   7.345   9.663  0.0168  0.2828  1.6292
12012SOL    HW236615   6.655   7.448   9.674 -0.5638  1.1967 -0.4918
12013SOL     OW36616   4.639   3.637   2.899 -0.3410  0.0417 -0.2493
12013SOL    HW136617   4.563   3.640   2.957  0.2331  0.3734  0.5050
12013SOL    HW236618   4.656   3.728   2.876 -0.2704 -0.0447 -0.5481
12014SOL     OW36619   2.264   0.923   4.154 -0.3877 -0.2149  0.0826
12014SOL    HW136620   2.278   0.987   4.223  1.3581 -0.5146  0.0578
12014SOL    HW236621   2.212   0.854   4.195  0.0836 -0.0931  0.9044
12015SOL     OW36622   8.998   1.254   6.157 -0.1615 -0.0952  0.8000
12015SOL    HW136623   9.035   1.246   6.245  0.9247  0.6804  0.4318
12015SOL    HW236624   9.073   1.246   6.098 -0.5072  1.6585  0.0407
12016SOL     OW36625   2.967   6.863   5.395 -0.5531  0.6312 -0.0054
12016SOL    HW136626   3.051   6.884   5.355 -0.2605  0.1745  0.3536
12016SOL    HW236627   2.974   6.770   5.417 -0.5068  0.9665  1.5505
12017SOL     OW36628   7.150   5.989   8.611 -0.0233  0.1248 -0.2750
12017SOL    HW136629   7.177   5.996   8.519  1.2381 -3.4283 -0.3058
12017SOL    HW236630   7.058   6.015   8.610 -0.6053 -1.6428 -2.9422
12018SOL     OW36631   3.675   5.862   8.401 -0.1209 -0.0283  0.7738
12018SOL    HW136632   3.618   5.864   8.478 -0.1003 -1.0314  0.8281
12018SOL    HW236633   3.684   5.769   8.380  0.3778  0.1984 -0.0693
12019SOL     OW36634   5.457   6.258   1.972 -0.7392  0.1696 -0.2315
12019SOL    HW136635   5.423   6.320   2.037  1.4544  0.5099  0.6532
12019SOL    HW236636   5.464   6.175   2.018  0.8468  0.4166  0.0261
12020SOL     OW36637   2.280   4.577   5.333  0.3616 -0.0011 -0.0141
12020SOL    HW136638   2.261   4.661   5.375  0.2571 -0.3067  0.5574
12020SOL    HW236639   2.299   4.518   5.405 -0.5630 -0.7229 -0.3423
12021SOL     OW36640   5.347   4.149   7.724 -0.9180 -0.2784  0.7380
12021SOL    HW136641   5.322   4.069   7.769 -0.4172 -0.1052  1.3406
12021SOL    HW236642   5.270   4.173   7.672 -0.9233 -1.3688  0.2249
12022SOL     OW36643   7.395   1.418   2.845  0.2852 -0.1265  0.2193
12022SOL    HW136644   7.393   1.454   2.934  0.7547  1.1723 -0.2772
12022SOL    HW236645   7.488   1.403   2.828  0.3117  0.8349 -0.5172
12023SOL     OW36646   0.933   8.773   4.272  0.2901  0.0763 -0.2938
12023SOL    HW136647   1.008   8.719   4.248  0.3038 -0.0353 -0.0150
12023SOL    HW236648   0.857   8.716   4.261  0.4659 -0.7367  2.0188
12024SOL     OW36649   4.929   6.235   5.733 -0.6050  0.1002 -0.0303
12024SOL    HW136650   4.885   6.154   5.708  0.5475 -0.8102  0.7407
12024SOL    HW236651   4.903   6.298   5.666 -0.8098 -1.1567 -1.1859
12025SOL     OW36652   1.048   7.118   0.232 -0.0556  0.0654  0.0912
12025SOL    HW136653   0.984   7.182   0.199 -0.7840 -1.7925 -2.4621
12025SOL    HW236654   0.996   7.060   0.288 -0.4340 -0.7807 -1.0863
12026SOL     OW36655   9.088   5.844   2.370  0.2186 -0.1262  0.7507
12026SOL    HW136656   9.112   5.752   2.362 -2.0270 -0.7340  0.2947
12026SOL    HW236657   9.021   5.845   2.438 -0.7117  0.9744 -0.1488
12027SOL     OW36658   8.383   2.540   1.049 -0.3927  0.2080  0.1231
12027SOL    HW136659   8.317   2.609   1.058 -0.7583 -0.0182 -0.7362
12027SOL    HW236660   8.334   2.465   1.016  0.2564 -0.0287 -0.3052
12028SOL     OW36661   6.687   5.947   5.578 -0.1567 -0.1710 -0.2803
12028SOL    HW136662   6.680   6.038   5.606 -0.4653 -0.0303 -0.7923
12028SOL    HW236663   6.600   5.910   5.595 -0.8110  0.3044 -2.3297
12029SOL     OW36664   1.569   0.272   3.372  0.2385  0.0295 -0.2083
12029SOL    HW136665   1.637   0.255   3.307  1.6780 -0.0622  1.2631
12029SOL    HW236666   1.615   0.274   3.455 -1.3599  1.4561  0.7008
12030SOL     OW36667   4.006   6.624   7.297 -0.0043  0.0696  0.5523
12030SOL    HW136668   4.083   6.588   7.254  0.0091  1.1616 -0.4049
12030SOL    HW236669   3.932   6.584   7.252  0.0041 -0.6525  1.1795
12031SOL     OW36670   1.127   8.050   6.260  0.6412 -0.4056 -0.3874
12031SOL    HW136671   1.141   8.094   6.343 -0.6575  0.5887 -0.6691
12031SOL    HW236672   1.100   8.120   6.200  2.3428 -0.9472 -1.8794
12032SOL     OW36673   7.794   4.651   8.265  0.4097 -0.4905  0.2348
12032SOL    HW136674   7.846   4.663   8.185 -0.2462  0.1262 -0.1091
12032SOL    HW236675   7.774   4.558   8.267  1.9144 -0.8463  0.6292
12033SOL     OW36676   9.986   6.018   2.761  0.4524  0.0386 -0.3374
12033SOL    HW136677   9.902   6.060   2.781  1.2755  1.1371  1.0072
12033SOL    HW236678   9.985   6.006   2.666 -0.5521  1.5447 -0.5522
12034SOL     OW36679   9.048   8.787   7.720  0.1657  0.4687  0.2810
12034SOL    HW136680   8.952   8.792   7.727  0.0228 -1.0887 -0.1869
12034SOL    HW236681   9.063   8.750   7.634  1.2607  1.8312 -0.1475
12035SOL     OW36682   1.317   3.831   7.157  0.4002 -0.1012 -0.7677
12035SOL    HW136683   1.223   3.835   7.137  0.7079  2.2780 -2.0632
12035SOL    HW236684   1.330   3.741   7.188 -2.5983 -0.0595  1.1063
12036SOL     OW36685   9.882   7.552   3.735 -0.2005  0.4843 -0.1103
12036SOL    HW136686   9.964   7.520   3.772  0.2044  3.0159  1.4513
12036SOL    HW236687   9.814   7.524   3.797 -0.0623  1.1404  0.3505
12037SOL     OW36688   0.382   4.084   0.390  0.3416  0.0023  0.2729
12037SOL    HW136689   0.373   4.010   0.331 -1.7860 -0.1524  0.7170
12037SOL    HW236690   0.439   4.053   0.460 -0.6434 -1.3142  0.5411
12038SOL     OW36691   1.837   2.210   7.791  0.3465 -0.2721 -0.3180
12038SOL    HW136692   1.763   2.223   7.851  0.7307  0.1150  0.0731
12038SOL    HW236693   1.800   2.158   7.720 -0.7743  1.3317 -0.9993
12039SOL     OW36694   9.441   8.447   8.161 -0.5922 -0.2007 -0.2474
12039SOL    HW136695   9.532   8.421   8.174 -1.1648 -1.0920  2.5327
12039SOL    HW236696   9.398   8.368   8.127 -0.7706 -0.5479  0.7457
12040SOL     OW36697   7.266   8.433   7.170 -0.4275  0.5087  0.5500
12040SOL    HW136698   7.242   8.379   7.246  2.2350 -0.7927  0.5863
12040SOL    HW236699   7.298   8.515   7.209 -0.6703  0.5231  0.7250
12041SOL     OW36700   3.751   1.244   9.509 -0.2903 -0.1052  0.4525
12041SOL    HW136701   3.775   1.182   9.440 -0.9720  0.6099 -0.4663
12041SOL    HW236702   3.789   1.327   9.480  0.0474  0.0496  1.3255
12042SOL     OW36703   4.735   3.270   2.300 -0.1889 -0.4208  0.3166
12042SOL    HW136704   4.691   3.187   2.280  1.0910 -1.2469  0.8269
12042SOL    HW236705   4.769   3.258   2.389 -0.3800  0.8411  0.5877
12043SOL     OW36706   9.619   3.465   8.168 -0.0934 -0.1369 -0.0702
12043SOL    HW136707   9.608   3.470   8.263  0.3648  2.7983 -0.0743
12043SOL    HW236708   9.701   3.512   8.151 -0.5220 -0.0049 -1.9931
12044SOL     OW36709   8.684   7.390   3.275 -0.5256  0.4285 -0.0314
12044SOL    HW136710   8.698   7.475   3.317 -0.2731 -0.5506  1.9955
12044SOL    HW236711   8.674   7.329   3.348  2.4973 -1.8218 -1.2962
12045SOL     OW36712   1.877   3.335   4.074  0.2253  0.2771 -0.2457
12045SOL    HW136713   1.915   3.332   4.162  0.3796  2.1479 -0.2105
12045SOL    HW236714   1.857   3.427   4.059 -0.8974 -0.1572 -1.7288
12046SOL     OW36715   5.910   9.339   7.008  0.4635 -1.4993  0.1127
12046SOL    HW136716   5.831   9.360   6.960  0.8031 -1.2607 -0.3528
12046SOL    HW236717   5.977   9.325   6.940  0.7842 -1.8511  0.4889
12047SOL     OW36718   2.271   2.287   5.887  0.2129  0.2336 -0.2494
12047SOL    HW136719   2.179   2.315   5.896  0.6121  1.0402  2.3889
12047SOL    HW236720   2.278   2.212   5.945  1.2386  0.2206 -0.3789
12048SOL     OW36721   7.355   6.977   7.625 -0.0733 -0.6059 -0.6296
12048SOL    HW136722   7.419   6.977   7.696 -0.3324 -0.3881 -0.3919
12048SOL    HW236723   7.397   7.025   7.554  0.8147 -2.1691 -1.2122
12049SOL     OW36724   2.782   2.103   6.885  0.0655 -0.3460  0.1010
12049SOL    HW136725   2.756   2.062   6.968 -0.2238 -1.8463 -0.7081
12049SOL    HW236726   2.749   2.045   6.817 -0.2696  1.1975 -1.1180
12050SOL     OW36727   3.855   7.100   3.976 -0.0511  0.1715  0.6603
12050SOL    HW136728   3.772   7.095   3.929  0.0721  0.0106  0.4590
12050SOL    HW236729   3.917   7.055   3.920  0.7722  2.5224 -0.4272
12051SOL     OW36730   5.252   0.384   1.572  0.5938  0.1034 -0.5024
12051SOL    HW136731   5.241   0.474   1.600 -0.6272 -0.5524  1.2982
12051SOL    HW236732   5.235   0.385   1.478  1.0254  1.7887 -0.5831
12052SOL     OW36733   0.095   1.197   2.156  0.5519 -0.3479  0.1717
12052SOL    HW136734   0.072   1.289   2.156  1.2852 -0.1351  1.9060
12052SOL    HW236735   0.178   1.193   2.109  0.5933 -0.1230  0.2275
12053SOL     OW36736   7.906   3.648   2.446  0.7857 -0.0198  0.3797
12053SOL    HW136737   7.986   3.642   2.497  0.6410  0.3507  0.6493
12053SOL    HW236738   7.851   3.710   2.493  0.0431 -0.8184  0.5879
12054SOL     OW36739   0.863   7.072   3.986 -0.3661  0.0580 -0.0470
12054SOL    HW136740   0.842   7.157   3.947 -2.6346  0.1318  1.1808
12054SOL    HW236741   0.866   7.089   4.080  1.0648 -0.8894  0.1079
12055SOL     OW36742   4.426   3.383   3.247 -0.2981  0.2446 -0.1389
12055SOL    HW136743   4.450   3.474   3.267  1.1228 -0.1559  0.0646
12055SOL    HW236744   4.494   3.331   3.289 -0.5976 -0.8842 -1.0190
12056SOL     OW36745   6.438   0.884   3.180 -0.1753 -0.0780  0.8252
12056SOL    HW136746   6.495   0.842   3.244 -1.8668 -2.3439  0.9732
12056SOL    HW236747   6.497   0.913   3.110  1.2126 -2.1914  1.0322
12057SOL     OW36748   4.400   3.250   2.761 -0.2618 -0.7172  0.0410
12057SOL    HW136749   4.475   3.278   2.814 -1.2470  0.7660  0.7067
12057SOL    HW236750   4.371   3.330   2.717 -0.5468 -1.5784 -1.4009
12058SOL     OW36751   3.957   8.324   8.281 -0.1098  0.5379 -0.4814
12058SOL    HW136752   4.020   8.281   8.222  3.1459  0.8386  2.4327
12058SOL    HW236753   3.914   8.253   8.327  1.5158  0.2669  0.6992
12059SOL     OW36754   7.036   9.475   3.449 -0.2972 -0.6088 -0.1096
12059SOL    HW136755   7.076   9.401   3.404 -0.6990 -0.0583 -1.4387
12059SOL    HW236756   6.971   9.436   3.508 -1.1389 -1.3087 -1.4410
12060SOL     OW36757   5.881   4.080   1.965  0.2867 -0.1112  0.9420
12060SOL    HW136758   5.788   4.090   1.945  0.0975 -0.9613  1.3369
12060SOL    HW236759   5.897   3.986   1.955  1.6129  0.2705 -1.2737
12061SOL     OW36760   0.050   5.255   3.264 -0.0634 -0.3066 -0.2555
12061SOL    HW136761   0.131   5.287   3.223 -1.4284  0.7761 -2.3023
12061SOL    HW236762  -0.019   5.306   3.222 -1.8162 -1.1357  1.4998
12062SOL     OW36763   7.194   8.048   0.827 -0.1553  0.0480 -0.5282
12062SOL    HW136764   7.221   8.014   0.742  0.7764 -1.0978  0.1935
12062SOL    HW236765   7.235   7.990   0.890 -0.1156  1.3994  0.7414
12063SOL     OW36766   9.206   0.436   7.766  0.1809 -0.6008  0.0151
12063SOL    HW136767   9.269   0.503   7.740  0.2161 -0.6951 -0.1494
12063SOL    HW236768   9.216   0.428   7.860 -0.3800  0.1912  0.1481
12064SOL     OW36769   9.787   0.926   6.066 -0.3191  0.1932 -0.2268
12064SOL    HW136770   9.869   0.973   6.076 -0.8183  1.0639 -0.1545
12064SOL    HW236771   9.742   0.939   6.150 -0.6945  0.0353 -0.4024
12065SOL     OW36772   4.235   3.520   2.936 -0.1507  0.4287 -0.3624
12065SOL    HW136773   4.152   3.473   2.941  0.7122 -1.5499 -2.6470
12065SOL    HW236774   4.251   3.530   2.842  0.3104  4.4014 -0.0009
12066SOL     OW36775   6.968   5.406   0.819 -0.6481 -0.1619  0.2294
12066SOL    HW136776   7.015   5.328   0.849 -0.6210  0.2639  1.3217
12066SOL    HW236777   7.027   5.446   0.754  0.0730 -0.1569  0.8817
12067SOL     OW36778   4.090   6.257   8.051  0.1372 -0.0298  0.7402
12067SOL    HW136779   4.069   6.167   8.077  1.5035 -0.1828  1.3941
12067SOL    HW236780   4.172   6.250   8.002 -0.0637  0.8013  0.2560
12068SOL     OW36781   3.443   5.595   2.433 -0.7479 -0.2306  0.0019
12068SOL    HW136782   3.521   5.575   2.485 -1.5768  0.1388  1.4394
12068SOL    HW236783   3.398   5.511   2.424  0.5564 -0.7689 -2.1917
12069SOL     OW36784   0.124   3.018   9.663 -0.3640  1.0023  0.3656
12069SOL    HW136785   0.032   3.012   9.687  0.1019 -0.5541  1.9372
12069SOL    HW236786   0.132   2.965   9.583 -0.2434 -2.0204  2.2488
12070SOL     OW36787   4.688   7.575   6.736 -0.3015  0.2640 -0.1727
12070SOL    HW136788   4.699   7.491   6.693 -0.5749 -0.0106  0.2868
12070SOL    HW236789   4.613   7.615   6.693 -0.2568  0.2161 -0.2959
12071SOL     OW36790   2.289   1.128   9.286 -0.7604  0.5021 -0.1206
12071SOL    HW136791   2.205   1.148   9.326 -0.3874 -0.8060  1.4554
12071SOL    HW236792   2.283   1.035   9.263 -0.3270  0.8085 -1.5296
12072SOL     OW36793   7.640   2.619   3.660  0.1183 -0.4852 -0.4064
12072SOL    HW136794   7.702   2.650   3.726 -1.3459 -3.0418  2.4319
12072SOL    HW236795   7.694   2.570   3.598  1.7591  3.2832 -2.3036
12073SOL     OW36796   1.243   5.649   7.132 -0.4261 -0.0120 -0.4807
12073SOL    HW136797   1.211   5.560   7.149  1.3669 -0.2347  2.4148
12073SOL    HW236798   1.338   5.642   7.135 -0.2249  1.8489 -1.1932
12074SOL     OW36799   4.762   7.378   2.448  0.2700  0.3810  0.4246
12074SOL    HW136800   4.788   7.451   2.392 -0.7640  0.5432  0.1457
12074SOL    HW236801   4.839   7.321   2.449  0.0981  0.0664 -1.6496
12075SOL     OW36802   8.571   4.266   8.626  0.1577  0.1193  0.3705
12075SOL    HW136803   8.662   4.293   8.638 -0.0633  1.2619 -0.3880
12075SOL    HW236804   8.572   4.172   8.642  1.2351  0.3108  1.6286
12076SOL     OW36805   9.064   3.757   0.341  0.1831  0.0997  0.0697
12076SOL    HW136806   9.028   3.774   0.428 -0.6413 -0.2618 -0.1902
12076SOL    HW236807   9.135   3.821   0.332  0.3223  0.1004  1.0238
12077SOL     OW36808   2.713   7.486   5.394  0.6166 -0.1491  0.3441
12077SOL    HW136809   2.668   7.474   5.311 -0.2819  0.6561  0.6915
12077SOL    HW236810   2.701   7.404   5.441 -0.4801  0.0308  0.4075
12078SOL     OW36811   9.671   2.464   1.333  0.0649 -0.2028 -0.3110
12078SOL    HW136812   9.581   2.442   1.309 -0.0581  0.0127 -0.0548
12078SOL    HW236813   9.716   2.379   1.339  0.0587 -0.2678 -1.1252
12079SOL     OW36814   2.415   3.683   7.669  0.2599 -0.0473 -0.2758
12079SOL    HW136815   2.365   3.642   7.598 -0.6842  0.9320 -0.2067
12079SOL    HW236816   2.491   3.722   7.625  1.4073 -2.1636 -0.2870
12080SOL     OW36817   1.671   2.755   5.720 -0.2994  0.3916  0.2758
12080SOL    HW136818   1.582   2.776   5.692 -0.0708  0.9456 -0.0413
12080SOL    HW236819   1.713   2.840   5.734  0.1184  0.1315  0.6206
12081SOL     OW36820   5.342   7.706   1.614 -0.5990 -0.1030  0.1891
12081SOL    HW136821   5.435   7.696   1.595 -0.8151 -1.9819 -0.0260
12081SOL    HW236822   5.298   7.683   1.532 -1.3099 -1.1217  0.8415
12082SOL     OW36823   8.349   8.924   2.629 -0.0101  0.6095 -0.1561
12082SOL    HW136824   8.378   9.015   2.635  0.5702  0.6232 -2.3780
12082SOL    HW236825   8.276   8.927   2.567 -2.0398 -0.0689  2.0085
12083SOL     OW36826   5.117   0.401   8.354  0.3310  0.3183  0.6100
12083SOL    HW136827   5.030   0.401   8.315 -0.9845  0.3303  3.2898
12083SOL    HW236828   5.129   0.312   8.387  0.2315  0.9301  2.4079
12084SOL     OW36829   9.502   1.748   8.795  0.4502 -0.2184 -0.5262
12084SOL    HW136830   9.430   1.691   8.767  1.4659 -1.4305 -0.7748
12084SOL    HW236831   9.553   1.762   8.716  0.0055  1.3936 -0.5477
12085SOL     OW36832   2.257   8.952   7.263 -0.1124 -0.5699 -0.0985
12085SOL    HW136833   2.318   9.026   7.261  0.4980 -1.0280  0.6204
12085SOL    HW236834   2.302   8.887   7.316 -1.5054 -0.6841  1.0020
12086SOL     OW36835   8.509   5.424   3.467 -0.6762 -0.6082 -0.2416
12086SOL    HW136836   8.567   5.457   3.399 -0.3733 -0.6828 -0.0201
12086SOL    HW236837   8.471   5.345   3.429  1.1474 -1.9037  0.4519
12087SOL     OW36838   6.648   7.721   6.745  0.4136  0.4164 -0.2542
12087SOL    HW136839   6.676   7.777   6.818  1.8206 -0.2304 -0.2555
12087SOL    HW236840   6.553   7.716   6.753  0.5038  0.7073  1.2863
12088SOL     OW36841   2.539   8.431   3.791  0.0820  0.5756 -0.3347
12088SOL    HW136842   2.451   8.409   3.820  0.2779 -0.2829 -0.3690
12088SOL    HW236843   2.596   8.376   3.844  0.7541  2.6811  1.2335
12089SOL     OW36844   8.163   2.518   1.699  0.4482 -0.7120 -0.5357
12089SOL    HW136845   8.169   2.523   1.794  0.0668 -0.0102 -0.5409
12089SOL    HW236846   8.153   2.609   1.671 -1.7517 -1.0597 -1.0728
12090SOL     OW36847   8.253   2.925   8.945  0.0262 -0.4341  0.3896
12090SOL    HW136848   8.194   2.923   9.020 -0.3774 -1.6319  0.0761
12090SOL    HW236849   8.330   2.876   8.974 -0.4178 -1.5077 -0.1766
12091SOL     OW36850   0.953   3.798   4.511 -0.3166 -0.4556 -0.1332
12091SOL    HW136851   0.906   3.792   4.428 -0.0752 -0.8160 -0.2429
12091SOL    HW236852   1.036   3.754   4.495  0.2827  0.6298 -0.1006
12092SOL     OW36853   0.749   5.199   7.404 -0.5783 -0.1720  0.3122
12092SOL    HW136854   0.674   5.228   7.352  0.6437  0.8005 -0.9819
12092SOL    HW236855   0.715   5.125   7.455 -2.0946 -0.5527 -1.1473
12093SOL     OW36856   2.374   2.389   7.039  0.0694 -0.0356  0.3129
12093SOL    HW136857   2.344   2.454   6.976  1.5613  1.2868  0.9151
12093SOL    HW236858   2.314   2.397   7.113 -2.1933 -2.1469 -1.1316
12094SOL     OW36859   1.774   0.660   7.868  0.6686 -0.1264  0.2217
12094SOL    HW136860   1.700   0.627   7.817 -1.3031  2.7084  1.0203
12094SOL    HW236861   1.849   0.652   7.810 -1.3962  2.8196 -3.2231
12095SOL     OW36862   9.754   5.735   7.872 -0.4443  0.3089  0.5107
12095SOL    HW136863   9.815   5.666   7.845 -1.6356 -0.5721 -0.0392
12095SOL    HW236864   9.810   5.805   7.904  0.8089 -1.5095  2.5953
12096SOL     OW36865   5.708   1.643   2.609 -0.1818 -0.8354 -0.1043
12096SOL    HW136866   5.790   1.637   2.658 -0.7267 -1.1234  0.7910
12096SOL    HW236867   5.718   1.722   2.555  1.7627 -2.3036 -2.0804
12097SOL     OW36868   2.491   4.702   0.877  0.2129  0.6696  0.3771
12097SOL    HW136869   2.503   4.627   0.935  1.1607  0.5043 -0.0044
12097SOL    HW236870   2.400   4.728   0.889 -0.3251 -0.9432  0.0353
12098SOL     OW36871   3.029   7.196   7.773  0.3542  0.3107  0.5553
12098SOL    HW136872   2.953   7.137   7.778  0.5163 -0.0764 -1.1938
12098SOL    HW236873   3.043   7.210   7.680  2.2857  0.5881  0.8542
12099SOL     OW36874   2.794   4.653   6.130  0.6494 -0.2370  0.0700
12099SOL    HW136875   2.877   4.680   6.090  0.3712  0.3394 -0.1345
12099SOL    HW236876   2.819   4.612   6.212  1.2590 -1.7237 -0.8152
12100SOL     OW36877   5.213   6.642   9.439  0.0250  0.4925  0.1657
12100SOL    HW136878   5.285   6.579   9.444 -0.3134  0.1641  1.0835
12100SOL    HW236879   5.173   6.625   9.354 -1.5541 -2.2214  1.3413
12101SOL     OW36880   1.135   7.010   7.798 -0.2897  0.0990  0.3700
12101SOL    HW136881   1.152   7.093   7.754  0.3370 -0.5927 -0.7553
12101SOL    HW236882   1.102   7.034   7.884 -0.8980  1.5057 -0.2278
12102SOL     OW36883   6.875   5.863   3.347  0.7233 -0.1026  0.3832
12102SOL    HW136884   6.857   5.955   3.363  1.2420  0.0021  0.3685
12102SOL    HW236885   6.969   5.858   3.332  0.5051 -0.4287 -1.0439
12103SOL     OW36886   9.899   6.612   5.311 -0.0910  0.4391 -0.9254
12103SOL    HW136887   9.959   6.541   5.289 -3.3294 -2.3910 -1.4577
12103SOL    HW236888   9.871   6.647   5.226  1.7367  2.7569 -0.6684
12104SOL     OW36889   5.698   2.167   9.654 -0.2005 -0.2424  0.0712
12104SOL    HW136890   5.645   2.120   9.590  0.9428 -1.8334  0.2218
12104SOL    HW236891   5.766   2.105   9.679  1.2906  1.4445  0.4547
12105SOL     OW36892   0.592   5.033   2.242  0.3882  0.0160 -0.7026
12105SOL    HW136893   0.627   4.962   2.296  0.5733  0.1838 -0.6033
12105SOL    HW236894   0.656   5.103   2.250 -0.5779  0.7893  0.4861
12106SOL     OW36895   7.458   1.749   8.612  0.1216 -0.3793  0.5805
12106SOL    HW136896   7.367   1.732   8.585  0.0026 -0.5895  1.0997
12106SOL    HW236897   7.509   1.737   8.532 -0.5747  2.4080 -0.3779
12107SOL     OW36898   0.796   5.899   3.589  0.2904 -0.3664 -0.3021
12107SOL    HW136899   0.883   5.869   3.564  1.6478  2.2985  0.8472
12107SOL    HW236900   0.744   5.895   3.509  2.3225  0.8062 -1.7424
12108SOL     OW36901   2.424   5.784   1.919  0.0763  0.2550  0.4535
12108SOL    HW136902   2.462   5.838   1.850 -1.6850  1.5638  0.4224
12108SOL    HW236903   2.434   5.694   1.888  4.0426  0.3302  0.9724
12109SOL     OW36904   5.848   9.869   5.983 -0.1801 -0.1036 -0.1890
12109SOL    HW136905   5.851   9.889   6.077 -0.2781 -0.6616 -0.0625
12109SOL    HW236906   5.924   9.914   5.946  2.3077 -3.1836  0.8007
12110SOL     OW36907   4.406   3.346   6.538  0.7060  0.4895 -0.0223
12110SOL    HW136908   4.452   3.367   6.619 -1.1148  1.1172  0.8982
12110SOL    HW236909   4.453   3.394   6.470  0.5990  2.2272  1.0799
12111SOL     OW36910   8.519   2.733   5.801  0.3381 -0.1626  0.6173
12111SOL    HW136911   8.427   2.739   5.829 -0.1418  1.4534 -1.1196
12111SOL    HW236912   8.531   2.640   5.781 -1.4062 -0.1792 -0.5907
12112SOL     OW36913   8.379   2.457   2.415  0.1751  0.3091  0.5889
12112SOL    HW136914   8.309   2.516   2.388 -0.3873 -0.9778 -0.8986
12112SOL    HW236915   8.412   2.420   2.333  0.6694 -1.2455  1.4540
12113SOL     OW36916   2.854   4.774   7.758 -1.0355  0.5941  0.6893
12113SOL    HW136917   2.775   4.770   7.813 -0.8315  0.9528  1.0133
12113SOL    HW236918   2.926   4.782   7.821 -0.7479  0.3452  0.3914
12114SOL     OW36919   5.976   3.538   9.947  0.2093 -0.0138  0.0371
12114SOL    HW136920   5.909   3.478   9.981  0.4351  0.4439  1.3218
12114SOL    HW236921   5.973   3.614  10.005  1.3093  0.3531 -0.3550
12115SOL     OW36922   6.679   3.405   6.692  0.0946  0.2894 -0.2172
12115SOL    HW136923   6.624   3.372   6.622  0.4608 -0.3997 -0.1927
12115SOL    HW236924   6.623   3.465   6.741 -0.1806  0.7131 -1.0540
12116SOL     OW36925   3.652   8.758   8.936 -0.0046 -0.7566 -0.3827
12116SOL    HW136926   3.674   8.831   8.877  1.0236 -0.4506  0.3376
12116SOL    HW236927   3.711   8.687   8.909  1.0172 -0.3668  0.7262
12117SOL     OW36928   0.244   8.143   7.898 -0.3614 -0.4148 -0.1906
12117SOL    HW136929   0.154   8.176   7.904 -0.4165  0.1881 -2.8604
12117SOL    HW236930   0.235   8.048   7.895 -0.7072 -0.4607  1.5455
12118SOL     OW36931   6.886   2.984   7.451 -0.6419 -0.6825 -0.5008
12118SOL    HW136932   6.824   2.935   7.398 -3.2406  1.5696  0.2403
12118SOL    HW236933   6.853   3.074   7.450  2.6126  0.6630  0.0029
12119SOL     OW36934   8.155   6.616   2.504  0.2759  0.5114 -0.2087
12119SOL    HW136935   8.187   6.574   2.423  0.9349  1.1050 -0.2692
12119SOL    HW236936   8.072   6.572   2.523  1.2628 -1.3171  0.1187
12120SOL     OW36937   0.683   0.881   0.192 -0.1141 -0.1193  0.0557
12120SOL    HW136938   0.727   0.909   0.111  0.6315  3.6164  1.5169
12120SOL    HW236939   0.745   0.821   0.233  0.2333 -0.7855 -1.3700
12121SOL     OW36940   0.717   0.498   3.590 -0.0878  0.6355  0.2501
12121SOL    HW136941   0.781   0.442   3.633 -1.1196 -0.1794  0.7708
12121SOL    HW236942   0.697   0.566   3.655 -0.6813  0.1573  0.5731
12122SOL     OW36943   9.779   3.303   7.664 -0.4833  0.1065  0.2601
12122SOL    HW136944   9.800   3.383   7.712 -2.4071 -0.7885  2.8934
12122SOL    HW236945   9.685   3.291   7.679 -0.5913 -1.7626 -1.4873
12123SOL     OW36946   5.565   6.306   0.163  0.2572  0.7032 -0.2015
12123SOL    HW136947   5.544   6.221   0.125  1.8214 -0.2679  0.9816
12123SOL    HW236948   5.536   6.369   0.097 -3.0009 -0.5686 -0.1397
12124SOL     OW36949   5.737   7.521   0.491 -0.2379  0.1096 -0.1899
12124SOL    HW136950   5.803   7.454   0.509  0.1976  0.6998  0.4435
12124SOL    HW236951   5.745   7.538   0.397 -0.8104 -1.1884 -0.5033
12125SOL     OW36952   7.306   6.890   2.396 -0.2175  0.1370  0.3444
12125SOL    HW136953   7.323   6.945   2.473 -0.4556  0.8853 -0.1342
12125SOL    HW236954   7.229   6.929   2.354  1.6384  1.5609 -1.9462
12126SOL     OW36955   4.588   6.630   6.574  0.5695 -0.6421  0.0840
12126SOL    HW136956   4.527   6.563   6.604  0.0734 -0.4304 -0.4340
12126SOL    HW236957   4.564   6.645   6.483 -1.6163  2.6876  1.0415
12127SOL     OW36958   3.188   7.666   0.423  0.5181  0.3364  0.0035
12127SOL    HW136959   3.199   7.757   0.395 -0.7448  0.8190  0.9971
12127SOL    HW236960   3.113   7.634   0.373  1.2347 -0.3233 -0.6777
12128SOL     OW36961   7.429   4.978   1.059 -0.7333  0.1087 -0.0299
12128SOL    HW136962   7.415   5.054   1.116 -2.1869  0.8072 -1.2537
12128SOL    HW236963   7.359   4.917   1.083 -0.0778 -0.5124  0.3601
12129SOL     OW36964   7.088   5.831   9.089  0.0779  0.6120 -0.0561
12129SOL    HW136965   7.118   5.820   9.179  1.1360  0.3671 -0.4185
12129SOL    HW236966   7.089   5.925   9.074 -0.6377  0.6924  0.3510
12130SOL     OW36967   7.232   1.726   6.704 -0.3143 -0.0406 -0.2296
12130SOL    HW136968   7.289   1.689   6.771  0.2833  2.0436  0.4772
12130SOL    HW236969   7.279   1.711   6.622  1.2118  1.4213  0.3142
12131SOL     OW36970   0.636   1.452   9.277 -0.9667 -0.1064  0.2185
12131SOL    HW136971   0.649   1.522   9.342  2.1451  0.1904 -0.5832
12131SOL    HW236972   0.626   1.498   9.194  3.2592 -0.3926 -0.6768
12132SOL     OW36973   2.034   6.127   0.980 -0.3103 -0.5311 -0.5135
12132SOL    HW136974   2.097   6.061   0.950 -0.6394 -0.6616 -0.9287
12132SOL    HW236975   1.992   6.088   1.056  4.1905  1.7498  3.7179
12133SOL     OW36976   9.629   8.770   3.353 -0.0903 -0.2627  0.3645
12133SOL    HW136977   9.676   8.688   3.365 -0.6958 -0.7532 -0.5048
12133SOL    HW236978   9.554   8.747   3.299 -0.6238  0.7477  0.6547
12134SOL     OW36979   2.874   9.222   7.699 -0.3050 -0.1824  0.1809
12134SOL    HW136980   2.938   9.290   7.714  0.3418 -0.3144 -1.7171
12134SOL    HW236981   2.914   9.143   7.735  0.6918 -0.2792 -1.0465
12135SOL     OW36982   6.275   6.293   7.241  0.1542 -0.5446 -0.1982
12135SOL    HW136983   6.202   6.247   7.283 -1.1586  1.0194 -0.6546
12135SOL    HW236984   6.334   6.316   7.313 -0.1830 -1.1336  0.2802
12136SOL     OW36985   0.083   3.140   0.004  0.3526  0.5162 -0.0316
12136SOL    HW136986   0.098   3.083  -0.071 -1.4432  0.7345 -0.6018
12136SOL    HW236987   0.141   3.106   0.072  0.8506 -0.6693 -1.0147
12137SOL     OW36988   8.168   2.726   6.518  0.0717 -0.1037  0.4577
12137SOL    HW136989   8.244   2.693   6.470  0.3216 -0.6212  1.1990
12137SOL    HW236990   8.129   2.648   6.557 -0.1783  0.3097  1.0409
12138SOL     OW36991   0.406   2.627   4.236  0.0134 -0.1360  0.2614
12138SOL    HW136992   0.341   2.694   4.217  1.5624  1.3781  0.0234
12138SOL    HW236993   0.359   2.561   4.287 -2.0998  0.0099 -1.3811
12139SOL     OW36994   9.854   4.124   4.377 -0.3201 -0.1215  0.3398
12139SOL    HW136995   9.889   4.075   4.451 -0.0061 -0.2267  0.1240
12139SOL    HW236996   9.802   4.061   4.328 -0.2004 -0.1518  0.2518
12140SOL     OW36997   2.628   2.479   4.639 -0.2585  0.3963  0.3460
12140SOL    HW136998   2.656   2.416   4.706  0.8225  1.2310  0.7024
12140SOL    HW236999   2.706   2.531   4.621 -0.5453  0.2149 -1.5658
12141SOL     OW37000   1.881   7.633   7.996 -0.6177 -0.0673  0.5292
12141SOL    HW137001   1.882   7.712   8.051 -1.5969  0.9782 -0.9081
12141SOL    HW237002   1.905   7.663   7.909 -2.1603 -1.1489 -0.3124
12142SOL     OW37003   2.728   8.833   4.933  0.2984  0.2770 -0.2255
12142SOL    HW137004   2.652   8.786   4.965 -0.7132  1.5054 -0.7254
12142SOL    HW237005   2.749   8.792   4.849  2.3279 -2.2759  1.3688
12143SOL     OW37006   6.410   4.138   2.038  0.3224 -0.3314  0.2698
12143SOL    HW137007   6.373   4.150   1.950 -3.8089 -1.6085  1.6022
12143SOL    HW237008   6.471   4.065   2.029  0.8721  0.3156 -1.7217
12144SOL     OW37009   3.650   2.109   2.946 -0.0911  0.2802 -0.1693
12144SOL    HW137010   3.746   2.111   2.941 -0.0841 -0.1326 -0.2462
12144SOL    HW237011   3.630   2.126   3.038  0.0203  1.3068 -0.3306
12145SOL     OW37012   5.803   5.447   4.537  0.2437 -0.0893  0.2689
12145SOL    HW137013   5.770   5.536   4.529 -2.4943 -0.9635  0.7153
12145SOL    HW237014   5.747   5.396   4.478  2.2662 -1.4278 -0.6017
12146SOL     OW37015   0.242   8.251   7.521 -0.1152 -0.3141 -0.2921
12146SOL    HW137016   0.245   8.168   7.474  1.0129 -0.9190  0.7910
12146SOL    HW237017   0.150   8.262   7.545 -0.0456 -2.0870  0.9486
12147SOL     OW37018   6.940   2.747   3.279  0.1776  0.1723 -0.2482
12147SOL    HW137019   6.979   2.807   3.216 -1.0492 -1.2399 -2.4895
12147SOL    HW237020   6.847   2.766   3.277  0.2388  1.1055  2.3615
12148SOL     OW37021   4.905   9.028   9.847 -0.0747 -0.4714  0.0059
12148SOL    HW137022   4.853   9.100   9.809 -0.6475 -1.2316 -0.6773
12148SOL    HW237023   4.984   9.026   9.794  0.1589 -0.0466  0.3280
12149SOL     OW37024   9.771   3.004   4.277  0.2305  0.5086  0.0994
12149SOL    HW137025   9.677   2.988   4.282  0.0170  1.7560  0.3533
12149SOL    HW237026   9.808   2.920   4.247 -0.9987  0.1497 -0.4778
12150SOL     OW37027   8.548   7.516   1.427 -0.1108  0.0876 -0.0599
12150SOL    HW137028   8.561   7.610   1.417 -0.1897  0.4049  2.2751
12150SOL    HW237029   8.605   7.477   1.361 -1.4869  1.7266 -2.4182
12151SOL     OW37030   1.881   4.756   7.447 -0.0079 -0.4495 -0.7054
12151SOL    HW137031   1.894   4.664   7.469 -2.6305 -0.7201 -0.0060
12151SOL    HW237032   1.786   4.770   7.453  0.3057  2.3290 -0.6786
12152SOL     OW37033   0.559   3.551   9.583  0.3835 -0.2368 -0.1757
12152SOL    HW137034   0.623   3.622   9.581  1.5322 -1.2047  0.7820
12152SOL    HW237035   0.542   3.532   9.491 -0.1840  1.4527 -0.4626
12153SOL     OW37036   8.426   5.607   0.626  0.0615  0.1703  0.0078
12153SOL    HW137037   8.411   5.555   0.704 -2.5230 -1.6474 -1.5441
12153SOL    HW237038   8.505   5.571   0.587 -0.3170 -0.9520  0.2497
12154SOL     OW37039   0.389   1.769   1.461  0.1342 -0.0276 -0.0562
12154SOL    HW137040   0.401   1.720   1.379  2.5098 -1.3081  0.9741
12154SOL    HW237041   0.476   1.803   1.481 -0.2342 -0.3760  2.3294
12155SOL     OW37042   1.941   9.984   6.288 -0.1479  0.5599  0.3678
12155SOL    HW137043   1.953   9.909   6.230 -0.1147  1.0428 -0.2614
12155SOL    HW237044   2.026   9.997   6.329  0.0922  0.8077 -0.2029
12156SOL     OW37045   8.500   3.606   8.925 -0.0133 -0.1330  0.5340
12156SOL    HW137046   8.550   3.560   8.992 -0.1113 -1.2718 -0.1538
12156SOL    HW237047   8.409   3.595   8.952  0.0182  0.6238  0.9629
12157SOL     OW37048   1.032   3.627   0.543  0.0509 -0.4298  0.6912
12157SOL    HW137049   1.050   3.674   0.461  0.1643 -0.9882  0.3911
12157SOL    HW237050   1.104   3.654   0.601 -1.2291  1.7298  1.3976
12158SOL     OW37051   6.332   8.438   0.328  0.2553 -0.5175 -0.2404
12158SOL    HW137052   6.332   8.363   0.387  1.2131 -0.2933  0.0660
12158SOL    HW237053   6.374   8.508   0.378  2.6848 -0.7850 -1.7332
12159SOL     OW37054   2.266   1.268   0.242 -0.1010 -0.1254  0.0331
12159SOL    HW137055   2.292   1.255   0.151 -1.8221 -0.4926 -0.4370
12159SOL    HW237056   2.338   1.319   0.280 -0.1776  1.6128 -2.0017
12160SOL     OW37057   4.286   1.262   0.630  0.2814  0.5459  0.0898
12160SOL    HW137058   4.269   1.225   0.716 -1.2469  2.6084  0.7480
12160SOL    HW237059   4.200   1.272   0.590  0.8090  1.4992 -0.8702
12161SOL     OW37060   2.721   2.621   6.910  0.0556 -0.0969 -0.2420
12161SOL    HW137061   2.712   2.556   6.840 -0.3035 -0.3989  0.0804
12161SOL    HW237062   2.694   2.703   6.870 -1.2521 -0.4586 -0.1543
12162SOL     OW37063   9.531   6.919   6.104  0.3023 -0.2339  0.4544
12162SOL    HW137064   9.565   6.835   6.135  1.0882  0.7956  2.6266
12162SOL    HW237065   9.545   6.918   6.010  2.5349 -1.5906  0.7340
12163SOL     OW37066   3.276   2.081   8.937 -0.2507  0.4278 -0.0210
12163SOL    HW137067   3.273   2.154   8.999  1.5666  1.1541 -0.7247
12163SOL    HW237068   3.216   2.107   8.867 -1.6931 -0.0311  1.0019
12164SOL     OW37069   7.334   6.698   7.276  0.8771 -0.6601  0.4365
12164SOL    HW137070   7.413   6.656   7.242 -1.0930 -2.8321 -1.8851
12164SOL    HW237071   7.303   6.752   7.203 -2.5054 -4.0412 -0.9517
12165SOL     OW37072   6.173   3.022   1.092 -0.4860  0.0924 -0.0732
12165SOL    HW137073   6.122   3.099   1.068 -1.3450  0.0707  1.5004
12165SOL    HW237074   6.127   2.986   1.168  1.0035 -0.8411  0.4328
12166SOL     OW37075   0.054   5.276   3.611  0.6312 -0.1197  0.0454
12166SOL    HW137076  -0.005   5.207   3.582  0.0424 -0.5662  2.1445
12166SOL    HW237077   0.022   5.355   3.569  0.8038 -0.9471 -1.7302
12167SOL     OW37078   5.654   7.516   7.639  0.0086 -0.5738  0.8429
12167SOL    HW137079   5.560   7.511   7.655 -0.2126  0.8320  0.1299
12167SOL    HW237080   5.684   7.592   7.689  0.7129 -0.7990  0.7844
12168SOL     OW37081   9.974   1.287   8.042 -0.0112 -0.4199  0.3555
12168SOL    HW137082   9.918   1.345   7.990 -1.7150  0.2371  2.7329
12168SOL    HW237083   9.922   1.208   8.053 -0.2450 -0.0707  2.0174
12169SOL     OW37084   3.503   1.738   9.733  0.0571 -0.6260  0.0599
12169SOL    HW137085   3.449   1.783   9.798  0.9880 -0.6210  0.8573
12169SOL    HW237086   3.524   1.806   9.668 -0.5439 -0.5319 -0.0420
12170SOL     OW37087   2.668   2.836   9.269  0.2752 -0.3251  0.6322
12170SOL    HW137088   2.578   2.869   9.260  0.0662 -1.0778 -0.1920
12170SOL    HW237089   2.662   2.745   9.242  1.1384 -0.6170  1.4057
12171SOL     OW37090   1.830   3.292   3.190 -0.1754  0.2888 -0.0950
12171SOL    HW137091   1.850   3.385   3.182  2.7462  0.0587  2.6468
12171SOL    HW237092   1.841   3.257   3.102  0.5950  2.2099 -0.8035
12172SOL     OW37093   9.338   3.724   9.785  0.0804 -0.3370  0.1150
12172SOL    HW137094   9.433   3.728   9.796 -0.2512  1.0279  3.5945
12172SOL    HW237095   9.315   3.809   9.745  0.3960 -1.4284 -2.5779
12173SOL     OW37096   3.022   6.078   2.733 -0.0398  0.4765  0.7238
12173SOL    HW137097   2.979   6.123   2.661 -0.8862 -0.2957  0.7106
12173SOL    HW237098   2.957   6.013   2.761  0.4425  0.4780  1.8914
12174SOL     OW37099   6.889   5.047   1.401 -0.0520 -0.6818  0.2460
12174SOL    HW137100   6.799   5.058   1.369  0.2512  1.6260  0.0123
12174SOL    HW237101   6.879   5.026   1.493 -0.8627  0.8379  0.5378
12175SOL     OW37102   2.945   6.379   5.232 -0.3187 -0.2246 -0.2014
12175SOL    HW137103   2.853   6.399   5.251 -0.7709 -0.8730 -1.5403
12175SOL    HW237104   2.990   6.463   5.238 -0.9618  0.0712  0.6366
12176SOL     OW37105   7.988   0.456   0.936 -0.2747  0.2297  0.0378
12176SOL    HW137106   7.930   0.415   1.000  0.8452 -1.0940  0.2605
12176SOL    HW237107   7.936   0.463   0.857 -0.7864 -0.8569  0.2539
12177SOL     OW37108   2.828   4.319   2.605 -0.0183  0.1706 -0.1628
12177SOL    HW137109   2.797   4.247   2.660 -0.8373  0.8225  0.2521
12177SOL    HW237110   2.907   4.285   2.563 -0.3950 -0.9682  0.0188
12178SOL     OW37111   1.139   8.767   6.814  0.4088  0.8484 -0.0034
12178SOL    HW137112   1.053   8.753   6.855 -0.3265  0.6581 -1.5448
12178SOL    HW237113   1.194   8.698   6.851 -0.9842 -1.0879 -1.3737
12179SOL     OW37114   5.600   2.502   2.588  0.0651  0.7913 -0.5725
12179SOL    HW137115   5.518   2.467   2.623  0.1372  0.1901 -0.9864
12179SOL    HW237116   5.613   2.455   2.505  3.7724 -3.5917  2.0127
12180SOL     OW37117   3.317   0.657   2.151 -0.0797  0.1046 -0.0870
12180SOL    HW137118   3.270   0.649   2.234  1.1714  1.3174  0.7770
12180SOL    HW237119   3.345   0.568   2.130 -0.2648 -0.1916  0.8820
12181SOL     OW37120   3.412   2.945   8.968  0.1638 -0.1438 -0.1538
12181SOL    HW137121   3.426   2.919   8.877  0.4898  0.7259 -0.3673
12181SOL    HW237122   3.469   2.888   9.019 -0.7017 -1.2648 -0.4008
12182SOL     OW37123   1.738   0.278   5.544  0.1619  0.4364  0.7225
12182SOL    HW137124   1.808   0.239   5.596 -0.4196  0.2406  1.3655
12182SOL    HW237125   1.659   0.267   5.597 -0.5276 -0.1659 -0.3941
12183SOL     OW37126   7.995   0.466   9.404  0.2109 -0.3122  0.1457
12183SOL    HW137127   8.030   0.425   9.483  0.4841 -0.9932 -0.3197
12183SOL    HW237128   8.058   0.535   9.383  0.5632 -0.6493  0.0795
12184SOL     OW37129   5.474   5.613   5.716 -0.5060 -0.1118  0.0132
12184SOL    HW137130   5.483   5.707   5.699 -0.1749 -0.2996 -0.9402
12184SOL    HW237131   5.562   5.578   5.700 -0.0867 -0.3071  2.4117
12185SOL     OW37132   5.118   4.835   9.243 -0.1068 -0.4274 -0.0985
12185SOL    HW137133   5.160   4.760   9.286 -0.4034 -1.2247 -1.1327
12185SOL    HW237134   5.190   4.892   9.218  0.1487 -0.4954  0.4749
12186SOL     OW37135   7.259   2.904   8.072 -0.3660  0.8395  0.3916
12186SOL    HW137136   7.234   2.992   8.043  0.2293  1.3971  1.5062
12186SOL    HW237137   7.340   2.917   8.121  0.2337 -0.4721 -0.1974
12187SOL     OW37138   3.594   7.541   0.226 -0.0258 -0.1133 -0.2499
12187SOL    HW137139   3.621   7.554   0.135 -2.4287 -1.0087 -1.1845
12187SOL    HW237140   3.573   7.448   0.232 -2.6315  0.4274  0.3526
12188SOL     OW37141   9.826   9.219   0.360  0.1195 -0.0144 -0.0037
12188SOL    HW137142   9.898   9.196   0.303  0.1773 -2.0079  0.7999
12188SOL    HW237143   9.868   9.254   0.439  0.2455 -1.2283  0.4871
12189SOL     OW37144   2.413   3.817   7.382  0.4504  0.5535 -0.1551
12189SOL    HW137145   2.341   3.881   7.388 -0.2450 -0.1728 -0.5303
12189SOL    HW237146   2.489   3.869   7.356  0.3865  1.5559  1.4989
12190SOL     OW37147   9.565   7.281   9.891  0.5834 -0.4691 -0.4059
12190SOL    HW137148   9.481   7.326   9.885  0.7636 -0.2667 -1.9067
12190SOL    HW237149   9.615   7.314   9.815  2.0055 -0.6019  0.4382
12191SOL     OW37150   7.915   6.506   2.537  0.7308 -0.8128 -0.3705
12191SOL    HW137151   7.861   6.516   2.459 -0.3129 -1.5275  0.2415
12191SOL    HW237152   7.882   6.428   2.580  1.1099 -0.2873  0.9404
12192SOL     OW37153   1.381   4.926   4.573 -0.7712  0.1954 -0.0280
12192SOL    HW137154   1.466   4.884   4.561 -0.2215  0.5038  2.3180
12192SOL    HW237155   1.317   4.860   4.544  0.2083 -0.4146 -0.8781
12193SOL     OW37156   4.730   9.158   9.114 -0.1964 -0.5861 -0.0419
12193SOL    HW137157   4.650   9.201   9.083  0.9406  2.7650  1.3339
12193SOL    HW237158   4.790   9.163   9.040 -0.5399 -1.1913 -0.3698
12194SOL     OW37159   1.651   3.528   7.469  0.2450  0.7078  0.1480
12194SOL    HW137160   1.604   3.457   7.424  0.2681  1.7417 -1.6144
12194SOL    HW237161   1.585   3.597   7.477  0.9552  1.5192 -0.7614
12195SOL     OW37162   5.411   9.422   5.693 -0.8149 -0.0512  0.2143
12195SOL    HW137163   5.350   9.403   5.622 -1.6342  1.7599  0.3935
12195SOL    HW237164   5.369   9.386   5.771 -1.6013  1.0110  0.3044
12196SOL     OW37165   2.198   7.576   2.148  0.0198 -0.0885 -0.4482
12196SOL    HW137166   2.212   7.487   2.179 -1.1475 -0.2741 -0.4188
12196SOL    HW237167   2.275   7.624   2.177 -1.0727 -0.1707  3.0212
12197SOL     OW37168   3.490   3.071   9.392 -0.3441 -0.2369  0.0231
12197SOL    HW137169   3.466   2.983   9.362  0.5268 -0.8275  0.9781
12197SOL    HW237170   3.586   3.073   9.387 -0.3835  0.9286 -0.6657
12198SOL     OW37171   4.358   6.550   5.420 -0.2350  0.6570 -0.7194
12198SOL    HW137172   4.348   6.489   5.346  2.0755  0.1636 -0.6943
12198SOL    HW237173   4.386   6.632   5.380 -0.1263  0.7388 -0.4744
12199SOL     OW37174   6.071   4.871   2.468  0.3464 -0.8931 -0.4838
12199SOL    HW137175   6.030   4.806   2.411  1.1261 -1.1149 -0.8127
12199SOL    HW237176   6.010   4.882   2.541 -2.0875  1.5026 -2.6745
12200SOL     OW37177   8.818   5.860   4.597  0.0093 -0.0697  0.4491
12200SOL    HW137178   8.758   5.929   4.569  0.0706  0.3321  1.2558
12200SOL    HW237179   8.782   5.780   4.561 -0.3419  0.3230 -0.0858
12201SOL     OW37180   3.034   2.539   7.030 -0.1417  0.6769  0.1765
12201SOL    HW137181   3.012   2.524   7.122  0.2772  0.6214  0.2669
12201SOL    HW237182   2.949   2.548   6.987 -0.4611 -1.9639  0.0872
12202SOL     OW37183   0.359   2.821   2.562 -0.0814 -0.4500 -0.1922
12202SOL    HW137184   0.404   2.745   2.524 -0.3729 -0.5421 -0.3521
12202SOL    HW237185   0.329   2.792   2.648  0.2726 -0.3495 -0.0322
12203SOL     OW37186   8.375   9.659   7.121 -0.3606  0.1236 -0.1751
12203SOL    HW137187   8.441   9.595   7.098 -0.4730 -0.0581  0.0074
12203SOL    HW237188   8.381   9.726   7.052  1.5249  1.2729  1.0096
12204SOL     OW37189   0.918   9.172   2.903 -0.1868 -0.5462 -0.0609
12204SOL    HW137190   0.985   9.236   2.929 -0.8950  0.4636 -0.6267
12204SOL    HW237191   0.862   9.221   2.842  0.0529 -2.1194 -1.6078
12205SOL     OW37192   2.766   8.465   0.429  0.1749 -0.2758  0.3850
12205SOL    HW137193   2.738   8.408   0.501  0.3869  0.3422  0.9726
12205SOL    HW237194   2.736   8.552   0.455  0.9982  0.0948  0.1376
12206SOL     OW37195   1.528   0.238   4.882 -0.4813 -0.3630 -0.0064
12206SOL    HW137196   1.474   0.313   4.908 -0.6182  0.1837 -1.7430
12206SOL    HW237197   1.599   0.236   4.946 -0.9914  0.6556  0.6246
12207SOL     OW37198   8.334   1.478   3.231  0.5048 -0.4492  0.4309
12207SOL    HW137199   8.303   1.564   3.206  2.0248 -0.6175 -2.3493
12207SOL    HW237200   8.255   1.423   3.231 -0.4399  0.8245  2.0280
12208SOL     OW37201   3.869   0.465   8.234  0.1957 -0.3717 -0.3412
12208SOL    HW137202   3.901   0.379   8.263  1.0328  0.3416  0.9359
12208SOL    HW237203   3.911   0.527   8.293 -1.3619  0.8365 -0.4528
12209SOL     OW37204   4.378   6.050   1.343 -0.0173 -0.0416 -0.0238
12209SOL    HW137205   4.318   6.011   1.279  1.5006  0.1288 -1.6482
12209SOL    HW237206   4.380   6.143   1.320  0.5409  0.0237  0.2691
12210SOL     OW37207   3.282   6.835   7.109 -0.1185 -0.1528 -0.3379
12210SOL    HW137208   3.337   6.897   7.157  0.9003 -1.1929 -0.1098
12210SOL    HW237209   3.202   6.829   7.161  0.0490  0.4771 -0.0020
12211SOL     OW37210   9.050   0.768   9.294 -0.8655  0.3077 -0.2110
12211SOL    HW137211   9.095   0.698   9.246 -2.4677  0.5042 -2.1517
12211SOL    HW237212   9.091   0.849   9.262  1.4960  0.3682  2.5681
12212SOL     OW37213   1.620   9.357   9.679 -0.6219 -0.9148 -0.1109
12212SOL    HW137214   1.612   9.374   9.585 -3.9475  0.3609  0.2716
12212SOL    HW237215   1.654   9.439   9.714 -0.7660 -0.8849 -0.0412
12213SOL     OW37216   3.550   9.509   5.835 -0.1442 -0.7359 -0.1487
12213SOL    HW137217   3.590   9.496   5.921  0.0170  0.9868  0.0601
12213SOL    HW237218   3.562   9.424   5.791  0.8687 -1.2647  1.0659
12214SOL     OW37219   9.753   1.330   8.326 -0.3347 -0.0022  0.1626
12214SOL    HW137220   9.687   1.395   8.348 -0.4329 -0.6483  1.9950
12214SOL    HW237221   9.739   1.311   8.233 -0.5472  2.2621 -0.3062
12215SOL     OW37222   8.195   8.357   5.446  0.3173 -0.4555 -0.0435
12215SOL    HW137223   8.160   8.440   5.416  1.6869  0.1181 -0.1359
12215SOL    HW237224   8.229   8.376   5.534 -0.9317 -1.3651  0.6709
12216SOL     OW37225   5.965   6.998   2.454  0.5012 -0.2461 -0.5522
12216SOL    HW137226   5.963   6.926   2.516  2.0352 -0.5630 -0.8221
12216SOL    HW237227   5.873   7.018   2.437 -0.0174  0.5236  2.5347
12217SOL     OW37228   7.448   8.554   8.104 -0.5387 -0.5256 -0.2380
12217SOL    HW137229   7.474   8.493   8.172  0.4984 -1.7594 -1.6648
12217SOL    HW237230   7.520   8.551   8.040 -1.6656  0.2280 -1.6143
12218SOL     OW37231   1.850   1.594   6.764  0.2038 -0.2120 -0.3434
12218SOL    HW137232   1.782   1.531   6.738 -0.0548 -0.3068  0.5414
12218SOL    HW237233   1.823   1.625   6.850  0.4115  1.0075 -0.6919
12219SOL     OW37234   6.850   1.456   1.163 -0.6309 -0.4353 -0.0454
12219SOL    HW137235   6.893   1.482   1.081  1.3852  0.8025  1.3221
12219SOL    HW237236   6.757   1.450   1.140  0.0713 -2.0988 -2.8723
12220SOL     OW37237   1.696   0.622   0.879 -0.4812  0.0868  0.2543
12220SOL    HW137238   1.789   0.633   0.898 -0.2688 -0.0215 -0.6775
12220SOL    HW237239   1.688   0.640   0.785 -1.4416  0.3323  0.3689
12221SOL     OW37240   0.498   5.886   4.147 -0.2786  0.2653 -0.7070
12221SOL    HW137241   0.427   5.937   4.108  1.1800  2.0805 -1.1401
12221SOL    HW237242   0.540   5.842   4.073  0.8374  1.5631 -0.8702
12222SOL     OW37243   6.253   1.250   5.941 -0.3068 -0.0563 -0.3002
12222SOL    HW137244   6.323   1.216   5.998  0.9067  2.8880  0.1332
12222SOL    HW237245   6.212   1.320   5.992 -0.7427  1.0986 -2.1467
12223SOL     OW37246   1.977   2.578   7.460 -0.2144 -0.2671  0.1604
12223SOL    HW137247   2.066   2.601   7.486  0.8146 -4.1630  0.7345
12223SOL    HW237248   1.950   2.649   7.402  3.2117  1.1343  0.0453
12224SOL     OW37249   7.060   4.034   6.068  0.4709  0.0520 -0.3477
12224SOL    HW137250   7.078   4.127   6.054 -0.4250 -0.0511 -2.5052
12224SOL    HW237251   6.977   4.034   6.116  0.1240  0.3777 -0.9281
12225SOL     OW37252   9.543   7.622   1.184 -0.1468  0.3716 -0.4480
12225SOL    HW137253   9.515   7.605   1.274  0.4023  0.9265 -0.1569
12225SOL    HW237254   9.505   7.551   1.132  1.6423 -1.4769  0.6174
12226SOL     OW37255   3.072   0.912   3.894 -0.5473  0.0271 -0.4353
12226SOL    HW137256   3.001   0.880   3.950  0.3984 -3.4455 -0.9746
12226SOL    HW237257   3.044   0.889   3.806 -0.3011  1.9815 -1.0777
12227SOL     OW37258   3.037   7.715   3.899  0.3229  0.3438  0.1478
12227SOL    HW137259   3.115   7.672   3.865 -2.1169 -3.4474 -1.2465
12227SOL    HW237260   3.028   7.794   3.846  2.1562 -0.1175 -0.9368
12228SOL     OW37261   3.732   8.860   5.895 -0.0792 -0.1290  0.4644
12228SOL    HW137262   3.800   8.793   5.882  1.1615  0.9890  0.9838
12228SOL    HW237263   3.650   8.812   5.886  0.7532 -1.4487 -0.6524
12229SOL     OW37264   4.758   8.960   7.073  0.0884  1.0980  0.0973
12229SOL    HW137265   4.731   8.871   7.050  0.0501  1.0070  0.4781
12229SOL    HW237266   4.688   9.016   7.039 -0.2258  0.9226  0.4493
12230SOL     OW37267   3.837   2.096   5.709 -0.2359  0.3924  0.2136
12230SOL    HW137268   3.805   2.026   5.652 -0.6033  0.0053  0.8807
12230SOL    HW237269   3.931   2.098   5.693 -0.1997 -0.3420  0.2724
12231SOL     OW37270   0.556   6.492   1.078 -0.7759  1.5253  0.2076
12231SOL    HW137271   0.561   6.399   1.100 -1.2259  1.2277 -0.9283
12231SOL    HW237272   0.606   6.535   1.148  0.6212  0.3273 -0.0053
12232SOL     OW37273   8.162   7.633   9.287 -0.2244 -0.5943  0.4125
12232SOL    HW137274   8.084   7.577   9.284  1.0456 -2.4127 -1.2078
12232SOL    HW237275   8.203   7.612   9.371 -1.0918 -0.1219  0.9733
12233SOL     OW37276   8.692   6.904   9.938  0.2687  0.7255  0.8285
12233SOL    HW137277   8.720   6.965  10.006 -3.8096  1.0309  2.5508
12233SOL    HW237278   8.659   6.827   9.986 -0.5491 -0.0724 -0.9039
12234SOL     OW37279   4.897   3.900   1.969  0.5613  0.7969 -0.0383
12234SOL    HW137280   4.982   3.943   1.973  1.2063 -0.2703 -1.1287
12234SOL    HW237281   4.876   3.899   1.875 -0.4063  0.5958  0.1744
12235SOL     OW37282   5.861   3.958   0.340  0.5703  0.4067  0.0803
12235SOL    HW137283   5.895   3.931   0.255  1.3068 -1.0260  0.8005
12235SOL    HW237284   5.794   3.894   0.361 -0.8049  1.7250 -0.1462
12236SOL     OW37285   9.426   0.203   7.809 -0.1615 -0.1198 -0.0006
12236SOL    HW137286   9.509   0.237   7.842 -0.4136  0.1494  0.3778
12236SOL    HW237287   9.360   0.259   7.851 -0.5335 -0.4004 -0.2119
12237SOL     OW37288   6.554   3.632   3.543  0.0557 -0.4317  0.1473
12237SOL    HW137289   6.513   3.556   3.502  1.9047  0.7201 -4.4042
12237SOL    HW237290   6.641   3.602   3.568  0.2651 -0.1644 -0.2654
12238SOL     OW37291   1.411   5.600   9.690 -0.4654  0.2036 -0.7581
12238SOL    HW137292   1.464   5.673   9.722 -1.2531  1.4214 -2.1457
12238SOL    HW237293   1.339   5.593   9.753 -0.2283  0.4161 -0.4603
12239SOL     OW37294   4.042   3.921   8.755 -0.2526  0.1854 -0.2446
12239SOL    HW137295   3.949   3.920   8.779  0.1028  0.8224  1.3245
12239SOL    HW237296   4.087   3.886   8.832  0.8251  0.0582 -0.9103
12240SOL     OW37297   9.081   2.837   4.824 -0.6834 -0.0487  0.1959
12240SOL    HW137298   9.112   2.906   4.883 -0.8777 -0.1350  0.3975
12240SOL    HW237299   9.153   2.773   4.822  0.5310  1.2354 -1.7920
12241SOL     OW37300   0.703   2.348   1.077  0.1143  0.1383  0.3446
12241SOL    HW137301   0.743   2.385   0.999  0.3554 -0.7246  0.0425
12241SOL    HW237302   0.768   2.360   1.146 -0.1252  0.9604  0.4418
12242SOL     OW37303   1.843   6.736   2.256 -0.2102  0.2203  0.4094
12242SOL    HW137304   1.769   6.677   2.272 -1.3482  1.2590 -0.7370
12242SOL    HW237305   1.871   6.715   2.167  0.8456 -0.0942  0.7975
12243SOL     OW37306   7.684   7.907   2.077 -0.1244  0.0196  0.3876
12243SOL    HW137307   7.721   7.823   2.051 -3.7734 -1.4814 -0.5217
12243SOL    HW237308   7.640   7.890   2.160 -1.4608  0.8277 -0.1271
12244SOL     OW37309   5.627   3.130   2.421 -0.2879  0.1846 -0.0966
12244SOL    HW137310   5.639   3.036   2.431  0.2655  0.2657  0.0604
12244SOL    HW237311   5.690   3.169   2.483  0.0286  0.6587 -0.7037
12245SOL     OW37312   6.993   3.319   2.192 -0.1495 -0.2965  0.1743
12245SOL    HW137313   6.964   3.295   2.104 -0.1746 -1.1071  0.3865
12245SOL    HW237314   6.934   3.270   2.250 -1.0312  1.2845  0.6722
12246SOL     OW37315   3.082   5.349   3.640 -0.5739 -0.3005 -0.0515
12246SOL    HW137316   3.109   5.345   3.548  1.9452 -0.4146  0.6176
12246SOL    HW237317   3.000   5.300   3.643 -0.5570 -0.5507 -2.1876
12247SOL     OW37318   8.025   1.540   5.592 -0.3055 -0.2776  0.7051
12247SOL    HW137319   8.019   1.567   5.500 -0.6693 -0.3569  0.7027
12247SOL    HW237320   8.067   1.614   5.635  0.3913 -0.4773  0.3769
12248SOL     OW37321   6.799   8.281   2.309 -0.2416  0.1698 -0.4135
12248SOL    HW137322   6.760   8.259   2.224 -0.5617 -0.0144 -0.2203
12248SOL    HW237323   6.883   8.236   2.310 -1.5143 -2.3714  0.5985
12249SOL     OW37324   6.594   9.194   6.278  0.1632  0.4708  0.4242
12249SOL    HW137325   6.659   9.123   6.277 -0.9000 -0.5467  0.9914
12249SOL    HW237326   6.510   9.149   6.287 -1.0891  1.3970 -3.9901
12250SOL     OW37327   3.091   3.350   2.905  0.4597 -0.6773 -0.2568
12250SOL    HW137328   3.046   3.299   2.973 -0.7989 -0.2049 -0.7107
12250SOL    HW237329   3.045   3.330   2.824  0.9341 -0.0100 -0.7132
12251SOL     OW37330   0.691   0.513   7.909 -0.0718 -0.0781  0.5096
12251SOL    HW137331   0.763   0.499   7.848 -1.1986 -0.2650 -0.8312
12251SOL    HW237332   0.652   0.596   7.882 -1.8394 -1.1386 -0.3858
12252SOL     OW37333   4.160   9.337   4.223 -0.0518 -0.2125 -0.3753
12252SOL    HW137334   4.120   9.313   4.307 -0.3098  0.1817 -0.3826
12252SOL    HW237335   4.204   9.257   4.194 -1.1075 -0.7538 -0.5192
12253SOL     OW37336   7.214   9.677   0.267  0.6513  0.7066  0.3947
12253SOL    HW137337   7.167   9.751   0.228  1.1271  0.0176 -1.6456
12253SOL    HW237338   7.283   9.718   0.319  0.1649  1.6998  0.2953
12254SOL     OW37339   4.511   1.050   8.560 -0.2476 -0.1666  0.5223
12254SOL    HW137340   4.599   1.028   8.592 -0.1466 -1.7937 -0.7298
12254SOL    HW237341   4.524   1.075   8.469 -0.9599  0.8081  0.6759
12255SOL     OW37342   0.943   7.173   7.150  0.6915 -0.0551  0.2629
12255SOL    HW137343   1.009   7.238   7.175  0.4900 -0.2233  1.2499
12255SOL    HW237344   0.860   7.213   7.175  0.5332 -0.5098  0.4664
12256SOL     OW37345   5.554   4.230   0.596 -0.0320  0.3617  0.0781
12256SOL    HW137346   5.606   4.223   0.516  0.6480 -0.6071  0.5919
12256SOL    HW237347   5.615   4.263   0.661 -0.3107  0.1491  0.4491
12257SOL     OW37348   1.112   1.321   8.599  0.6393  0.1818  0.5603
12257SOL    HW137349   1.117   1.390   8.534  1.6120 -2.1618 -2.0674
12257SOL    HW237350   1.178   1.257   8.571 -0.8153 -2.2517  2.2900
12258SOL     OW37351   3.437   9.208   3.667  0.3453  0.1084  0.0249
12258SOL    HW137352   3.422   9.231   3.575 -1.4635  1.0516  0.5190
12258SOL    HW237353   3.357   9.163   3.694  0.0213  1.5389  1.6377
12259SOL     OW37354   3.639   6.039   4.825  0.0263  0.1273  0.3244
12259SOL    HW137355   3.706   6.061   4.889  1.0455 -0.4189 -0.5182
12259SOL    HW237356   3.666   6.085   4.745  0.5547 -1.7112 -0.6070
12260SOL     OW37357   0.463   9.678   5.748 -0.2874  0.1073  0.1171
12260SOL    HW137358   0.425   9.684   5.836  0.2315  0.7173  0.3072
12260SOL    HW237359   0.467   9.584   5.730 -0.2451 -0.0287  0.8197
12261SOL     OW37360   3.255   0.889   1.126  0.1720 -0.0980  1.0404
12261SOL    HW137361   3.200   0.872   1.050  0.4393  0.6325  0.6709
12261SOL    HW237362   3.212   0.962   1.170  0.9575  0.6292  0.6239
12262SOL     OW37363   8.043   7.763   0.862 -0.1360  0.1238  0.2665
12262SOL    HW137364   8.008   7.830   0.804 -0.7158  0.7105  1.2703
12262SOL    HW237365   8.013   7.680   0.823 -1.2499  0.5420  0.1958
12263SOL     OW37366   8.471   0.280   5.073 -0.2700 -0.0190  0.2424
12263SOL    HW137367   8.425   0.199   5.093 -0.3910  0.0564  0.2714
12263SOL    HW237368   8.554   0.273   5.120  0.2225 -0.6338 -0.7002
12264SOL     OW37369   5.637   4.050   8.260  0.0607  0.0557  0.1653
12264SOL    HW137370   5.622   4.119   8.325  0.4373 -0.0756  0.3884
12264SOL    HW237371   5.730   4.032   8.264 -0.0461 -0.5292  0.1632
12265SOL     OW37372   3.056   7.467   0.589 -0.6774 -0.0716 -0.1029
12265SOL    HW137373   3.113   7.543   0.581  0.1332 -0.5758  0.6846
12265SOL    HW237374   2.989   7.480   0.522 -0.4686  1.2507 -0.0816
12266SOL     OW37375   4.658   2.237   6.524 -0.0599  0.1628 -0.2447
12266SOL    HW137376   4.693   2.324   6.506 -1.7414  1.3580  1.8249
12266SOL    HW237377   4.597   2.220   6.452  2.6957 -0.9130 -2.5503
12267SOL     OW37378   2.884   5.317   9.733 -0.3741  0.0684 -0.2260
12267SOL    HW137379   2.832   5.240   9.711 -0.8929  0.1092  0.7914
12267SOL    HW237380   2.974   5.287   9.732 -0.5695 -0.5459  0.0985
12268SOL     OW37381   3.299   1.438   0.055  0.6807 -0.3032 -0.5759
12268SOL    HW137382   3.308   1.465  -0.036  1.5962 -1.2271 -0.7828
12268SOL    HW237383   3.299   1.343   0.051 -2.1300 -0.4052  0.1523
12269SOL     OW37384   9.776   4.205   5.737  0.2402  0.3669 -0.4713
12269SOL    HW137385   9.720   4.134   5.768  1.2408 -0.1933  0.0954
12269SOL    HW237386   9.796   4.256   5.815 -1.6774  2.2132 -1.0753
12270SOL     OW37387   7.051   6.302   3.557 -0.2974  0.5170 -0.0505
12270SOL    HW137388   7.028   6.389   3.590  0.5217  0.2087  1.4853
12270SOL    HW237389   7.077   6.254   3.636 -1.1449 -1.2593 -0.8145
12271SOL     OW37390   9.307   6.992   1.907  0.1873  0.0316 -0.2338
12271SOL    HW137391   9.311   7.018   1.999  0.1743  0.3337 -0.3160
12271SOL    HW237392   9.222   6.950   1.897 -1.5084  3.2438 -0.9105
12272SOL     OW37393   6.205   4.537   7.549  0.1849  0.2881  0.2327
12272SOL    HW137394   6.288   4.500   7.518  0.3987  0.1497  0.9614
12272SOL    HW237395   6.147   4.462   7.560  0.6515  0.1340  1.8104
12273SOL     OW37396   9.821   4.148   5.369 -0.2209 -0.6736  0.3174
12273SOL    HW137397   9.750   4.155   5.432 -2.0904 -0.6117 -1.6808
12273SOL    HW237398   9.884   4.089   5.410 -1.1752 -0.3418  2.3549
12274SOL     OW37399   8.221   8.920   9.608 -0.2891 -0.3423  0.0464
12274SOL    HW137400   8.134   8.900   9.642  0.1869 -2.2655  0.2799
12274SOL    HW237401   8.210   8.915   9.512 -0.7226  0.9029  0.0101
12275SOL     OW37402   4.336   8.986   3.587 -0.2834 -0.7169 -0.1755
12275SOL    HW137403   4.344   8.940   3.504 -0.3151 -0.8203 -0.1216
12275SOL    HW237404   4.418   8.968   3.633 -0.3534 -0.8392 -0.0951
12276SOL     OW37405   6.434   8.001   3.692 -0.2469 -0.8402 -0.3685
12276SOL    HW137406   6.452   8.082   3.643  0.2427 -0.0615  1.0471
12276SOL    HW237407   6.511   7.947   3.677  1.0736  0.3957  1.4534
12277SOL     OW37408   7.536   2.515   4.038 -0.3896 -0.2259 -0.4800
12277SOL    HW137409   7.580   2.589   3.996  1.0040 -1.6650 -1.6679
12277SOL    HW237410   7.505   2.549   4.122 -0.6396  1.9470 -1.3965
12278SOL     OW37411   7.960   7.820   7.220  0.3999 -0.2666 -0.4654
12278SOL    HW137412   7.975   7.892   7.282  0.9088 -0.4769 -0.3348
12278SOL    HW237413   7.879   7.843   7.175  0.8511  0.6589 -0.8162
12279SOL     OW37414   7.401   1.412   6.218 -0.5305  0.0993  0.7246
12279SOL    HW137415   7.363   1.461   6.145 -0.1938 -1.3655 -0.4791
12279SOL    HW237416   7.480   1.461   6.240 -1.9240  1.9768  1.8451
12280SOL     OW37417   6.823   9.497   0.133  0.3957  0.2794  0.5063
12280SOL    HW137418   6.916   9.498   0.110  0.0585 -0.4945 -0.9617
12280SOL    HW237419   6.803   9.404   0.147 -0.5903  0.2125 -1.1223
12281SOL     OW37420   0.304   3.360   9.288 -0.4483  0.5020 -0.5718
12281SOL    HW137421   0.400   3.359   9.285 -0.2948  3.5899 -0.1313
12281SOL    HW237422   0.278   3.272   9.259  2.4711 -0.1027 -1.7347
12282SOL     OW37423   5.933   9.576   1.131 -0.0588 -0.3646 -0.4521
12282SOL    HW137424   5.865   9.620   1.183 -0.7318 -0.8500 -0.8988
12282SOL    HW237425   5.953   9.637   1.060  0.0772 -0.1587 -0.2370
12283SOL     OW37426   2.197   9.554   5.540 -0.0544 -0.1414 -0.0436
12283SOL    HW137427   2.243   9.542   5.456 -0.1025  1.4638 -0.3514
12283SOL    HW237428   2.164   9.644   5.535 -2.4227 -0.9143  0.5719
12284SOL     OW37429   0.739   8.330   2.396 -0.1857 -0.2878  0.0836
12284SOL    HW137430   0.715   8.422   2.393  2.2947  0.4050 -0.1625
12284SOL    HW237431   0.790   8.320   2.476  1.0773 -1.0290 -0.7761
12285SOL     OW37432   8.124   4.582   4.207  0.6396  0.4190 -0.1156
12285SOL    HW137433   8.193   4.581   4.140 -0.2372  0.8817 -1.0567
12285SOL    HW237434   8.143   4.506   4.262  2.5559  1.1803  0.3486
12286SOL     OW37435   2.905   4.627   8.137 -0.3480  0.1150  0.2497
12286SOL    HW137436   2.961   4.613   8.214  0.9669 -2.3697 -1.0295
12286SOL    HW237437   2.897   4.540   8.097 -0.4106  1.4121 -2.8271
12287SOL     OW37438   1.853   2.771   7.292 -0.3593 -0.0488  0.5909
12287SOL    HW137439   1.831   2.752   7.200 -0.5067 -0.0979  0.6369
12287SOL    HW237440   1.882   2.862   7.290 -0.0452 -0.1499  0.4404
12288SOL     OW37441   8.426   5.849   4.444 -0.5029  0.5856 -0.4440
12288SOL    HW137442   8.349   5.795   4.464  0.6775 -0.4181  1.7830
12288SOL    HW237443   8.422   5.862   4.349 -1.8210 -1.9402 -0.8313
12289SOL     OW37444   2.764   5.932   9.795 -0.5593  0.0562 -0.3374
12289SOL    HW137445   2.690   5.992   9.784 -1.0491 -0.3396  0.7422
12289SOL    HW237446   2.724   5.846   9.808  0.0944 -0.1834  0.1387
12290SOL     OW37447   8.549   6.919   6.887  0.0640  0.2834  0.0030
12290SOL    HW137448   8.478   6.983   6.890  0.4537  0.7667 -0.7694
12290SOL    HW237449   8.627   6.971   6.870  0.3672 -0.4186 -0.7794
12291SOL     OW37450   5.465   4.130   3.838 -0.3855 -0.0811 -0.1842
12291SOL    HW137451   5.533   4.154   3.901 -1.2287 -0.9109  1.0900
12291SOL    HW237452   5.496   4.047   3.800  0.0695  0.3640 -0.8166
12292SOL     OW37453   8.680   4.257   2.023 -0.2246 -0.4205 -0.0386
12292SOL    HW137454   8.739   4.251   1.947 -0.8177 -0.7998 -0.4771
12292SOL    HW237455   8.697   4.344   2.059  0.6108 -0.5302 -0.1522
12293SOL     OW37456   0.913   6.667   7.172  0.8078  0.6935  0.1290
12293SOL    HW137457   0.847   6.732   7.194  0.8843  0.0937  2.3624
12293SOL    HW237458   0.949   6.697   7.089 -1.9306  1.2624 -0.9507
12294SOL     OW37459   1.190   5.550   9.835 -0.1782  0.5674  0.2561
12294SOL    HW137460   1.193   5.511   9.922 -0.5701 -1.6507 -0.6307
12294SOL    HW237461   1.097   5.545   9.810 -0.2818  2.3758  0.1853
12295SOL     OW37462   7.337   3.273   5.979 -0.3695 -0.0583 -0.2268
12295SOL    HW137463   7.393   3.248   5.906 -1.4426  2.7156 -2.1964
12295SOL    HW237464   7.396   3.285   6.053  1.0423 -1.0223 -1.1603
12296SOL     OW37465   3.780   0.808   3.716  0.0534 -0.4752 -0.0167
12296SOL    HW137466   3.780   0.714   3.737 -0.1247 -0.4031  0.3130
12296SOL    HW237467   3.768   0.851   3.800 -0.3269 -0.1705 -0.2227
12297SOL     OW37468   6.138   1.369   9.218 -0.3408  0.4276 -0.0443
12297SOL    HW137469   6.126   1.283   9.259  1.5766 -0.2604 -0.8098
12297SOL    HW237470   6.227   1.395   9.242 -0.6360  1.8763 -0.4262
12298SOL     OW37471   8.101   1.787   1.132  0.7921  0.0807 -0.3242
12298SOL    HW137472   8.156   1.709   1.133 -0.5924 -0.9574 -1.3027
12298SOL    HW237473   8.132   1.839   1.206  1.5490 -1.5301  0.5421
12299SOL     OW37474   2.484   2.843   7.769 -0.0997  0.1517  0.4062
12299SOL    HW137475   2.507   2.936   7.767  0.5291 -0.0145 -1.2088
12299SOL    HW237476   2.485   2.815   7.678  0.8051 -1.7103  0.9273
12300SOL     OW37477   2.948   0.336   5.792 -0.2567 -0.0931  0.0120
12300SOL    HW137478   2.984   0.253   5.823  2.3043  1.8029  2.6623
12300SOL    HW237479   3.017   0.375   5.738 -0.4604  1.2599  0.6708
12301SOL     OW37480   4.464   9.106   7.262 -0.9721  0.0845  0.4367
12301SOL    HW137481   4.528   9.065   7.320 -0.2753 -0.3267 -0.5936
12301SOL    HW237482   4.497   9.194   7.247 -0.8729  0.0169  0.2556
12302SOL     OW37483   9.859   5.343   1.727 -0.4674 -0.3017 -0.3173
12302SOL    HW137484   9.869   5.438   1.734 -2.7225 -0.0569  0.2430
12302SOL    HW237485   9.784   5.322   1.783 -2.8875 -1.7702 -3.7172
12303SOL     OW37486   2.476   7.362   8.368 -0.4180 -0.3440  0.2226
12303SOL    HW137487   2.525   7.441   8.388  0.6807 -0.3757 -2.0253
12303SOL    HW237488   2.525   7.291   8.411 -1.0931  0.0781  1.7643
12304SOL     OW37489   1.385   5.718   8.280  0.5293 -0.4229 -0.3959
12304SOL    HW137490   1.289   5.722   8.278  0.3787 -2.4197  0.4392
12304SOL    HW237491   1.411   5.729   8.189 -0.4700  0.1384 -0.6355
12305SOL     OW37492   1.323   3.954   5.834 -0.4626  0.0693  0.6070
12305SOL    HW137493   1.274   4.030   5.866 -2.2031 -0.5718 -0.4140
12305SOL    HW237494   1.414   3.983   5.833 -1.2232  2.7773 -1.3637
12306SOL     OW37495   4.938   1.628   9.554 -0.3040  0.4581 -0.2440
12306SOL    HW137496   4.942   1.723   9.541 -1.0307  0.6375  0.6930
12306SOL    HW237497   5.001   1.610   9.623 -0.0532  0.2261 -0.5287
12307SOL     OW37498   6.625   9.222   0.427 -0.1700  0.2897  0.0089
12307SOL    HW137499   6.619   9.231   0.332 -1.6515  2.1268  0.2362
12307SOL    HW237500   6.663   9.304   0.457 -0.9772  0.2793  1.1079
12308SOL     OW37501   0.989   6.237   2.781 -0.0064  0.1131  0.2607
12308SOL    HW137502   1.000   6.318   2.831 -1.1702  0.2006  0.4059
12308SOL    HW237503   1.045   6.173   2.826 -1.2203  0.1165  1.8767
12309SOL     OW37504   5.419   3.379   1.990 -0.2388  0.5681  0.1496
12309SOL    HW137505   5.433   3.327   2.069 -1.2143  1.0777  0.6744
12309SOL    HW237506   5.468   3.460   2.006  1.2737 -0.1242 -0.6638
12310SOL     OW37507   6.715   8.716   7.983 -0.8671  0.0379  0.0458
12310SOL    HW137508   6.800   8.755   8.000 -0.3702 -0.1549 -1.7469
12310SOL    HW237509   6.678   8.699   8.069  0.3248  1.3637  0.8551
12311SOL     OW37510   5.789   9.235   8.781  0.7183 -0.4734  0.3917
12311SOL    HW137511   5.704   9.192   8.792  0.3450 -1.1413 -3.5820
12311SOL    HW237512   5.853   9.169   8.809 -0.0009 -1.3072  0.1334
12312SOL     OW37513   6.217   5.440   9.430  0.1848  0.2843  0.1792
12312SOL    HW137514   6.248   5.403   9.347  0.9164  1.0526  0.0990
12312SOL    HW237515   6.279   5.408   9.495  0.4457  0.8320  0.2065
12313SOL     OW37516   4.214   5.212   2.929 -0.4134 -0.5244 -0.2025
12313SOL    HW137517   4.291   5.265   2.907 -0.7475  0.7352  1.4294
12313SOL    HW237518   4.214   5.141   2.865  2.0234 -0.4847 -0.3160
12314SOL     OW37519   4.178   3.269   0.814  0.2257  0.6455  0.3803
12314SOL    HW137520   4.154   3.239   0.726 -1.0041 -0.7726  1.1517
12314SOL    HW237521   4.267   3.302   0.805  0.7417 -1.0158 -1.0653
12315SOL     OW37522   7.175   1.929   2.612  0.2610 -0.0961 -0.2057
12315SOL    HW137523   7.168   1.836   2.637  0.0084  0.1142  0.5432
12315SOL    HW237524   7.164   1.929   2.517  0.0439 -0.8165 -0.1899
12316SOL     OW37525   1.082   4.750   0.020  0.0546 -0.5929  0.0653
12316SOL    HW137526   1.135   4.672   0.006 -1.3797 -2.1254  2.4851
12316SOL    HW237527   1.072   4.756   0.115 -0.8899  1.8746 -0.1052
12317SOL     OW37528   9.428   6.123   3.877  0.2187 -0.3448  0.8206
12317SOL    HW137529   9.399   6.155   3.791  1.0820 -1.0778  0.2353
12317SOL    HW237530   9.496   6.185   3.903  0.8261 -0.8150  0.3875
12318SOL     OW37531   5.007   3.097   5.434  0.3355  0.0392  0.1892
12318SOL    HW137532   4.952   3.020   5.421  1.3341 -1.0590  1.9566
12318SOL    HW237533   4.953   3.156   5.486 -0.4626  0.6197 -1.2365
12319SOL     OW37534   3.522   9.380   8.457  0.8384  0.3084 -0.0028
12319SOL    HW137535   3.542   9.297   8.412  1.5666  0.5308 -0.1006
12319SOL    HW237536   3.469   9.354   8.532 -0.1888 -0.0963 -0.8336
12320SOL     OW37537   2.175   3.915   8.255  0.0160  0.0683  0.0878
12320SOL    HW137538   2.156   3.989   8.313 -1.4977 -1.0432  1.0552
12320SOL    HW237539   2.091   3.872   8.242  0.4913 -0.3142 -2.1567
12321SOL     OW37540   0.960   6.909   9.739  0.6799  0.4992  0.1145
12321SOL    HW137541   0.922   6.823   9.751  0.4810  0.4209 -0.9857
12321SOL    HW237542   0.917   6.964   9.804 -0.4893  0.1614 -0.3576
12322SOL     OW37543   6.692   9.917   4.680  0.0700 -0.0754 -0.5092
12322SOL    HW137544   6.646   9.933   4.762 -0.9349 -0.3959 -0.9862
12322SOL    HW237545   6.723  10.003   4.652 -0.1046  0.1238 -0.0912
12323SOL     OW37546   2.104   3.286   9.333  0.5151 -1.0328 -0.3227
12323SOL    HW137547   2.124   3.289   9.240  1.7952  0.8295 -0.0466
12323SOL    HW237548   2.166   3.347   9.373  0.5527 -2.3810  1.8673
12324SOL     OW37549   7.280   9.811   7.300 -0.2435 -0.4153 -0.1153
12324SOL    HW137550   7.321   9.795   7.386 -1.0635  2.2337  0.8694
12324SOL    HW237551   7.225   9.889   7.314  0.5023  0.8398 -3.3175
12325SOL     OW37552   3.042   1.200   6.712  0.0166 -0.0794 -0.5828
12325SOL    HW137553   3.118   1.161   6.755 -0.6966  1.2136  2.0561
12325SOL    HW237554   3.075   1.282   6.674 -0.1627  0.8867  1.2650
12326SOL     OW37555   4.340   2.870   2.255 -0.1344 -0.0961 -0.0851
12326SOL    HW137556   4.293   2.888   2.337  1.0411 -0.4525  0.6944
12326SOL    HW237557   4.328   2.776   2.240 -0.9651  0.1066 -0.7292
12327SOL     OW37558   4.689   7.557   7.013  0.0763  0.6303 -0.4169
12327SOL    HW137559   4.705   7.563   6.919 -0.5958  1.9500 -0.4663
12327SOL    HW237560   4.596   7.534   7.020  0.9321 -3.3586 -0.0843
12328SOL     OW37561   7.187   7.196   3.525  0.6606  0.2281  0.5233
12328SOL    HW137562   7.161   7.169   3.437 -0.0389 -0.4884  0.9292
12328SOL    HW237563   7.104   7.215   3.569  0.8334 -1.4040  1.6436
12329SOL     OW37564   6.580   1.612   0.708  1.1384  0.5076 -0.3329
12329SOL    HW137565   6.598   1.529   0.664  4.1082  0.4601  0.7505
12329SOL    HW237566   6.608   1.679   0.645 -0.2713  0.7193 -0.7858
12330SOL     OW37567   7.970   9.841   2.380  0.0899  0.0232 -0.3028
12330SOL    HW137568   7.907   9.847   2.308  0.7301 -3.6294 -1.3709
12330SOL    HW237569   8.041   9.900   2.355 -0.9577  0.9417 -1.2150
12331SOL     OW37570   8.568   9.435   7.725 -0.7940  0.4178  0.1726
12331SOL    HW137571   8.646   9.382   7.743  0.0254  1.9664  1.5395
12331SOL    HW237572   8.495   9.379   7.750 -0.0043 -0.3957  0.7514
12332SOL     OW37573   1.246   3.157   3.881 -0.4709  0.3100  1.0446
12332SOL    HW137574   1.315   3.222   3.871  0.7063 -0.9585  0.7724
12332SOL    HW237575   1.291   3.074   3.889 -1.9286 -0.4407  1.9661
12333SOL     OW37576   1.793   4.205   5.467  0.4382 -0.1858 -0.1711
12333SOL    HW137577   1.869   4.264   5.465  0.0888  0.2773 -2.1839
12333SOL    HW237578   1.717   4.263   5.457  0.0857 -0.9068 -2.2291
12334SOL     OW37579   3.551   8.045   4.251  0.5747 -0.3088  0.0120
12334SOL    HW137580   3.625   8.100   4.275  1.2614 -1.0427 -0.3819
12334SOL    HW237581   3.476   8.105   4.248  0.3475 -0.0978  3.9991
12335SOL     OW37582   9.764   2.305   9.559 -0.4423  0.3335 -0.3356
12335SOL    HW137583   9.783   2.229   9.615 -0.7011  0.0993 -0.5651
12335SOL    HW237584   9.718   2.268   9.484 -1.3786  0.8372 -0.0137
12336SOL     OW37585   2.319   0.742   1.730  0.4616  0.0415  0.4395
12336SOL    HW137586   2.238   0.695   1.746  0.9237 -0.3333  1.8140
12336SOL    HW237587   2.294   0.835   1.730  0.2148  0.0013  2.1748
12337SOL     OW37588   6.445   1.734   5.884  0.3195 -0.0608 -0.4413
12337SOL    HW137589   6.528   1.748   5.839  0.8004  0.2356  0.5046
12337SOL    HW237590   6.437   1.809   5.943 -0.2625 -0.4586 -0.0085
12338SOL     OW37591   0.635   5.990   8.519 -0.1344 -0.2363  0.0335
12338SOL    HW137592   0.588   6.072   8.530  1.6761  0.7123  1.2611
12338SOL    HW237593   0.724   6.016   8.497  0.4480 -1.8703  0.3130
12339SOL     OW37594   8.005   6.102   7.411 -0.2965  0.4524  0.4330
12339SOL    HW137595   7.919   6.063   7.424 -0.0250  0.0601  1.0689
12339SOL    HW237596   7.988   6.178   7.354 -0.7426 -0.8610 -1.2777
12340SOL     OW37597   9.510   3.099   4.912  0.0113  0.7930  0.5641
12340SOL    HW137598   9.488   3.017   4.957  2.0402 -0.7173 -0.9929
12340SOL    HW237599   9.445   3.107   4.843  0.7971 -0.4719 -0.3548
12341SOL     OW37600   6.116   0.352   3.481  0.1327  0.1727 -0.2321
12341SOL    HW137601   6.108   0.268   3.526  0.1420  0.6934  0.7780
12341SOL    HW237602   6.202   0.385   3.506  0.5098  0.0781 -1.3589
12342SOL     OW37603   9.879   2.419   3.418 -0.0627 -0.0981  0.7140
12342SOL    HW137604   9.973   2.401   3.412  0.2593  1.2305  1.5412
12342SOL    HW237605   9.843   2.341   3.461  0.4318 -1.1960 -0.7516
12343SOL     OW37606   4.210   3.332   0.267  0.9205  0.1788 -0.3340
12343SOL    HW137607   4.211   3.303   0.176 -1.0491  0.0017 -0.3458
12343SOL    HW237608   4.137   3.393   0.273  1.6405  0.9848  0.9268
12344SOL     OW37609   0.405   8.310   0.471 -0.0940  0.4146 -0.5646
12344SOL    HW137610   0.411   8.381   0.535 -0.0660  0.2752 -0.4143
12344SOL    HW237611   0.456   8.342   0.396 -0.3605  0.6952 -0.6294
12345SOL     OW37612   8.049   0.049   3.075 -0.0146 -0.6511  0.3315
12345SOL    HW137613   8.092   0.004   3.148 -0.0097 -0.0413  0.7153
12345SOL    HW237614   8.086   0.009   2.997  0.4592 -0.8766  0.6651
12346SOL     OW37615   4.187   4.046   6.585  0.0892 -0.2394  0.0809
12346SOL    HW137616   4.144   4.055   6.671 -0.5876 -0.8482 -0.1797
12346SOL    HW237617   4.124   4.082   6.523 -1.4784 -3.7456 -0.6640
12347SOL     OW37618   9.683   0.077   7.519 -0.2430 -0.4123  0.5349
12347SOL    HW137619   9.753   0.037   7.572  1.9192  0.5260 -1.4070
12347SOL    HW237620   9.725   0.153   7.478 -2.0985 -0.4560 -1.6260
12348SOL     OW37621   3.394   3.886   8.288 -0.1127 -0.0312  0.4620
12348SOL    HW137622   3.366   3.802   8.252  0.2275 -0.4294  1.1220
12348SOL    HW237623   3.391   3.946   8.213  0.8409 -0.9022 -0.2894
12349SOL     OW37624   8.794   6.068   3.816  0.0757  0.0497  0.4835
12349SOL    HW137625   8.703   6.087   3.793  0.4137 -1.8365 -3.1657
12349SOL    HW237626   8.790   6.031   3.904 -2.1904  2.9980  1.7715
12350SOL     OW37627   3.200   6.252   2.824  0.0881 -0.2621 -0.5615
12350SOL    HW137628   3.139   6.278   2.893  0.6161  0.4741 -0.3666
12350SOL    HW237629   3.153   6.185   2.775 -1.0279  0.5526 -0.6410
12351SOL     OW37630   0.297   3.602   7.538 -0.0940 -0.1564  0.5224
12351SOL    HW137631   0.226   3.663   7.522 -1.0808 -1.2834  0.4698
12351SOL    HW237632   0.337   3.632   7.619 -0.5524  0.5494  0.4946
12352SOL     OW37633   3.386   0.498   7.457  0.3563  0.0386  0.2487
12352SOL    HW137634   3.478   0.522   7.449  0.4203 -0.1016  0.5623
12352SOL    HW237635   3.386   0.403   7.450  0.2588  0.0222  0.4813
12353SOL     OW37636   1.542   3.209   9.967 -0.0506  0.2518 -0.7121
12353SOL    HW137637   1.520   3.302   9.961  3.1700  1.1573  0.0135
12353SOL    HW237638   1.457   3.166   9.982 -1.7107  2.9625 -1.5719
12354SOL     OW37639   8.977   6.444   2.972  0.4173  0.1853 -0.3140
12354SOL    HW137640   8.901   6.501   2.963  0.6869  0.6327  0.2045
12354SOL    HW237641   8.995   6.414   2.883 -0.5614 -0.1904 -0.4019
12355SOL     OW37642   4.104   1.389   9.578 -0.4568 -0.0572 -0.4608
12355SOL    HW137643   4.182   1.422   9.534 -0.1765  0.3189  0.3050
12355SOL    HW237644   4.031   1.433   9.535 -0.2445 -0.3574 -1.1342
12356SOL     OW37645   7.670   5.342   0.882  0.4312 -0.1305 -0.3667
12356SOL    HW137646   7.693   5.416   0.938 -1.8990  0.8233 -0.5454
12356SOL    HW237647   7.705   5.364   0.796  2.6906 -0.8879  0.2997
12357SOL     OW37648   7.752   4.679   9.468 -0.6361  0.3473  1.0757
12357SOL    HW137649   7.675   4.727   9.500 -1.6020 -1.4648  1.5776
12357SOL    HW237650   7.726   4.647   9.382  0.2016  1.1236  0.5138
12358SOL     OW37651   0.304   0.302   0.597  0.5120 -1.0045 -0.5663
12358SOL    HW137652   0.334   0.241   0.664 -0.0988 -0.1149  0.5511
12358SOL    HW237653   0.229   0.259   0.557 -1.6259  0.0394  2.0292
12359SOL     OW37654   0.151   4.713   4.310 -0.1749  0.7104  0.3891
12359SOL    HW137655   0.071   4.663   4.298  0.0348  0.1812  1.1496
12359SOL    HW237656   0.196   4.707   4.225 -0.4685  0.1880  0.2659
12360SOL     OW37657   0.526   8.622   1.635  0.0539 -0.3099 -0.1423
12360SOL    HW137658   0.570   8.682   1.574 -0.9041  0.5408 -0.0307
12360SOL    HW237659   0.595   8.593   1.694  0.3155  1.7963  0.6655
12361SOL     OW37660   4.075   7.172   2.490  0.3160 -0.5763  0.1755
12361SOL    HW137661   4.071   7.088   2.444 -2.7235 -0.0031 -0.8520
12361SOL    HW237662   4.079   7.150   2.582  1.1220 -1.7980 -0.1299
12362SOL     OW37663   1.674   1.731   9.139 -0.0670 -0.1542  0.1136
12362SOL    HW137664   1.657   1.637   9.146 -2.5652  0.2711  0.6388
12362SOL    HW237665   1.749   1.746   9.197 -0.4116 -1.6489  1.0109
12363SOL     OW37666   9.558   4.116   5.012  0.3636 -0.6140  0.3343
12363SOL    HW137667   9.488   4.086   4.954  1.9785 -0.4555 -1.8331
12363SOL    HW237668   9.530   4.090   5.099 -1.3920 -2.4619 -0.6984
12364SOL     OW37669   2.043   8.786   3.141 -0.6063  0.1625  0.3481
12364SOL    HW137670   2.013   8.793   3.050 -0.3166 -1.2273  0.1154
12364SOL    HW237671   2.050   8.692   3.156  2.4310  0.3711  0.7694
12365SOL     OW37672   4.379   9.840   5.698 -0.0482  0.3517  0.1978
12365SOL    HW137673   4.438   9.912   5.674 -1.2084  1.3599  0.2670
12365SOL    HW237674   4.313   9.881   5.754 -0.4384 -0.8922  0.6806
12366SOL     OW37675   0.762   8.046   2.474  0.1074  0.3142  0.0741
12366SOL    HW137676   0.716   8.121   2.436 -2.5014  0.7826  3.6469
12366SOL    HW237677   0.818   8.084   2.543  1.7461 -0.7790 -0.5777
12367SOL     OW37678   6.463   3.477   1.806 -0.0640 -0.8256  0.0594
12367SOL    HW137679   6.480   3.550   1.865  1.8060 -0.4002 -0.9224
12367SOL    HW237680   6.398   3.423   1.852 -2.2830  1.8951  0.4124
12368SOL     OW37681   6.199   4.709   4.312  0.0464  0.1113 -0.2350
12368SOL    HW137682   6.142   4.708   4.390  0.4630 -0.3586  0.0680
12368SOL    HW237683   6.270   4.649   4.334 -0.8968 -1.6485 -1.7783
12369SOL     OW37684   7.067   3.525   1.793 -0.1358 -0.5824 -0.3537
12369SOL    HW137685   7.021   3.605   1.818  2.1966  1.5085 -2.2567
12369SOL    HW237686   6.998   3.458   1.788 -2.0037  0.9427  2.4279
12370SOL     OW37687   3.087   2.803   6.299  0.4329  0.3362 -0.3245
12370SOL    HW137688   3.098   2.720   6.346  2.0780  0.8637  0.2788
12370SOL    HW237689   3.083   2.869   6.368  3.2321  1.1675 -0.8263
12371SOL     OW37690   6.499   7.354   3.504  0.1827  0.1470 -0.4480
12371SOL    HW137691   6.421   7.392   3.465 -0.0166 -0.9558 -1.1749
12371SOL    HW237692   6.481   7.354   3.598  0.1848  1.7623 -0.4124
12372SOL     OW37693   8.444   9.395   7.360  0.9162 -0.2744  0.4507
12372SOL    HW137694   8.425   9.482   7.393 -0.4540 -0.5588  0.5009
12372SOL    HW237695   8.358   9.353   7.353  1.5373 -1.6053  0.4014
12373SOL     OW37696   7.641   0.826   9.276 -0.1403  0.5625  0.5623
12373SOL    HW137697   7.696   0.762   9.321  0.4326 -0.9668 -2.1063
12373SOL    HW237698   7.553   0.809   9.308  0.3143  0.0276  1.5881
12374SOL     OW37699   5.991   4.410   4.563 -0.3059  0.3730 -0.3792
12374SOL    HW137700   6.019   4.441   4.649  0.9541  1.3022 -1.0898
12374SOL    HW237701   6.041   4.329   4.550 -1.4875 -0.4999  0.2863
12375SOL     OW37702   7.184   7.279   2.427 -0.3076  0.0790 -0.2983
12375SOL    HW137703   7.263   7.287   2.374 -0.8466  2.9988 -0.8561
12375SOL    HW237704   7.150   7.192   2.406  2.3273 -0.9578 -0.5874
12376SOL     OW37705   0.153   4.677   1.497 -0.3010 -0.0026 -0.5958
12376SOL    HW137706   0.158   4.601   1.554 -1.8728 -0.4786 -1.0337
12376SOL    HW237707   0.185   4.749   1.551 -0.2214 -0.7152  0.3444
12377SOL     OW37708   2.926   6.247   8.199 -0.7896  0.3149 -0.7016
12377SOL    HW137709   3.020   6.233   8.191 -0.2966  0.5524  3.0374
12377SOL    HW237710   2.890   6.159   8.212 -0.7314  0.4237  0.2518
12378SOL     OW37711   2.300   3.756   6.774  0.0624  0.4142  0.5609
12378SOL    HW137712   2.344   3.709   6.703 -0.7637  0.9460 -0.3273
12378SOL    HW237713   2.327   3.709   6.853 -1.3776 -2.1288 -0.3246
12379SOL     OW37714   8.992   0.991   1.331  0.1998 -0.3505 -0.0819
12379SOL    HW137715   8.968   1.061   1.270  0.9934  1.4487  1.5723
12379SOL    HW237716   8.909   0.949   1.353 -0.3495  0.3214 -0.8020
12380SOL     OW37717   6.610   7.771   6.133  0.6213 -0.4793 -0.6160
12380SOL    HW137718   6.530   7.755   6.081  0.0305  1.7808 -0.5191
12380SOL    HW237719   6.591   7.734   6.219  0.8374 -2.4882 -1.3671
12381SOL     OW37720   8.187   0.108   0.828  0.1939  0.1274 -0.0240
12381SOL    HW137721   8.131   0.168   0.877 -0.1335  0.1869 -0.4667
12381SOL    HW237722   8.173   0.131   0.737  0.3365 -0.3911 -0.1795
12382SOL     OW37723   7.998   2.019   0.993  0.5022  0.3161 -0.1067
12382SOL    HW137724   8.055   1.968   1.051  0.2989 -2.3566 -2.0322
12382SOL    HW237725   7.915   1.970   0.992 -0.8584  2.4852  0.3329
12383SOL     OW37726   2.524   0.460   0.306 -0.5132  0.0406 -0.2447
12383SOL    HW137727   2.455   0.494   0.363 -0.3066  2.2365 -1.1830
12383SOL    HW237728   2.480   0.437   0.224 -0.3856 -0.2657 -0.2299
12384SOL     OW37729   7.466   7.808   3.166  0.4864  0.1245  0.3733
12384SOL    HW137730   7.533   7.876   3.171  0.5848  0.0896 -0.3230
12384SOL    HW237731   7.475   7.772   3.078  1.4958 -1.9147  1.2671
12385SOL     OW37732   2.715   0.248   5.589 -0.4093  0.4536 -0.4767
12385SOL    HW137733   2.781   0.268   5.655 -0.8003 -2.8903  1.1362
12385SOL    HW237734   2.647   0.315   5.601  0.8802  1.6327  0.4828
12386SOL     OW37735   1.724   9.767   7.893  0.4113 -0.4094 -0.4130
12386SOL    HW137736   1.667   9.817   7.951 -0.2001 -1.6845  0.0975
12386SOL    HW237737   1.722   9.678   7.927  0.5310 -1.0566 -2.0076
12387SOL     OW37738   4.016   4.249   6.460 -0.4695  0.4251 -0.4080
12387SOL    HW137739   3.925   4.265   6.486 -0.2757 -1.1851  1.4852
12387SOL    HW237740   4.065   4.322   6.498 -0.5240 -0.6399  1.8429
12388SOL     OW37741   2.299   1.321   1.136  0.2024 -0.3410 -0.1595
12388SOL    HW137742   2.263   1.372   1.209  0.2739  1.0791 -1.0877
12388SOL    HW237743   2.228   1.260   1.112  0.4342 -1.3365  1.5251
12389SOL     OW37744   2.326   2.309   9.410  0.1482 -0.1920  0.4078
12389SOL    HW137745   2.235   2.310   9.437 -0.2213  1.7430 -0.7503
12389SOL    HW237746   2.375   2.326   9.490 -0.6875  1.5124  0.5918
12390SOL     OW37747   9.306   4.849   7.017  0.3451 -0.2570 -0.4824
12390SOL    HW137748   9.296   4.908   6.942  0.1685  0.7518  0.2986
12390SOL    HW237749   9.268   4.898   7.090 -0.5834 -1.7123  0.0381
12391SOL     OW37750   4.412   7.293   4.516  0.8259  0.0352 -0.6570
12391SOL    HW137751   4.455   7.367   4.559  1.1372 -0.8546  0.6392
12391SOL    HW237752   4.482   7.232   4.497  0.3538 -0.7971  0.1592
12392SOL     OW37753   0.142   3.186   8.370  0.3631 -0.0127  0.0180
12392SOL    HW137754   0.106   3.229   8.293  1.0215 -0.7885 -0.7424
12392SOL    HW237755   0.209   3.127   8.336  0.1539 -0.9274  1.1143
12393SOL     OW37756   9.284   6.353   7.223 -0.6497 -0.1515  0.4996
12393SOL    HW137757   9.379   6.352   7.235 -0.7285 -1.7358  1.3884
12393SOL    HW237758   9.256   6.439   7.253  0.6158  0.8058 -0.9492
12394SOL     OW37759   6.960   8.994   4.829  0.8070 -0.5489  0.7154
12394SOL    HW137760   6.984   9.081   4.797  0.5435 -0.1651  1.5270
12394SOL    HW237761   7.035   8.965   4.880  0.7351 -0.6144  0.7855
12395SOL     OW37762   2.006   2.428   1.077 -0.0123 -0.1668  0.7652
12395SOL    HW137763   2.101   2.434   1.069 -0.0014 -1.2111  0.0394
12395SOL    HW237764   1.986   2.335   1.072 -1.1875  0.1053 -0.5690
12396SOL     OW37765   0.213   6.061   5.567  0.0814 -0.1653 -0.3854
12396SOL    HW137766   0.136   6.009   5.545  0.1724 -1.4782  2.0813
12396SOL    HW237767   0.283   5.997   5.575  0.8053  0.6713  0.1274
12397SOL     OW37768   0.250   1.689   5.571 -0.1451  0.0019 -0.1466
12397SOL    HW137769   0.224   1.661   5.483 -2.8704  1.3195  0.1154
12397SOL    HW237770   0.328   1.743   5.557 -0.2906 -0.1462 -1.7319
12398SOL     OW37771   5.420   8.963   1.005  0.0713 -0.0440 -0.2056
12398SOL    HW137772   5.458   8.912   1.077 -0.7630 -2.3415 -1.3196
12398SOL    HW237773   5.407   8.900   0.935 -0.6602  1.8136 -1.8186
12399SOL     OW37774   6.687   5.304   8.394  0.2598  0.5722  0.2094
12399SOL    HW137775   6.669   5.314   8.300 -0.5657 -5.2919 -0.6629
12399SOL    HW237776   6.603   5.276   8.431  1.5829 -2.0944  1.4891
12400SOL     OW37777   6.972   4.456   2.873  0.4641 -0.0661 -0.4042
12400SOL    HW137778   6.908   4.524   2.893  0.8532  0.6025 -1.4033
12400SOL    HW237779   6.920   4.384   2.836  0.2027  0.1359 -0.4316
12401SOL     OW37780   4.309   1.915   9.886  0.0515  0.0255  0.2541
12401SOL    HW137781   4.352   1.975   9.826  0.3022 -0.6833 -0.2919
12401SOL    HW237782   4.221   1.902   9.849 -0.2099  0.5124  0.6955
12402SOL     OW37783   2.052   1.482   5.041  0.1318  0.0935 -0.2893
12402SOL    HW137784   2.108   1.516   5.111  1.7544 -1.4843 -0.7504
12402SOL    HW237785   2.081   1.529   4.963 -0.0029  0.1096 -0.3307
12403SOL     OW37786   1.696   0.201   3.060  0.5534 -0.3801 -0.1126
12403SOL    HW137787   1.663   0.112   3.072  1.2171 -0.3617  2.4607
12403SOL    HW237788   1.626   0.247   3.014 -0.1547 -2.0033 -0.7231
12404SOL     OW37789   5.355   4.678   8.138 -0.1601 -0.0054 -0.2024
12404SOL    HW137790   5.262   4.697   8.152  0.1706  1.7977 -0.2616
12404SOL    HW237791   5.379   4.732   8.063  0.8828 -0.6989 -0.3844
12405SOL     OW37792   2.440   2.629   5.269  0.5159  0.1043  0.1041
12405SOL    HW137793   2.355   2.585   5.266  0.0305  0.9511  0.8220
12405SOL    HW237794   2.448   2.670   5.182 -0.2622  0.8034  0.3400
12406SOL     OW37795   2.192   0.540   5.995 -0.1323 -0.3670 -0.4769
12406SOL    HW137796   2.171   0.617   6.047 -0.2830  0.7101 -2.0566
12406SOL    HW237797   2.145   0.468   6.037  1.3509  0.0317  2.0136
12407SOL     OW37798   8.239   1.264   4.973  0.7439  0.1541 -0.4481
12407SOL    HW137799   8.230   1.271   4.878  1.5381  0.1023 -0.5349
12407SOL    HW237800   8.325   1.226   4.986  0.5685 -0.0079  0.2948
12408SOL     OW37801   5.151   6.770   4.985 -0.2739  0.4740 -0.3272
12408SOL    HW137802   5.119   6.781   4.895  1.3778  3.8049 -0.6570
12408SOL    HW237803   5.244   6.751   4.974 -0.2453  0.0124  0.6920
12409SOL     OW37804   9.815   5.588   3.129 -0.4663  0.1536  0.1204
12409SOL    HW137805   9.728   5.625   3.145 -0.4144  0.4536 -0.2664
12409SOL    HW237806   9.799   5.494   3.119 -0.6613  0.1250  0.6612
12410SOL     OW37807   5.311   9.535   9.919  0.1563  0.2805  0.0503
12410SOL    HW137808   5.230   9.543   9.869  0.0827  1.7946  0.3759
12410SOL    HW237809   5.353   9.620   9.911  1.5400 -0.3535  0.2244
12411SOL     OW37810   0.824   3.057   8.671  0.6171 -0.1511 -0.3915
12411SOL    HW137811   0.906   3.105   8.675  0.5969 -0.1310 -0.2232
12411SOL    HW237812   0.777   3.083   8.751 -0.3379  1.2683 -1.3530
12412SOL     OW37813   5.066  -0.030   6.247  0.7365  0.4852 -0.5317
12412SOL    HW137814   5.152  -0.009   6.283  0.0653  1.0506  0.7974
12412SOL    HW237815   5.011   0.044   6.272 -0.3043 -0.2053 -0.7387
12413SOL     OW37816   4.312   5.251   5.873 -0.1309  0.3653 -0.2490
12413SOL    HW137817   4.323   5.178   5.935 -0.6472  0.4091 -0.1072
12413SOL    HW237818   4.397   5.258   5.830 -0.0881 -0.3571 -0.2955
12414SOL     OW37819   9.917   0.312   3.756  0.0622  0.0384 -0.2401
12414SOL    HW137820   9.946   0.356   3.676 -0.4396  0.0035 -0.4444
12414SOL    HW237821   9.886   0.383   3.812  0.2185  0.0427 -0.1586
12415SOL     OW37822   3.668   9.301   9.140  0.1700 -0.2870 -0.7381
12415SOL    HW137823   3.613   9.261   9.207 -2.2170  1.7085 -1.3827
12415SOL    HW237824   3.734   9.350   9.189 -0.9090  0.3128  0.1356
12416SOL     OW37825   7.093   2.021   5.392  0.3939  0.1285 -0.1427
12416SOL    HW137826   7.075   1.945   5.338 -0.4329 -0.9143  1.5291
12416SOL    HW237827   7.092   2.095   5.330 -0.6466 -0.9750 -1.5164
12417SOL     OW37828   6.580   6.597   4.052 -0.1455 -0.4279  0.0884
12417SOL    HW137829   6.492   6.563   4.066 -0.5330  0.9834  1.3764
12417SOL    HW237830   6.638   6.527   4.081 -0.8741 -0.6583  1.0299
12418SOL     OW37831   3.910   5.743   7.317 -0.0483  0.4479 -0.1767
12418SOL    HW137832   3.985   5.714   7.263  0.6970  0.3704  0.8684
12418SOL    HW237833   3.907   5.680   7.389 -0.0863  1.4096  0.6839
12419SOL     OW37834   1.476   4.906   3.947  0.2426 -0.1055  0.3154
12419SOL    HW137835   1.564   4.891   3.912  0.5207 -0.6803  1.2243
12419SOL    HW237836   1.482   4.990   3.992  0.8509 -0.9457  1.9047
12420SOL     OW37837   6.691   1.863   3.701 -0.5412  0.1130 -0.1833
12420SOL    HW137838   6.640   1.933   3.741 -1.4906  0.0749 -1.2969
12420SOL    HW237839   6.626   1.800   3.671  0.1069  0.2032 -1.8965
12421SOL     OW37840   5.727   8.061   0.063 -0.0327  0.0905 -0.1337
12421SOL    HW137841   5.811   8.046   0.020  0.4800  0.4164  0.7149
12421SOL    HW237842   5.693   7.974   0.082  0.6650 -0.0479  0.5314
12422SOL     OW37843   6.291   1.079   3.954  0.1350  0.5848  0.0531
12422SOL    HW137844   6.271   1.058   4.045 -0.2004  2.3842  0.4343
12422SOL    HW237845   6.260   1.003   3.904 -2.5747  0.8779  1.1411
12423SOL     OW37846   0.641   5.102   1.877 -0.1450  0.1420 -0.0524
12423SOL    HW137847   0.687   5.116   1.960 -1.3746 -1.5145  0.9720
12423SOL    HW237848   0.709   5.077   1.816  0.6082 -0.0333  0.8327
12424SOL     OW37849   1.808   5.245   1.401 -0.1959 -0.1310 -0.6049
12424SOL    HW137850   1.793   5.214   1.312 -0.1204  0.2157 -0.7390
12424SOL    HW237851   1.813   5.341   1.393  0.9199 -0.1597 -0.3972
12425SOL     OW37852   4.825   6.809   3.769 -0.3372  0.2745  0.2365
12425SOL    HW137853   4.783   6.725   3.749  2.1887 -0.8263 -0.7393
12425SOL    HW237854   4.861   6.797   3.857  0.0321  0.3144  0.0921
12426SOL     OW37855   7.386   6.518   6.982  0.0617  0.0828  1.0040
12426SOL    HW137856   7.343   6.595   6.945  1.6175  0.0681 -1.0046
12426SOL    HW237857   7.313   6.462   7.009 -1.2934  0.2637 -1.8251
12427SOL     OW37858   8.407   2.169   6.455 -0.3108 -0.8322 -0.0118
12427SOL    HW137859   8.487   2.207   6.420 -0.9523 -0.4105 -1.0592
12427SOL    HW237860   8.337   2.227   6.425 -1.1492 -1.9099 -0.2476
12428SOL     OW37861   3.360   8.161   7.394 -0.1435  0.2113 -0.3806
12428SOL    HW137862   3.376   8.252   7.420 -1.1773  0.9035 -2.0356
12428SOL    HW237863   3.436   8.138   7.340  0.3889 -0.1303  0.4805
12429SOL     OW37864   5.633   5.779   9.249 -0.2946  0.3354 -0.5741
12429SOL    HW137865   5.728   5.776   9.259 -0.1163  1.7595 -1.4291
12429SOL    HW237866   5.605   5.688   9.256  0.9098  0.0598  1.5027
12430SOL     OW37867   4.314   6.491   9.935  0.2666 -0.0947  0.4249
12430SOL    HW137868   4.347   6.561   9.991 -0.1898  0.7283 -0.3030
12430SOL    HW237869   4.277   6.427   9.995 -1.6163  1.4674  1.0446
12431SOL     OW37870   0.611   0.604   6.037 -0.0719  0.3897 -0.2898
12431SOL    HW137871   0.533   0.659   6.028 -0.6131 -0.2825  0.2119
12431SOL    HW237872   0.679   0.650   5.987 -1.0594  0.4655 -1.6289
12432SOL     OW37873   8.062   0.743   3.551  0.0154  0.0090 -0.3523
12432SOL    HW137874   8.014   0.671   3.510 -2.1039  1.4131 -0.4728
12432SOL    HW237875   8.139   0.701   3.591 -1.2796 -2.3504 -0.1657
12433SOL     OW37876   1.074   4.204   5.721 -0.1593 -0.4589  0.8756
12433SOL    HW137877   0.979   4.193   5.728 -0.4596  1.5013  0.4399
12433SOL    HW237878   1.096   4.264   5.792  0.6111 -0.1153  0.3550
12434SOL     OW37879   0.181   7.461   3.855  0.5197  0.0164  0.4921
12434SOL    HW137880   0.164   7.551   3.883  0.6947  0.1915  0.0434
12434SOL    HW237881   0.209   7.416   3.934  0.1501  0.2847  0.7790
12435SOL     OW37882   0.364   5.629   6.618 -0.1923  0.3243 -0.7035
12435SOL    HW137883   0.293   5.646   6.556 -0.8170  0.8126  0.1293
12435SOL    HW237884   0.364   5.534   6.629  1.2556 -0.0071 -2.9782
12436SOL     OW37885   5.765   7.949   4.067 -0.9108 -0.6393 -0.4435
12436SOL    HW137886   5.726   7.881   4.121 -1.4067 -0.2211 -0.2615
12436SOL    HW237887   5.823   7.902   4.006 -0.8799 -1.1690 -0.0073
12437SOL     OW37888   8.241   8.501   9.602  0.6988 -0.5606  0.5063
12437SOL    HW137889   8.330   8.519   9.631  1.3910 -0.8807 -1.3274
12437SOL    HW237890   8.234   8.544   9.517 -0.7290 -0.9739  0.3901
12438SOL     OW37891   4.611   8.952   6.683 -0.5734  0.4374  0.2530
12438SOL    HW137892   4.542   8.961   6.749 -1.0840 -0.8778 -0.0590
12438SOL    HW237893   4.586   9.014   6.614  0.3722  2.3718  1.5793
12439SOL     OW37894   9.891   0.888   0.993  1.0807 -0.6237 -0.3717
12439SOL    HW137895   9.838   0.825   1.041  1.5800 -0.2336  0.7159
12439SOL    HW237896   9.881   0.862   0.901 -1.9383  0.1296 -0.3747
12440SOL     OW37897   4.794   3.602   5.744 -0.0942  0.7031 -0.0238
12440SOL    HW137898   4.700   3.590   5.736 -0.4764  3.2122  0.0825
12440SOL    HW237899   4.809   3.615   5.838  0.8781 -2.7356  0.4587
12441SOL     OW37900   4.265   4.749   3.005  0.7114 -0.0385  0.2417
12441SOL    HW137901   4.342   4.763   2.950  0.6196  2.3046  0.6081
12441SOL    HW237902   4.299   4.746   3.094  0.5013 -0.4100  0.3128
12442SOL     OW37903   7.716   7.340   9.193  0.4093  0.0136  0.0663
12442SOL    HW137904   7.633   7.366   9.153  0.5435  0.8728  0.3242
12442SOL    HW237905   7.691   7.303   9.278  0.4391  4.2879  2.2108
12443SOL     OW37906   2.005   5.091   7.163  0.4725  0.1636  0.0792
12443SOL    HW137907   2.069   5.042   7.214  0.3209  1.0217  1.1192
12443SOL    HW237908   1.920   5.069   7.201  0.3553  0.8080  0.1926
12444SOL     OW37909   5.009   3.833   9.976  0.0993  0.3955  0.2675
12444SOL    HW137910   5.047   3.814   9.891 -1.6125  1.6064 -0.8170
12444SOL    HW237911   4.919   3.800   9.971  0.2023 -0.2828  1.9357
12445SOL     OW37912   4.941   7.637   1.504  0.0884  0.0950 -0.3560
12445SOL    HW137913   5.027   7.657   1.467 -0.4554  1.5773 -0.9399
12445SOL    HW237914   4.902   7.574   1.443 -0.4900  1.9269 -1.9931
12446SOL     OW37915   8.150   9.472   7.131  0.6033 -0.8437 -0.2476
12446SOL    HW137916   8.219   9.527   7.094 -0.0329 -0.4325 -0.8406
12446SOL    HW237917   8.106   9.528   7.194  0.5597 -0.9789 -0.1577
12447SOL     OW37918   2.261   8.228   9.333 -0.3781  0.6463 -0.0996
12447SOL    HW137919   2.183   8.232   9.389 -0.6450  1.8171 -0.5420
12447SOL    HW237920   2.306   8.148   9.362 -1.0137  0.6976  1.1092
12448SOL     OW37921   5.281   3.336   9.564 -0.3359  0.1400  0.1494
12448SOL    HW137922   5.225   3.278   9.513  1.6395 -1.6932 -0.0497
12448SOL    HW237923   5.262   3.424   9.530 -2.5215 -0.4727 -0.3769
12449SOL     OW37924   5.212   8.891   8.247  0.2642  0.7597  0.6012
12449SOL    HW137925   5.188   8.798   8.250 -0.6193  0.8139 -1.9124
12449SOL    HW237926   5.214   8.911   8.153  1.9260  2.9292  1.0371
12450SOL     OW37927   8.699   4.409   8.306 -0.6671 -0.0883  0.5031
12450SOL    HW137928   8.743   4.486   8.268 -0.8177 -0.4410 -0.4008
12450SOL    HW237929   8.767   4.367   8.358 -0.6765  0.8470  1.3068
12451SOL     OW37930   5.519   3.969   0.693  0.1023  0.6307  0.7855
12451SOL    HW137931   5.612   3.957   0.715  0.2529 -1.5339 -0.6913
12451SOL    HW237932   5.517   4.050   0.642  1.2226  0.5892  0.6395
12452SOL     OW37933   4.910   5.659   5.510 -0.1404 -0.2244  0.4213
12452SOL    HW137934   4.845   5.713   5.465  0.9866 -0.9686 -2.3227
12452SOL    HW237935   4.863   5.578   5.530 -0.4303 -0.2573 -0.3493
12453SOL     OW37936   9.956   8.320   9.702  0.4439 -0.3958  0.0651
12453SOL    HW137937   9.947   8.230   9.732 -0.3045 -0.0445  0.9505
12453SOL    HW237938  10.036   8.321   9.649  0.1651 -1.6902 -0.4118
12454SOL     OW37939   6.639   4.357   6.833  0.0258 -0.6191 -0.7412
12454SOL    HW137940   6.644   4.325   6.923 -0.3068 -0.1754 -0.5622
12454SOL    HW237941   6.724   4.333   6.794 -0.9994 -3.8256 -1.3462
12455SOL     OW37942   7.841   1.282   3.274 -0.0974 -0.5646  0.5474
12455SOL    HW137943   7.799   1.196   3.265  0.2903 -0.9006  1.8330
12455SOL    HW237944   7.793   1.325   3.345 -1.1124  0.8124 -0.9015
12456SOL     OW37945   3.605   6.203   1.435  0.2384  0.2938 -0.6368
12456SOL    HW137946   3.585   6.118   1.395  1.7068  0.6176 -2.1432
12456SOL    HW237947   3.682   6.186   1.489  1.5441  0.9401 -2.2079
12457SOL     OW37948   0.141   5.828   9.448  0.4906  0.4709 -0.0056
12457SOL    HW137949   0.206   5.759   9.461  0.2783  0.3842  0.6147
12457SOL    HW237950   0.177   5.903   9.495  0.1784  0.4446  0.2776
12458SOL     OW37951   4.435   0.441   2.979 -0.0080 -0.7747 -0.0843
12458SOL    HW137952   4.397   0.363   3.020 -0.2167 -0.1103  1.0276
12458SOL    HW237953   4.521   0.451   3.021  0.0899 -0.4972 -0.3462
12459SOL     OW37954   1.603   1.522   0.317  0.1932  0.7243  0.1288
12459SOL    HW137955   1.581   1.454   0.253  3.3524 -1.8337  1.4960
12459SOL    HW237956   1.671   1.574   0.273 -0.1804  1.2365  0.1464
12460SOL     OW37957   7.255   0.565   8.198 -0.1842 -0.2272  1.3336
12460SOL    HW137958   7.178   0.508   8.206  0.2211 -1.3491 -1.5054
12460SOL    HW237959   7.228   0.633   8.135  0.9378 -0.2766  0.7735
12461SOL     OW37960   3.205   7.880   1.051  0.0656 -0.1157  0.0991
12461SOL    HW137961   3.118   7.895   1.014  1.2148  0.9356 -2.3808
12461SOL    HW237962   3.222   7.787   1.035 -0.3795 -0.2185  0.1880
12462SOL     OW37963   1.020   3.965   5.166 -0.2738  0.4373  0.1423
12462SOL    HW137964   1.006   3.962   5.071  0.8366  0.6401 -0.0347
12462SOL    HW237965   0.946   4.017   5.199 -0.8485  0.0962 -0.5637
12463SOL     OW37966   1.445   6.846   9.896 -0.3329  0.1864  0.1550
12463SOL    HW137967   1.391   6.882   9.966 -0.3124 -2.1173  1.4202
12463SOL    HW237968   1.388   6.782   9.853  0.3891 -0.0132 -0.5150
12464SOL     OW37969   7.779   7.195   2.202 -0.0210 -0.3836  0.3149
12464SOL    HW137970   7.712   7.130   2.180  2.0742 -2.3236 -0.7342
12464SOL    HW237971   7.798   7.179   2.294 -1.1210  0.3485  0.6909
12465SOL     OW37972   6.866   4.512   8.523 -0.6945  0.2979 -0.6154
12465SOL    HW137973   6.869   4.419   8.502 -2.1334  0.1044 -0.0188
12465SOL    HW237974   6.779   4.540   8.496 -0.4392  1.3763 -0.3662
12466SOL     OW37975   4.204   8.641   3.801 -0.3114  0.2047 -0.0585
12466SOL    HW137976   4.135   8.584   3.836  0.2605 -1.1116 -0.9536
12466SOL    HW237977   4.190   8.638   3.706 -0.9899  2.5632 -0.0850
12467SOL     OW37978   8.289   5.798   1.615  0.1010 -0.1204 -0.1003
12467SOL    HW137979   8.254   5.825   1.530 -0.6794  1.0704  0.5715
12467SOL    HW237980   8.228   5.836   1.679  0.5774 -1.1340  0.9912
12468SOL     OW37981   5.148   5.713   5.992 -0.3548 -0.7689  0.3512
12468SOL    HW137982   5.060   5.704   5.955  0.1042  2.4105 -1.9150
12468SOL    HW237983   5.137   5.774   6.065  0.2093  2.2309 -1.8744
12469SOL     OW37984   0.131   1.415   5.523  0.3392 -0.1707  0.1783
12469SOL    HW137985   0.177   1.490   5.561  1.4803 -1.0902  0.6853
12469SOL    HW237986   0.180   1.339   5.554  0.9544 -1.0134 -2.6420
12470SOL     OW37987  -0.036   9.557   3.128  0.1872  0.1908 -0.1809
12470SOL    HW137988   0.017   9.510   3.192 -0.2992  0.5093  0.4664
12470SOL    HW237989   0.022   9.569   3.053  1.1883  0.9310  0.6743
12471SOL     OW37990   8.979   8.966   2.516  0.8612  0.3780 -0.2885
12471SOL    HW137991   8.943   8.877   2.519 -0.0677  0.7614  0.9149
12471SOL    HW237992   9.061   8.957   2.469  0.8135 -1.1368 -0.1416
12472SOL     OW37993   1.192   7.890   3.147  0.3612 -0.3165 -0.6652
12472SOL    HW137994   1.145   7.887   3.064 -0.9627  0.6899  0.0161
12472SOL    HW237995   1.216   7.982   3.158 -2.1996  0.2363  1.4573
12473SOL     OW37996   7.723   0.833   7.034 -0.1212  0.2328 -0.6335
12473SOL    HW137997   7.737   0.891   6.959  0.2228  1.1490  0.1055
12473SOL    HW237998   7.789   0.765   7.025  1.2145  1.4054 -0.1804
12474SOL     OW37999   5.773   1.289   4.533  0.1573  0.1014  0.1896
12474SOL    HW138000   5.754   1.383   4.525 -0.8576 -0.1864 -0.9184
12474SOL    HW238001   5.868   1.285   4.545  0.0381  1.3565  2.0859
12475SOL     OW38002   5.891   8.184   7.221  0.4857 -0.2264  0.2933
12475SOL    HW138003   5.855   8.233   7.147 -0.6417 -1.6393 -0.1379
12475SOL    HW238004   5.978   8.222   7.234  0.4927  0.4477 -1.3835
12476SOL     OW38005   2.599   3.865   1.363  0.1288  0.8045 -0.3806
12476SOL    HW138006   2.650   3.824   1.433  0.8316 -0.6606 -1.6848
12476SOL    HW238007   2.515   3.820   1.364  0.3438  0.3813 -0.8195
12477SOL     OW38008   6.430   4.385   1.039 -0.5280 -0.1302  0.0887
12477SOL    HW138009   6.430   4.440   1.117 -1.8459  0.8135 -0.5437
12477SOL    HW238010   6.491   4.428   0.980  1.6710 -1.6738  1.0854
12478SOL     OW38011   4.208   9.923   9.539 -0.6148  0.2332 -0.4341
12478SOL    HW138012   4.225   9.832   9.564 -0.0420  1.1054  2.6960
12478SOL    HW238013   4.294   9.965   9.541 -1.0239  1.1093 -0.7929
12479SOL     OW38014   9.914   6.049   8.135  0.1933 -0.0043  0.0515
12479SOL    HW138015   9.848   6.050   8.205  0.6416 -0.0357  0.4835
12479SOL    HW238016   9.996   6.067   8.180  0.4469  0.2873 -0.5220
12480SOL     OW38017   8.113   0.948   8.495 -0.4108  0.2399 -0.1926
12480SOL    HW138018   8.155   0.970   8.412  1.2859 -1.0991  0.2337
12480SOL    HW238019   8.031   0.998   8.495 -0.2934  0.5555 -2.4897
12481SOL     OW38020   3.600   6.805   6.093 -0.2339  0.0939  0.2226
12481SOL    HW138021   3.513   6.766   6.090  0.2208 -0.9961  0.8760
12481SOL    HW238022   3.622   6.809   6.186  1.1595 -1.3854  0.0072
12482SOL     OW38023   0.575   5.684   9.371  0.0600  0.0915 -0.0541
12482SOL    HW138024   0.601   5.592   9.377 -0.2490  0.0208  0.2913
12482SOL    HW238025   0.639   5.724   9.312 -0.8090 -0.7190 -1.6161
12483SOL     OW38026   2.229   4.989   7.949 -0.2825  0.3696  0.0806
12483SOL    HW138027   2.240   5.075   7.907 -2.8205  0.2021 -1.1513
12483SOL    HW238028   2.142   4.994   7.990 -0.1018 -1.3305  0.7238
12484SOL     OW38029   2.487   5.678   3.518 -0.0427 -0.1265  0.1638
12484SOL    HW138030   2.557   5.702   3.579  1.0707 -2.6768  0.0249
12484SOL    HW238031   2.407   5.685   3.570  0.9502 -3.1909  2.4482
12485SOL     OW38032   0.852   2.252   1.626  0.2590  0.2248  0.7660
12485SOL    HW138033   0.823   2.337   1.660 -0.1621  0.5201 -0.2695
12485SOL    HW238034   0.817   2.250   1.537 -1.4767 -1.8942  1.4072
12486SOL     OW38035   9.508   2.316   2.697 -0.1055 -0.6193 -0.2464
12486SOL    HW138036   9.440   2.248   2.700 -1.2880  0.5479  0.7529
12486SOL    HW238037   9.461   2.398   2.709  1.3632  0.3475 -0.7792
12487SOL     OW38038   6.614   2.465   7.549  0.3784  0.1624 -0.3655
12487SOL    HW138039   6.683   2.499   7.492  0.6355 -0.1733 -0.2590
12487SOL    HW238040   6.649   2.475   7.638  0.2212  0.1495 -0.3021
12488SOL     OW38041   8.239   8.604   0.623 -0.2502  0.4856  1.0580
12488SOL    HW138042   8.166   8.660   0.600 -2.2430 -2.0287  0.7953
12488SOL    HW238043   8.317   8.657   0.607 -1.9536  2.7512 -0.1715
12489SOL     OW38044   0.514   9.763   9.914  0.3722  0.0856  0.1226
12489SOL    HW138045   0.428   9.763   9.873 -0.2847 -0.4315  1.4463
12489SOL    HW238046   0.542   9.671   9.910  1.0505  0.3185 -0.6631
12490SOL     OW38047   0.531   2.018   0.734  0.7230 -0.3521 -0.6405
12490SOL    HW138048   0.464   2.041   0.799  2.1590 -0.1505  0.8478
12490SOL    HW238049   0.533   2.093   0.675 -0.6078 -0.5290 -0.9474
12491SOL     OW38050   6.695   2.324   0.934 -0.1233 -0.9142  0.0817
12491SOL    HW138051   6.715   2.268   0.859  0.9043 -1.3631  0.6716
12491SOL    HW238052   6.765   2.307   0.997  0.0695  0.8084  0.4036
12492SOL     OW38053   7.099   6.736   8.250  0.3729  0.0589 -0.1189
12492SOL    HW138054   7.063   6.652   8.223  0.7942 -0.6294  1.3465
12492SOL    HW238055   7.097   6.790   8.171  0.2712 -1.3775 -1.1338
12493SOL     OW38056   2.490   5.072   1.906 -0.2128 -0.2370  0.2039
12493SOL    HW138057   2.510   5.164   1.886  1.2600 -0.3850  0.9161
12493SOL    HW238058   2.575   5.029   1.911 -0.8358 -1.4571  0.8184
12494SOL     OW38059   5.813   3.962   8.886 -0.6936  0.0077  0.8933
12494SOL    HW138060   5.821   3.915   8.803 -1.8902  1.3380 -0.0208
12494SOL    HW238061   5.725   4.001   8.884 -0.0228  1.6997  1.8966
12495SOL     OW38062   5.264   6.223   0.087 -0.4634  0.3675  0.2077
12495SOL    HW138063   5.189   6.193   0.036 -0.2948 -1.1165  0.7791
12495SOL    HW238064   5.340   6.192   0.038 -0.2115  1.6044 -0.2140
12496SOL     OW38065   2.144   0.397   5.781 -0.2494 -0.1897 -0.4811
12496SOL    HW138066   2.182   0.455   5.846 -0.9493  1.5257 -1.5399
12496SOL    HW238067   2.204   0.400   5.707 -0.3007 -0.8322 -0.5585
12497SOL     OW38068   8.177   8.427   6.606  0.5983  0.2641  0.2995
12497SOL    HW138069   8.169   8.335   6.581 -1.1531  0.5154 -0.2359
12497SOL    HW238070   8.139   8.431   6.694 -1.0869  0.7393 -0.4065
12498SOL     OW38071   8.593   6.255   5.471  0.0485 -0.0236 -0.3538
12498SOL    HW138072   8.668   6.280   5.416 -0.0169  0.7614 -0.0918
12498SOL    HW238073   8.582   6.161   5.454  1.4279 -0.2731  0.0052
12499SOL     OW38074   5.215   9.670   4.505  0.3679 -0.3175  0.2248
12499SOL    HW138075   5.192   9.591   4.457 -1.1084  1.9329 -3.1773
12499SOL    HW238076   5.305   9.689   4.477  0.0880  0.1158 -0.4088
12500SOL     OW38077   5.383   4.859   7.949 -0.5791 -0.2348 -0.0180
12500SOL    HW138078   5.396   4.940   7.997 -1.5932  0.7415 -1.3235
12500SOL    HW238079   5.424   4.874   7.864 -0.8264 -1.0592 -0.2930
12501SOL     OW38080   5.432   1.712   2.192  0.2262 -0.4713 -0.8843
12501SOL    HW138081   5.524   1.685   2.184  0.3066 -0.0373 -1.5253
12501SOL    HW238082   5.382   1.632   2.175  0.4757 -0.4959 -1.5370
12502SOL     OW38083   8.045   5.346   8.512 -0.0874 -0.1421 -0.1264
12502SOL    HW138084   8.014   5.396   8.588  0.3529  0.9887 -0.6662
12502SOL    HW238085   8.083   5.267   8.549  0.5229  0.5960  0.8763
12503SOL     OW38086   3.621   1.589   5.898 -0.1465  0.0781 -0.7536
12503SOL    HW138087   3.607   1.590   5.804 -0.0086  1.9617 -0.8040
12503SOL    HW238088   3.611   1.681   5.924 -4.1034 -0.7946  1.6426
12504SOL     OW38089   7.777   8.140   0.694 -0.0746  0.5464 -0.0322
12504SOL    HW138090   7.802   8.148   0.786  0.7116 -2.1720  0.0917
12504SOL    HW238091   7.681   8.135   0.697 -0.0274 -0.4818  0.8039
12505SOL     OW38092   7.582   3.993   4.671 -0.7671  0.4096  0.2524
12505SOL    HW138093   7.590   4.023   4.581  0.3296 -0.2861  0.1055
12505SOL    HW238094   7.606   4.070   4.724  0.8497  0.1867 -0.1051
12506SOL     OW38095   4.745   9.003   6.288 -0.6159  0.1888  0.0278
12506SOL    HW138096   4.696   8.955   6.355 -0.7560  0.7553  0.3459
12506SOL    HW238097   4.705   9.090   6.288 -0.1655  0.3996 -0.3161
12507SOL     OW38098   6.384   7.579   5.434 -0.5032 -0.0884  0.0337
12507SOL    HW138099   6.388   7.506   5.495 -3.0811 -2.4707 -2.3715
12507SOL    HW238100   6.447   7.556   5.365  1.1697  1.7579  0.8382
12508SOL     OW38101   6.853   1.340   8.592  0.1538  0.0228  0.1125
12508SOL    HW138102   6.931   1.356   8.539  1.5590 -2.1856  1.3506
12508SOL    HW238103   6.853   1.409   8.658  0.3816  0.7043 -0.5854
12509SOL     OW38104   6.503   8.904   3.932 -0.3134 -0.4411 -0.4510
12509SOL    HW138105   6.549   8.929   4.013  1.3757 -0.5579 -1.3246
12509SOL    HW238106   6.474   8.987   3.895 -1.5752 -0.4244  0.5157
12510SOL     OW38107   8.333   5.667   1.213 -0.4741  0.6237  0.5051
12510SOL    HW138108   8.376   5.615   1.280  0.6118 -1.3161 -1.5596
12510SOL    HW238109   8.366   5.756   1.227  1.4556 -0.1511  1.1816
12511SOL     OW38110   1.782   1.653   9.835 -0.1987 -0.0383 -0.4253
12511SOL    HW138111   1.795   1.643   9.740  2.4150 -2.3576  0.0176
12511SOL    HW238112   1.687   1.660   9.846 -0.4941  2.5042 -3.2941
12512SOL     OW38113   6.716   0.818   2.100  0.6112 -0.1406 -0.2644
12512SOL    HW138114   6.726   0.780   2.013 -0.8019 -1.7833  0.2363
12512SOL    HW238115   6.652   0.888   2.088 -0.9567 -1.5151 -0.2989
12513SOL     OW38116   8.353   4.346   2.605  0.1884  0.1058 -0.1329
12513SOL    HW138117   8.355   4.431   2.648  0.5191 -0.8329  1.7931
12513SOL    HW238118   8.268   4.308   2.629  0.5305 -0.5847  0.0220
12514SOL     OW38119   9.383   0.945   5.203  0.7496  0.6304  0.5466
12514SOL    HW138120   9.384   0.899   5.119  0.3319  0.7766  0.4600
12514SOL    HW238121   9.344   1.030   5.183 -0.9754  0.0332  1.1993
12515SOL     OW38122   6.212   8.274   5.867  0.6661  0.2444 -0.0780
12515SOL    HW138123   6.186   8.332   5.938  1.0585  0.3718 -0.0348
12515SOL    HW238124   6.222   8.188   5.909 -0.2086  0.0787 -0.2008
12516SOL     OW38125   6.313   8.701   6.225 -0.1355  0.2217 -0.3090
12516SOL    HW138126   6.252   8.692   6.299  1.2441 -0.5477  0.7709
12516SOL    HW238127   6.304   8.793   6.198 -1.9398  0.0714 -0.3579
12517SOL     OW38128   6.458   4.493   5.405  0.1478  0.2089  0.7823
12517SOL    HW138129   6.441   4.539   5.323  1.0163 -0.6432  0.1001
12517SOL    HW238130   6.553   4.485   5.410  0.0735 -0.4199  1.4910
12518SOL     OW38131   9.950   8.186   6.588 -0.2545  0.0470 -0.0381
12518SOL    HW138132   9.984   8.229   6.510  1.3098 -1.9642 -0.5379
12518SOL    HW238133   9.941   8.256   6.652  2.6008  1.0982 -0.6592
12519SOL     OW38134   7.364   6.194   1.521 -0.1546 -0.4279 -0.2582
12519SOL    HW138135   7.377   6.229   1.433  0.0591 -0.3208 -0.1846
12519SOL    HW238136   7.411   6.255   1.579 -0.5490 -0.3309 -0.0405
12520SOL     OW38137   9.448   0.504   1.565 -0.7575 -0.2566  0.7636
12520SOL    HW138138   9.436   0.472   1.476  1.9232 -1.1955  0.6472
12520SOL    HW238139   9.532   0.468   1.592 -0.0149  2.5625  2.5569
12521SOL     OW38140   8.162   1.266   8.999 -0.2120 -0.1775  0.1772
12521SOL    HW138141   8.107   1.344   8.992 -0.8400 -0.6364 -0.0735
12521SOL    HW238142   8.176   1.238   8.908  0.1832 -0.2435  0.2553
12522SOL     OW38143   5.727   7.427   3.353 -0.0541 -0.0752 -0.1284
12522SOL    HW138144   5.786   7.434   3.429  0.1105  0.7861 -0.3212
12522SOL    HW238145   5.785   7.408   3.279 -0.0400  0.4862 -0.2687
12523SOL     OW38146   8.752   6.049   7.076 -0.1562  0.2426  0.0589
12523SOL    HW138147   8.812   6.012   7.012  0.2919 -1.7797  1.5340
12523SOL    HW238148   8.738   5.978   7.139 -0.3060  2.2003  2.3721
12524SOL     OW38149   2.840   4.177   1.074  0.0601 -0.4584  0.0911
12524SOL    HW138150   2.934   4.156   1.072  0.0884 -0.2722 -0.6980
12524SOL    HW238151   2.811   4.145   1.160  0.5231 -1.8992 -0.2530
12525SOL     OW38152   6.595   6.577   1.090 -0.1142 -0.1618 -0.1378
12525SOL    HW138153   6.552   6.492   1.094 -1.0441  0.2030 -1.6148
12525SOL    HW238154   6.579   6.616   1.176 -0.5622 -1.0529  0.1981
12526SOL     OW38155   1.361   6.841   7.650  0.0579  0.0772  0.2401
12526SOL    HW138156   1.389   6.839   7.742  2.3768  0.4570 -0.3809
12526SOL    HW238157   1.293   6.908   7.647 -0.8968 -0.7651  1.8677
12527SOL     OW38158   0.064   9.442   3.572  0.4396  0.4512  0.0220
12527SOL    HW138159   0.147   9.426   3.616 -0.1159  1.0747  1.3270
12527SOL    HW238160   0.019   9.506   3.627 -0.7374  0.4323 -0.8805
12528SOL     OW38161   0.496   4.128   7.478  0.3265  0.6358  0.4098
12528SOL    HW138162   0.452   4.170   7.552 -0.3129 -0.6675  0.8041
12528SOL    HW238163   0.436   4.059   7.451  1.5483 -0.3370  0.0958
12529SOL     OW38164   2.779   0.496   7.930 -0.7705  0.6803  0.1445
12529SOL    HW138165   2.725   0.571   7.904 -1.8811 -0.0278  0.3510
12529SOL    HW238166   2.822   0.524   8.011 -0.5696  1.3634 -0.1909
12530SOL     OW38167   5.876   4.165   8.026  0.1424 -0.5824  0.0371
12530SOL    HW138168   5.908   4.160   8.116 -1.6102  1.8357  0.9223
12530SOL    HW238169   5.926   4.236   7.987 -1.1447  0.4168  0.1223
12531SOL     OW38170   8.638   9.529   8.327 -0.2492  0.0470 -0.5799
12531SOL    HW138171   8.602   9.514   8.414 -1.2548 -0.6954 -1.0946
12531SOL    HW238172   8.672   9.444   8.300  1.2183  0.5636 -0.4218
12532SOL     OW38173   4.102   4.723   8.714 -0.4789  0.3448 -0.1768
12532SOL    HW138174   4.103   4.728   8.618 -1.1303  0.3404 -0.1902
12532SOL    HW238175   4.192   4.704   8.738 -0.4364 -0.3544 -0.8318
12533SOL     OW38176   2.487   3.700   9.107 -0.0200  0.2063  0.0751
12533SOL    HW138177   2.520   3.653   9.031  0.1009 -0.4260  0.5139
12533SOL    HW238178   2.564   3.714   9.161 -0.3482 -0.7140  0.8043
12534SOL     OW38179   9.276   1.342   8.820  0.5319  0.2272  0.3708
12534SOL    HW138180   9.331   1.379   8.751  0.7997 -1.3232 -0.2893
12534SOL    HW238181   9.191   1.327   8.778 -0.0621  1.5112  1.0629
12535SOL     OW38182   6.907   4.045   1.223 -0.3145 -0.6332  0.6305
12535SOL    HW138183   6.870   4.023   1.138 -0.1576 -2.1534  0.9344
12535SOL    HW238184   6.848   4.113   1.257 -0.6284 -0.3260 -0.4956
12536SOL     OW38185   8.273   0.184   5.689 -0.2103 -0.0203  0.4832
12536SOL    HW138186   8.282   0.279   5.684  1.6122 -0.2302 -1.3911
12536SOL    HW238187   8.363   0.151   5.697 -0.7432 -1.6256  0.2777
12537SOL     OW38188   6.038   6.884   2.987  0.3263  0.1035 -0.1706
12537SOL    HW138189   6.084   6.824   2.928  0.9654  0.1592  0.2580
12537SOL    HW238190   6.106   6.944   3.018 -0.0233  0.1555  0.5162
12538SOL     OW38191   9.219   7.595   3.293 -0.3991  0.2568  0.4249
12538SOL    HW138192   9.186   7.685   3.297 -0.3206  0.4147 -1.5502
12538SOL    HW238193   9.156   7.548   3.238  0.8666 -0.2578 -0.6354
12539SOL     OW38194   8.628   1.545   1.990 -0.1080 -0.4265 -0.6717
12539SOL    HW138195   8.605   1.598   1.913  1.0612  0.0869 -0.6934
12539SOL    HW238196   8.689   1.479   1.956  0.2124 -0.3595 -0.2384
12540SOL     OW38197   2.517   7.846   8.222 -0.0182  0.4757 -0.5328
12540SOL    HW138198   2.502   7.795   8.302  0.4161  1.0101 -0.1030
12540SOL    HW238199   2.605   7.823   8.195  0.1263  0.8860 -0.4191
12541SOL     OW38200   2.356   7.985   1.041 -0.2488  0.1684  0.1663
12541SOL    HW138201   2.397   8.003   1.126  1.5833 -2.2138 -0.1028
12541SOL    HW238202   2.263   7.975   1.061  0.2300 -1.0661  2.0972
12542SOL     OW38203   9.741   9.424   0.196 -0.0526 -0.7886 -0.1967
12542SOL    HW138204   9.648   9.401   0.203 -0.7916  2.2334  1.6264
12542SOL    HW238205   9.785   9.366   0.259 -0.8415 -1.5151 -0.2969
12543SOL     OW38206   6.513   3.199   8.327 -0.4363  0.3836 -0.6689
12543SOL    HW138207   6.487   3.122   8.277 -0.8026  0.9530 -1.3891
12543SOL    HW238208   6.541   3.165   8.412 -1.1807 -0.4865 -0.7531
12544SOL     OW38209   9.453   6.791   5.217 -0.1244 -0.1126  0.0829
12544SOL    HW138210   9.361   6.800   5.193 -0.3773 -0.4916  0.8751
12544SOL    HW238211   9.465   6.697   5.231  0.5285 -0.1358 -0.5496
12545SOL     OW38212   2.059   1.488   7.795  0.2673  0.8702 -0.0753
12545SOL    HW138213   2.130   1.449   7.846  0.0036  0.3573 -0.0993
12545SOL    HW238214   2.103   1.535   7.725  0.5979  0.8636  0.1247
12546SOL     OW38215   0.206   0.913   4.580 -0.0050  0.4419 -0.4818
12546SOL    HW138216   0.136   0.970   4.611  0.9221  1.4564 -0.1745
12546SOL    HW238217   0.230   0.860   4.656 -0.4624  0.0748 -0.5958
12547SOL     OW38218   2.273   2.919   2.216 -0.1733  0.5155  0.3196
12547SOL    HW138219   2.214   2.979   2.170  0.8995  1.4554  0.1241
12547SOL    HW238220   2.285   2.847   2.155 -1.5803  0.0103  0.6085
12548SOL     OW38221   9.110   3.051   5.681 -0.0675  0.4861  0.3761
12548SOL    HW138222   9.042   3.115   5.701 -0.2385  0.6047 -0.5358
12548SOL    HW238223   9.123   3.003   5.763  0.4511  2.0313  1.2350
12549SOL     OW38224   3.811   4.373   2.891 -0.4836  0.3568 -0.6253
12549SOL    HW138225   3.772   4.459   2.900  0.2346  0.7489 -1.1781
12549SOL    HW238226   3.886   4.375   2.951  0.3042  0.5883 -1.5921
12550SOL     OW38227   1.800   3.313   7.598  0.5579  0.7703 -0.5968
12550SOL    HW138228   1.806   3.404   7.568  1.6187  0.3131 -1.8212
12550SOL    HW238229   1.746   3.269   7.533  0.6575  0.3560 -0.4037
12551SOL     OW38230   5.440   8.239   6.736 -0.2913 -0.3421  0.3590
12551SOL    HW138231   5.520   8.263   6.782 -0.3567 -0.2134  0.4055
12551SOL    HW238232   5.384   8.315   6.745  0.1921  0.2138 -1.0649
12552SOL     OW38233   6.139   9.540   5.890  0.7290 -0.4285 -0.0890
12552SOL    HW138234   6.179   9.571   5.809  0.1550 -0.7820 -0.5166
12552SOL    HW238235   6.154   9.610   5.953 -0.5107  0.7287 -1.0196
12553SOL     OW38236   9.252   2.493   5.935  0.1167  0.5675 -0.3194
12553SOL    HW138237   9.233   2.486   5.841 -2.6602  3.0041 -0.0863
12553SOL    HW238238   9.268   2.586   5.949 -0.4761  0.4125  1.7514
12554SOL     OW38239   1.984   3.435   2.534  0.4449  0.5168  0.4713
12554SOL    HW138240   2.064   3.472   2.496  0.7467 -0.7221 -0.1483
12554SOL    HW238241   1.922   3.508   2.537  2.2646  2.1193  3.0417
12555SOL     OW38242   0.731   1.776   0.064 -0.0803 -0.3717 -0.0972
12555SOL    HW138243   0.794   1.762   0.134  0.5280  1.6230 -0.1782
12555SOL    HW238244   0.693   1.690   0.048  1.2933 -1.2677  1.2158
12556SOL     OW38245   6.848   9.789   5.996 -0.5934 -0.4089 -0.6329
12556SOL    HW138246   6.932   9.751   6.022 -0.5770  0.9875  1.6401
12556SOL    HW238247   6.783   9.727   6.029 -0.4911 -0.7061 -0.9854
12557SOL     OW38248   0.617   9.904   8.847 -0.1062 -0.5637  0.1538
12557SOL    HW138249   0.555   9.957   8.897  0.2768  0.4451 -0.4139
12557SOL    HW238250   0.591   9.814   8.864  0.0292 -0.2771  2.2340
12558SOL     OW38251   0.624   1.472   4.636  0.2793 -0.0665  0.1280
12558SOL    HW138252   0.562   1.453   4.707  0.6109 -2.2877 -0.1034
12558SOL    HW238253   0.668   1.552   4.664 -1.1129  0.3071  1.3814
12559SOL     OW38254   1.294   5.189   7.624 -0.6344  0.6912 -0.0002
12559SOL    HW138255   1.280   5.113   7.567  0.0130 -0.5642  1.4385
12559SOL    HW238256   1.376   5.227   7.593 -0.1483 -0.1413  0.2266
12560SOL     OW38257   0.885   6.024   0.728  0.1525  0.2443 -0.2424
12560SOL    HW138258   0.968   6.072   0.728  1.2237 -1.5002  0.5937
12560SOL    HW238259   0.869   6.004   0.820 -1.1452  0.4330 -0.4097
12561SOL     OW38260   8.901   3.824   7.627 -0.0609 -0.4832  0.4549
12561SOL    HW138261   8.985   3.857   7.595 -0.4255  0.0338  0.0145
12561SOL    HW238262   8.836   3.881   7.586 -0.6191 -0.7907  0.9066
12562SOL     OW38263   8.399   8.626   7.909  0.3729 -0.2009  0.4572
12562SOL    HW138264   8.377   8.719   7.899  0.1070 -0.3362 -0.3587
12562SOL    HW238265   8.465   8.610   7.842 -1.1593 -1.0856 -0.9236
12563SOL     OW38266   4.403   1.533   3.169 -1.0595 -0.6615 -0.1772
12563SOL    HW138267   4.376   1.606   3.114  0.4714  0.9815  1.1354
12563SOL    HW238268   4.324   1.508   3.217 -1.6904 -0.1529 -0.9250
12564SOL     OW38269   2.898   9.121   4.212 -0.0230  1.0373 -0.8003
12564SOL    HW138270   2.969   9.105   4.149  0.4164  0.6518 -0.2137
12564SOL    HW238271   2.894   9.216   4.220 -1.0548  1.1810 -2.4989
12565SOL     OW38272   5.350   2.665   8.616  0.0222 -0.3262 -0.0065
12565SOL    HW138273   5.428   2.715   8.595 -0.2680 -0.4338 -1.4320
12565SOL    HW238274   5.359   2.643   8.709  2.3655 -1.5103 -0.4560
12566SOL     OW38275   4.013   9.538   1.098  0.0589 -0.2657 -0.0198
12566SOL    HW138276   3.942   9.485   1.060 -0.4449  1.3274 -1.4194
12566SOL    HW238277   3.991   9.542   1.192 -1.7070  0.1428 -0.4060
12567SOL     OW38278   6.894   0.443   9.360 -0.3690 -0.1386  0.7961
12567SOL    HW138279   6.959   0.374   9.346 -0.3628  0.1144 -0.6608
12567SOL    HW238280   6.913   0.478   9.447 -1.9640 -3.6211  2.7268
12568SOL     OW38281   5.076   1.604   3.237 -0.1210  1.0522  0.2911
12568SOL    HW138282   5.163   1.623   3.203  1.1772 -3.3631  0.6594
12568SOL    HW238283   5.044   1.531   3.183 -1.3186 -0.8922  3.3944
12569SOL     OW38284   4.862   0.250   7.699 -0.3451 -0.0178 -0.4576
12569SOL    HW138285   4.948   0.246   7.658  0.1390  1.9126  0.2629
12569SOL    HW238286   4.874   0.304   7.777 -2.0561 -0.3371  0.0868
12570SOL     OW38287   0.564   5.288   4.678 -0.1422  0.4420  0.1198
12570SOL    HW138288   0.559   5.249   4.765  1.5979  0.9572  0.4840
12570SOL    HW238289   0.525   5.222   4.620  0.1621 -0.6202  1.0820
12571SOL     OW38290   1.439   3.239   9.541 -0.3019  0.3274 -0.1539
12571SOL    HW138291   1.347   3.226   9.565 -0.8202 -0.3593 -2.2813
12571SOL    HW238292   1.440   3.232   9.445  1.9807  0.2867 -0.1841
12572SOL     OW38293   8.521   2.475   7.791  0.0532  0.0437  0.1301
12572SOL    HW138294   8.536   2.471   7.697  0.5084 -1.1957  0.2416
12572SOL    HW238295   8.544   2.565   7.815  1.3764 -0.0483 -0.7082
12573SOL     OW38296   9.530   0.429   4.776  0.7405 -0.6246  0.4208
12573SOL    HW138297   9.464   0.361   4.767  0.9497 -0.7483 -0.2608
12573SOL    HW238298   9.522   0.459   4.867  0.7784 -1.6857  0.7870
12574SOL     OW38299   3.911   7.502   0.269 -0.1179 -0.0543 -0.2710
12574SOL    HW138300   3.905   7.529   0.360 -0.3942 -0.3296 -0.2071
12574SOL    HW238301   3.916   7.584   0.220 -0.2484  0.0985 -0.0296
12575SOL     OW38302   5.165   7.904   6.250 -1.0208  0.2081  0.2497
12575SOL    HW138303   5.079   7.940   6.269 -2.1600 -1.1888 -1.8696
12575SOL    HW238304   5.175   7.911   6.155  1.5035  0.8710  0.4726
12576SOL     OW38305   5.011   1.555   0.292 -0.1429  0.7164  0.3236
12576SOL    HW138306   5.062   1.632   0.266  1.8121 -0.9025 -0.9391
12576SOL    HW238307   5.068   1.507   0.351  0.2071 -1.5125 -1.6645
12577SOL     OW38308   6.269   8.195   4.029  0.3059 -0.3781 -0.2395
12577SOL    HW138309   6.334   8.171   4.096 -0.0989 -1.4162 -0.1997
12577SOL    HW238310   6.269   8.121   3.968 -0.3893 -0.1061 -0.5789
12578SOL     OW38311   0.998   9.072   3.198 -0.2401  0.6408  0.5146
12578SOL    HW138312   0.988   9.069   3.102  1.0376 -0.0843  0.3738
12578SOL    HW238313   0.930   9.131   3.227  0.1069  1.8509 -0.9795
12579SOL     OW38314   8.947   6.070   5.414  0.1215 -0.1980  0.1159
12579SOL    HW138315   9.011   5.998   5.415  0.1183 -0.2380 -1.1882
12579SOL    HW238316   8.862   6.027   5.424  0.2178 -0.2298  0.8668
12580SOL     OW38317   4.340   4.078   0.818 -0.2021 -0.1593 -0.1136
12580SOL    HW138318   4.283   4.114   0.750  0.2279  0.3972 -0.1870
12580SOL    HW238319   4.388   4.008   0.775  0.9345  0.9556 -0.7392
12581SOL     OW38320   1.308   9.697   0.770  0.3162 -0.3303 -0.0426
12581SOL    HW138321   1.297   9.728   0.680  1.1535 -0.4192 -0.1880
12581SOL    HW238322   1.402   9.680   0.778  0.3222  0.0958  0.9889
12582SOL     OW38323   3.090   1.399   2.789 -0.2371  0.2938 -0.0113
12582SOL    HW138324   3.115   1.481   2.746  1.2917 -0.1257  0.0212
12582SOL    HW238325   3.064   1.425   2.877  2.6270  0.5655  0.8609
12583SOL     OW38326   2.283   7.082   8.416  0.7341 -0.3695  0.6248
12583SOL    HW138327   2.282   7.140   8.340  0.1581  2.0133  2.3343
12583SOL    HW238328   2.351   7.017   8.396 -0.0122 -0.3878 -2.2595
12584SOL     OW38329   0.633   1.559   3.820 -0.3704 -0.0300 -0.3017
12584SOL    HW138330   0.676   1.533   3.901  2.5208  0.6329 -1.5006
12584SOL    HW238331   0.622   1.654   3.828 -0.0732  0.0394 -0.6738
12585SOL     OW38332   5.272   3.357   7.270 -0.2776 -0.0502  0.0767
12585SOL    HW138333   5.215   3.310   7.210  0.3637 -1.0514  0.2191
12585SOL    HW238334   5.358   3.357   7.228 -0.4762  2.0142 -0.4437
12586SOL     OW38335   8.241   7.995   7.119  0.1150 -0.2616  0.5759
12586SOL    HW138336   8.256   8.076   7.167 -0.7512 -0.2468  0.8405
12586SOL    HW238337   8.160   8.010   7.070  1.5133  0.1231 -1.7987
12587SOL     OW38338   3.147   1.570   0.625  0.4810  0.2834  0.3009
12587SOL    HW138339   3.155   1.546   0.717  0.1946  0.6131  0.4140
12587SOL    HW238340   3.065   1.531   0.596  0.0201  1.1028  0.4840
12588SOL     OW38341   2.752   3.817   6.775 -0.1532  0.0354 -0.4889
12588SOL    HW138342   2.681   3.844   6.834  0.5738  1.4183 -0.2236
12588SOL    HW238343   2.723   3.731   6.743 -2.7332  1.2011 -1.6138
12589SOL     OW38344   8.713   6.321   5.700  0.0541  0.5043 -0.1607
12589SOL    HW138345   8.650   6.278   5.758 -0.1512  1.1747  0.1217
12589SOL    HW238346   8.664   6.340   5.621 -0.1444  1.1631  0.1172
12590SOL     OW38347   7.016   7.143   8.485 -0.7865 -0.0799 -0.1063
12590SOL    HW138348   6.986   7.117   8.397  1.2775  0.3332 -0.9864
12590SOL    HW238349   7.071   7.071   8.514 -0.9573  0.0684  0.6048
12591SOL     OW38350   7.582   4.963   3.296  0.0970  0.4061 -0.0371
12591SOL    HW138351   7.527   4.904   3.348 -0.6230  0.1334 -1.0892
12591SOL    HW238352   7.557   5.051   3.326 -0.1343  0.2458  0.2474
12592SOL     OW38353   7.315   8.788   7.299 -0.3636 -0.0398  0.1069
12592SOL    HW138354   7.262   8.819   7.373 -0.0493 -1.2186  0.8724
12592SOL    HW238355   7.328   8.865   7.244  1.0335  1.3822  2.2701
12593SOL     OW38356   2.841   7.856   8.125 -0.0924  0.4160  0.3684
12593SOL    HW138357   2.886   7.939   8.139  0.4093  0.1648  0.2635
12593SOL    HW238358   2.907   7.799   8.085 -0.8956  0.4564 -1.0579
12594SOL     OW38359   2.591   1.811   4.499  0.6237  0.0580  0.3959
12594SOL    HW138360   2.602   1.895   4.544 -0.3685  1.3509 -1.5778
12594SOL    HW238361   2.669   1.802   4.444  0.0219  0.5116 -0.5639
12595SOL     OW38362   6.129   6.706   6.467 -0.0435 -0.7463 -0.2463
12595SOL    HW138363   6.184   6.631   6.487 -1.2151 -1.2304  1.4102
12595SOL    HW238364   6.081   6.723   6.548 -2.5464 -0.5626 -1.6462
12596SOL     OW38365   7.263   2.829   3.890  0.2106  0.4149  0.2029
12596SOL    HW138366   7.190   2.777   3.924 -0.2610  0.5989 -0.5117
12596SOL    HW238367   7.319   2.765   3.846 -0.5302  0.5349 -0.9521
12597SOL     OW38368   2.099   2.306   8.045 -0.3935 -0.1059 -0.4178
12597SOL    HW138369   2.135   2.235   7.992  0.2293  0.3845 -0.6604
12597SOL    HW238370   2.160   2.379   8.033 -1.7376  0.9264 -1.2791
12598SOL     OW38371   1.127   4.747   4.128 -0.1549 -0.6139 -0.3992
12598SOL    HW138372   1.086   4.789   4.204  0.7749 -0.8558  0.2665
12598SOL    HW238373   1.212   4.716   4.162 -0.3648 -2.0788 -1.1396
12599SOL     OW38374   5.524   4.727   6.661 -0.0298  0.2944  0.3883
12599SOL    HW138375   5.537   4.645   6.708 -0.5138  0.1020  0.1973
12599SOL    HW238376   5.453   4.771   6.708  0.6926  0.9304  0.9050
12600SOL     OW38377   6.438   5.550   6.544 -0.9663 -0.0833 -0.5455
12600SOL    HW138378   6.387   5.496   6.484 -1.1141  0.8104 -1.2355
12600SOL    HW238379   6.377   5.618   6.573 -0.8266 -0.3610  0.4289
12601SOL     OW38380   3.686   4.638   2.920  0.4247  0.5727 -0.0248
12601SOL    HW138381   3.613   4.657   2.978  0.1246  2.9060 -1.0538
12601SOL    HW238382   3.764   4.665   2.969  0.4301 -0.0871  0.3351
12602SOL     OW38383   5.656   5.134   7.572 -0.7133  0.3083 -0.4173
12602SOL    HW138384   5.711   5.085   7.511  0.8245  2.8436 -1.2334
12602SOL    HW238385   5.570   5.135   7.531 -0.2200  0.1694 -1.4803
12603SOL     OW38386   8.929   0.063   6.203  0.2475  0.4554 -0.3025
12603SOL    HW138387   8.967   0.149   6.221 -1.1064  0.6240  2.3636
12603SOL    HW238388   8.892   0.070   6.115  0.3884  2.5371 -0.2415
12604SOL     OW38389   8.274   1.871   9.799  0.3042 -0.0504  0.0723
12604SOL    HW138390   8.359   1.870   9.842  0.8801  0.2188 -1.0082
12604SOL    HW238391   8.213   1.902   9.866  0.7990 -1.5645  1.2770
12605SOL     OW38392   6.023   4.674   4.519 -0.4693  0.2071  0.0404
12605SOL    HW138393   5.938   4.703   4.552 -0.3301 -1.0391  1.6092
12605SOL    HW238394   6.012   4.581   4.502  0.5212  0.0786  0.0282
12606SOL     OW38395   8.870   9.763   2.188  0.2518  0.4406 -0.1326
12606SOL    HW138396   8.829   9.705   2.123  3.7297 -1.4525 -0.9267
12606SOL    HW238397   8.862   9.716   2.271 -2.8650  2.1610  0.6679
12607SOL     OW38398   4.769   1.121   6.570  0.2096 -0.1043 -0.1963
12607SOL    HW138399   4.809   1.186   6.512 -0.5298  1.1778  0.6741
12607SOL    HW238400   4.843   1.071   6.604  0.9358  1.0755  0.0261
12608SOL     OW38401   1.325   9.945   2.418 -0.3182  0.7386  0.0517
12608SOL    HW138402   1.239   9.925   2.382  0.0420 -0.6820 -0.0862
12608SOL    HW238403   1.341  10.036   2.393 -0.9250  0.4050 -1.7003
12609SOL     OW38404   4.320   5.768   9.622  0.2531  0.3003  0.1535
12609SOL    HW138405   4.401   5.720   9.636 -0.2424 -0.5862  0.0631
12609SOL    HW238406   4.262   5.738   9.692 -0.4903 -0.2194 -0.6666
12610SOL     OW38407   3.665   5.552   5.713 -0.1110 -0.5344  0.0225
12610SOL    HW138408   3.577   5.532   5.683 -0.0339 -0.2518 -0.4087
12610SOL    HW238409   3.668   5.648   5.714 -0.2069 -0.5364  1.2255
12611SOL     OW38410   9.345   0.160   8.213 -0.1262 -0.1744 -0.5844
12611SOL    HW138411   9.276   0.095   8.229  0.1015 -0.5058 -0.9156
12611SOL    HW238412   9.357   0.203   8.298 -2.8823  2.0619 -1.1903
12612SOL     OW38413   5.252   8.452   7.154 -0.7531  0.0390 -0.0426
12612SOL    HW138414   5.299   8.511   7.095 -1.0855 -0.8677 -1.2690
12612SOL    HW238415   5.167   8.440   7.113 -1.5563  0.5395  1.4155
12613SOL     OW38416   8.461   8.554   4.436 -0.3019 -0.3205  0.4485
12613SOL    HW138417   8.444   8.613   4.362  0.8058 -0.2063  0.2638
12613SOL    HW238418   8.382   8.500   4.442 -0.5579 -0.0904 -0.5954
12614SOL     OW38419   9.146   9.696   1.074  0.1006 -0.3888  0.8223
12614SOL    HW138420   9.214   9.756   1.043 -0.7847  0.7538  1.0115
12614SOL    HW238421   9.182   9.658   1.154  0.8828 -0.5117  0.4216
12615SOL     OW38422   7.988   5.659   7.880 -0.7166 -0.2934 -0.8987
12615SOL    HW138423   7.992   5.565   7.863  0.6337 -0.2923 -0.7311
12615SOL    HW238424   8.074   5.680   7.917 -2.1403  0.4067  2.2955
12616SOL     OW38425   5.776   7.823   0.841 -0.6341  0.2026 -0.0950
12616SOL    HW138426   5.685   7.848   0.829 -0.6631 -0.5364 -1.5550
12616SOL    HW238427   5.824   7.906   0.841 -1.2598  0.5681  0.3569
12617SOL     OW38428   1.326   1.630   6.232 -0.0197 -0.5746 -0.7110
12617SOL    HW138429   1.371   1.588   6.306 -0.3271  1.9945  1.0443
12617SOL    HW238430   1.396   1.650   6.170  0.6854 -0.2038  0.1848
12618SOL     OW38431   1.672   1.471   4.291 -0.0044 -0.5904  0.7520
12618SOL    HW138432   1.590   1.475   4.340 -1.2005 -0.3691 -1.1642
12618SOL    HW238433   1.714   1.556   4.306 -0.7388 -0.2219  0.7502
12619SOL     OW38434   2.204   8.201   6.983 -0.5279 -0.2403  0.5326
12619SOL    HW138435   2.259   8.129   6.952 -2.7857 -1.6488 -0.4612
12619SOL    HW238436   2.122   8.159   7.010 -1.6619  1.8770  0.6160
12620SOL     OW38437   8.924   9.062   0.239  0.3171 -0.1950 -0.9214
12620SOL    HW138438   8.843   9.094   0.201  0.0187  0.5814  0.3368
12620SOL    HW238439   8.897   8.992   0.298  0.7491 -1.1516 -1.8147
12621SOL     OW38440   3.865   8.505   7.210  0.3444  0.3549  0.0392
12621SOL    HW138441   3.822   8.565   7.270  1.1300  0.7763  0.2030
12621SOL    HW238442   3.926   8.561   7.160 -0.3302  0.0349 -1.1922
12622SOL     OW38443   9.521   6.272   4.910 -0.1426  0.4263  0.3254
12622SOL    HW138444   9.611   6.242   4.902 -0.7956 -1.1757 -2.2957
12622SOL    HW238445   9.494   6.247   4.999  1.2781 -1.1537  0.3392
12623SOL     OW38446   6.352   4.246   0.659  0.1624 -0.2190 -0.8816
12623SOL    HW138447   6.332   4.179   0.594  0.5031 -0.7017 -0.4978
12623SOL    HW238448   6.426   4.210   0.709 -2.1147 -1.3916  1.9607
12624SOL     OW38449   3.700   5.157   0.441  0.5840  0.5527  0.5812
12624SOL    HW138450   3.681   5.199   0.525 -0.3742  0.5138  0.3939
12624SOL    HW238451   3.756   5.219   0.396  0.4294  0.9473  0.9206
12625SOL     OW38452   9.117   8.657   4.453 -0.0996  0.1247  0.1789
12625SOL    HW138453   9.157   8.588   4.505  1.3774 -0.6605 -1.8448
12625SOL    HW238454   9.187   8.721   4.440 -0.7427  0.8100  0.0236
12626SOL     OW38455   4.911   4.797   3.863 -0.0643  0.4787 -0.4010
12626SOL    HW138456   4.976   4.761   3.923  1.7949  1.3947 -1.7762
12626SOL    HW238457   4.828   4.791   3.911  0.9895 -0.8102  1.3744
12627SOL     OW38458   8.692   3.687   5.498 -0.3641  0.1217  0.2538
12627SOL    HW138459   8.649   3.716   5.578 -0.1185 -1.1056  0.8516
12627SOL    HW238460   8.672   3.594   5.492 -0.5752  0.2350 -1.2479
12628SOL     OW38461   8.491   2.095   5.324  0.4245 -0.2307  0.0467
12628SOL    HW138462   8.586   2.095   5.336  0.5956  1.6768 -0.9712
12628SOL    HW238463   8.458   2.151   5.394  0.0619 -0.7542  0.2949
12629SOL     OW38464   6.649   0.167   8.005  0.2898 -0.0486 -0.2448
12629SOL    HW138465   6.571   0.182   8.058  0.4372  0.9923 -0.3054
12629SOL    HW238466   6.616   0.126   7.925  0.0275 -1.2755  0.4773
12630SOL     OW38467   0.513   9.109   9.851  0.2647  0.2586  0.7480
12630SOL    HW138468   0.566   9.149   9.782 -0.5755 -2.1782 -1.5044
12630SOL    HW238469   0.450   9.055   9.803 -1.2453 -0.5196  3.4484
12631SOL     OW38470   5.705   3.698   9.047  0.2824  0.3523 -0.3368
12631SOL    HW138471   5.694   3.790   9.021 -0.4084  0.4654  0.3277
12631SOL    HW238472   5.799   3.690   9.066  0.2175  1.1567  0.4163
12632SOL     OW38473   2.726   6.705   3.376  0.0050 -0.7832  0.0718
12632SOL    HW138474   2.666   6.643   3.418  0.2795 -1.0828  0.0206
12632SOL    HW238475   2.701   6.702   3.283 -0.8134  0.1144  0.2472
12633SOL     OW38476   0.358   5.363   5.533 -0.2102  0.0400 -0.3818
12633SOL    HW138477   0.351   5.411   5.451  0.6926 -0.7524 -0.9503
12633SOL    HW238478   0.437   5.309   5.523  0.4087  0.5458  1.3393
12634SOL     OW38479   4.219   1.950   9.183 -0.3719  0.5522  0.0204
12634SOL    HW138480   4.155   1.916   9.246  0.0026  1.9200  1.1979
12634SOL    HW238481   4.166   1.990   9.114 -0.7839  0.6186  0.3746
12635SOL     OW38482   9.282   7.723   4.377 -0.3150 -0.5841  0.7602
12635SOL    HW138483   9.202   7.707   4.327  1.0531  0.1121 -1.8294
12635SOL    HW238484   9.340   7.649   4.354  1.3796  1.1988 -1.0974
12636SOL     OW38485   7.623   7.734   0.805 -0.3451  0.0167 -0.0420
12636SOL    HW138486   7.681   7.755   0.732  0.5669  2.4836  1.2377
12636SOL    HW238487   7.542   7.702   0.765  0.6596 -0.1705 -2.0201
12637SOL     OW38488   6.736   4.131   9.757  0.6061 -0.4082  0.3117
12637SOL    HW138489   6.652   4.151   9.718  0.1633 -0.5960  1.1435
12637SOL    HW238490   6.746   4.195   9.827  0.5230 -1.2401  1.1004
12638SOL     OW38491   7.748   2.854   7.049 -0.3152 -0.2804  0.2095
12638SOL    HW138492   7.726   2.831   6.959  0.1515 -3.0671  0.7143
12638SOL    HW238493   7.835   2.893   7.043  0.0937 -1.2569 -0.4908
12639SOL     OW38494   0.875   5.507   6.415 -0.0321  0.3929  0.9287
12639SOL    HW138495   0.873   5.488   6.509  0.5181  1.2151  1.1194
12639SOL    HW238496   0.795   5.557   6.400 -0.9415 -1.0900  0.6299
12640SOL     OW38497   3.678   0.174   5.958  0.6057  0.2400  0.8188
12640SOL    HW138498   3.670   0.240   6.027 -4.7301 -0.1765  1.0177
12640SOL    HW238499   3.632   0.097   5.992  0.5289 -1.1084 -2.0043
12641SOL     OW38500   1.479   3.805   9.271 -0.6388  0.0919 -0.3343
12641SOL    HW138501   1.508   3.789   9.361  0.7187  1.3473 -0.4943
12641SOL    HW238502   1.384   3.794   9.273 -0.7911  1.3500  1.5649
12642SOL     OW38503   6.547   3.078   8.576  0.1376  0.1777 -0.2557
12642SOL    HW138504   6.571   3.135   8.649  0.0990  0.7595 -0.6917
12642SOL    HW238505   6.585   2.993   8.599 -0.1637  0.2655  0.5993
12643SOL     OW38506   2.341   3.921   5.130  0.0178  0.1000 -0.5937
12643SOL    HW138507   2.339   3.946   5.037  1.7337 -0.8732 -0.9346
12643SOL    HW238508   2.426   3.879   5.142 -1.1684 -2.1225  0.8150
12644SOL     OW38509   0.347   2.597   6.531 -0.4416  0.1696  0.6694
12644SOL    HW138510   0.296   2.666   6.487 -0.3294  1.0182  1.8290
12644SOL    HW238511   0.351   2.625   6.622  2.8664  0.6230  0.5014
12645SOL     OW38512   5.548   0.908   5.365  0.2035 -0.1977 -0.1719
12645SOL    HW138513   5.474   0.912   5.424  0.7549 -2.3098  0.7376
12645SOL    HW238514   5.593   0.992   5.377 -1.4938  0.7411 -0.0854
12646SOL     OW38515   0.868   3.648   3.593 -0.3658 -0.3385 -0.0854
12646SOL    HW138516   0.899   3.559   3.606 -0.4624 -0.5065 -0.9604
12646SOL    HW238517   0.948   3.700   3.582 -0.3060 -0.8982 -3.1521
12647SOL     OW38518   3.122   0.633   7.794 -1.0964  0.6152 -0.2022
12647SOL    HW138519   3.073   0.551   7.793 -0.7887  0.4278 -1.0588
12647SOL    HW238520   3.176   0.628   7.872  0.1761 -0.7839 -1.1138
12648SOL     OW38521   2.468   2.418   8.683 -0.1487  0.1441  0.1349
12648SOL    HW138522   2.486   2.373   8.766  2.7149 -0.1255 -0.5091
12648SOL    HW238523   2.400   2.481   8.704 -0.0696 -0.4513  2.4939
12649SOL     OW38524   7.881   4.819   6.168  0.3786  0.2961  0.0698
12649SOL    HW138525   7.974   4.808   6.188 -0.2953 -0.8872  3.0283
12649SOL    HW238526   7.848   4.730   6.157 -1.1387  0.3018  3.3774
12650SOL     OW38527   3.833   2.346   4.431 -0.3110  0.5555  0.2169
12650SOL    HW138528   3.927   2.350   4.448 -0.2053 -1.7304  0.4696
12650SOL    HW238529   3.822   2.386   4.345  0.9162  0.7149  0.1294
12651SOL     OW38530   2.689   3.438   7.220 -0.7586 -0.0603  0.0692
12651SOL    HW138531   2.621   3.458   7.284  0.6461  1.1355  1.2559
12651SOL    HW238532   2.664   3.352   7.185 -1.0457 -1.2740  2.9762
12652SOL     OW38533   6.386   9.825   2.218 -0.3792  0.0531  0.0033
12652SOL    HW138534   6.463   9.773   2.240 -0.2134 -0.3148 -1.3828
12652SOL    HW238535   6.318   9.760   2.198 -1.2013  0.3664  1.6303
12653SOL     OW38536   1.818   5.411   3.360  0.2067  0.0361 -0.2563
12653SOL    HW138537   1.786   5.400   3.450  0.1189 -2.4837 -0.5287
12653SOL    HW238538   1.882   5.340   3.348 -0.5138 -0.3167 -2.4708
12654SOL     OW38539   2.216   0.008   7.474  0.2490 -0.2133 -0.1744
12654SOL    HW138540   2.207   0.026   7.568 -0.3033 -1.7388  0.0949
12654SOL    HW238541   2.309   0.021   7.455  0.8011 -1.9317  1.0810
12655SOL     OW38542   5.255   7.924   0.678  0.6505  0.4980 -0.1517
12655SOL    HW138543   5.200   7.951   0.605  0.2001  1.5829  0.5534
12655SOL    HW238544   5.201   7.940   0.756  2.3641  2.8924  0.6742
12656SOL     OW38545   0.326   8.379   5.570 -0.2694  0.3289 -0.3177
12656SOL    HW138546   0.386   8.367   5.496 -0.7870  0.6723 -0.8026
12656SOL    HW238547   0.248   8.418   5.531 -0.5572  0.4920  0.4143
12657SOL     OW38548   8.606   5.794   2.593 -0.3692  0.2992 -0.1438
12657SOL    HW138549   8.625   5.722   2.652 -1.0263  1.5647  1.6967
12657SOL    HW238550   8.692   5.829   2.570 -0.1064  1.4295  2.2454
12658SOL     OW38551   0.013   7.017   7.925 -0.0183  0.2363  0.2300
12658SOL    HW138552   0.100   7.008   7.886  0.3565  1.3365  0.7834
12658SOL    HW238553  -0.046   7.026   7.850  0.5484  1.1514 -0.1165
12659SOL     OW38554   5.695   3.726   9.466 -0.1490 -0.3305  0.8579
12659SOL    HW138555   5.672   3.812   9.433  0.3606  0.8048  3.2052
12659SOL    HW238556   5.702   3.671   9.388 -2.1048  1.3141 -0.5868
12660SOL     OW38557   3.473   6.472   4.651  0.4685 -0.3641  0.5481
12660SOL    HW138558   3.449   6.393   4.698  2.0999 -0.4980  1.2410
12660SOL    HW238559   3.557   6.498   4.689 -0.1380  1.8708  0.5600
12661SOL     OW38560   4.478   5.573   7.490 -0.4537  0.9743  0.6942
12661SOL    HW138561   4.464   5.666   7.507  0.2088  0.9874  1.2142
12661SOL    HW238562   4.559   5.569   7.439  0.1892  0.6194  1.7111
12662SOL     OW38563   6.067   1.961   4.353  0.2076 -0.5535  0.2598
12662SOL    HW138564   6.070   1.874   4.315 -0.9611 -0.3898 -0.2717
12662SOL    HW238565   6.135   2.010   4.307  0.7059 -1.1158  0.3910
12663SOL     OW38566   2.889   9.639   8.995  0.0309 -0.3771 -0.4099
12663SOL    HW138567   2.886   9.699   8.920  3.1396 -0.3742 -0.6893
12663SOL    HW238568   2.900   9.696   9.071  0.7942 -0.4735 -0.4350
12664SOL     OW38569   3.974   5.836   5.445  0.2376  0.0626 -0.0935
12664SOL    HW138570   3.974   5.764   5.508 -1.9627  0.5206  0.5264
12664SOL    HW238571   4.039   5.898   5.479  0.2717 -0.4496  0.7966
12665SOL     OW38572   5.566   2.590   1.803  0.1020 -0.5315 -0.5833
12665SOL    HW138573   5.573   2.513   1.746 -0.7089 -1.5981  0.6837
12665SOL    HW238574   5.654   2.601   1.840  0.3640 -0.4888 -1.2076
12666SOL     OW38575   4.646   6.698   5.553 -0.6199 -0.1112 -0.2850
12666SOL    HW138576   4.715   6.760   5.529  0.6953 -2.0571 -1.8702
12666SOL    HW238577   4.596   6.686   5.473 -1.4959 -0.3578  0.2841
12667SOL     OW38578   4.209   3.160   3.945 -0.4947  0.6306 -0.5569
12667SOL    HW138579   4.228   3.251   3.969  1.2791  0.1633 -0.0672
12667SOL    HW238580   4.260   3.146   3.865  0.0458 -0.2255 -0.0670
12668SOL     OW38581   1.768   7.542   8.649 -0.5784 -0.2310 -0.3747
12668SOL    HW138582   1.848   7.591   8.669 -2.3378  2.4460  0.5582
12668SOL    HW238583   1.748   7.564   8.559 -0.9923  0.1950 -0.1786
12669SOL     OW38584   1.126   8.669   2.556  0.4592  0.0888 -0.0145
12669SOL    HW138585   1.069   8.639   2.628  0.1036 -1.4072 -0.8751
12669SOL    HW238586   1.189   8.598   2.545  0.4750  0.2737 -1.2070
12670SOL     OW38587   2.601   2.848   2.012  0.0923  0.3401 -0.5677
12670SOL    HW138588   2.675   2.905   2.035  0.7961 -0.5963 -0.4543
12670SOL    HW238589   2.622   2.764   2.052 -1.5355  0.3271  0.3113
12671SOL     OW38590   5.443   4.234   0.097  0.2496  0.0626  0.0495
12671SOL    HW138591   5.397   4.153   0.074  1.6148 -0.1396 -2.3208
12671SOL    HW238592   5.428   4.293   0.023 -0.1299  1.7601  1.4127
12672SOL     OW38593   1.217   2.159   3.128 -0.2666 -0.0784  0.8155
12672SOL    HW138594   1.134   2.186   3.167 -1.4833 -0.6500 -1.1954
12672SOL    HW238595   1.274   2.235   3.135 -1.3805  0.7323  1.1765
12673SOL     OW38596   7.038   8.810   0.871  0.1478 -0.3067 -0.2002
12673SOL    HW138597   6.969   8.872   0.895 -0.2701 -0.9370  0.2471
12673SOL    HW238598   7.015   8.730   0.918  0.7717 -0.7513 -0.6504
12674SOL     OW38599   4.104   7.726   1.381  0.1829 -0.4790  0.0856
12674SOL    HW138600   4.078   7.711   1.472 -2.3262  0.4292 -0.3778
12674SOL    HW238601   4.090   7.642   1.338 -1.3236 -0.2344  0.0375
12675SOL     OW38602   3.970   7.609   8.458  0.5888  0.5865 -0.6702
12675SOL    HW138603   3.958   7.704   8.449  0.2346  0.7759  1.3398
12675SOL    HW238604   3.996   7.596   8.550 -1.4985 -1.4265 -0.2663
12676SOL     OW38605   5.714   2.176   5.969  0.6020  0.2277  0.1027
12676SOL    HW138606   5.805   2.163   5.942  0.3527  1.9425 -1.7535
12676SOL    HW238607   5.720   2.215   6.057  1.7886  2.4750 -0.9077
12677SOL     OW38608   3.922   1.564   3.267  0.2676  0.2839 -0.3858
12677SOL    HW138609   3.906   1.525   3.181 -0.3821  0.1282 -0.1988
12677SOL    HW238610   3.861   1.638   3.271  1.1246  1.0160 -0.5294
12678SOL     OW38611   1.436   5.868   1.877 -0.3713  0.2843 -0.3160
12678SOL    HW138612   1.468   5.958   1.864  1.3162 -0.4218 -1.4428
12678SOL    HW238613   1.341   5.876   1.875 -0.2612  2.0341 -0.4582
12679SOL     OW38614   6.090   0.686   6.343  0.6433  0.2056  0.0201
12679SOL    HW138615   6.160   0.736   6.299  0.0640  1.9188  0.9530
12679SOL    HW238616   6.110   0.693   6.436  0.6923 -1.6066  0.1818
12680SOL     OW38617   3.255   1.359   1.375  0.0478  0.1101  0.2533
12680SOL    HW138618   3.345   1.393   1.383  0.3328 -0.4833 -0.3583
12680SOL    HW238619   3.200   1.433   1.402  0.5836  1.5634 -2.3079
12681SOL     OW38620   0.217   5.306   9.769  0.2637 -0.4227 -0.0776
12681SOL    HW138621   0.129   5.327   9.798 -0.3212  0.3761 -2.2851
12681SOL    HW238622   0.220   5.210   9.770 -0.9742 -0.4910 -0.8806
12682SOL     OW38623   1.033   7.303   2.005  0.1671  0.7761 -0.2322
12682SOL    HW138624   0.952   7.293   2.055  1.1438 -0.0058  1.2747
12682SOL    HW238625   1.081   7.373   2.049  1.1994 -0.1577  0.2076
12683SOL     OW38626   6.087   8.426   9.037 -0.3328  0.2819  0.8421
12683SOL    HW138627   6.095   8.413   9.131  0.7799 -1.5852  0.5457
12683SOL    HW238628   5.994   8.417   9.019 -0.3167 -1.7192  1.5102
12684SOL     OW38629   3.404   5.560   1.861 -0.2508 -0.6858 -0.4374
12684SOL    HW138630   3.345   5.625   1.823 -1.2849 -0.8800  0.7688
12684SOL    HW238631   3.474   5.550   1.796 -0.1343  1.5005 -0.7334
12685SOL     OW38632   9.565   7.807   9.923  0.0168  0.2023 -0.7555
12685SOL    HW138633   9.575   7.888   9.874  2.3284  0.2634 -0.2808
12685SOL    HW238634   9.583   7.738   9.859 -1.1538  0.0559 -0.9597
12686SOL     OW38635   6.151   2.421   0.848 -0.1017  0.0590  0.1509
12686SOL    HW138636   6.163   2.499   0.902  1.6900 -0.7956  1.0921
12686SOL    HW238637   6.226   2.421   0.789 -0.1603 -0.8669  0.0650
12687SOL     OW38638   5.076   9.941   9.858 -0.7563  0.2051 -0.1622
12687SOL    HW138639   5.152   9.964   9.911  0.7206 -2.3178 -0.9898
12687SOL    HW238640   5.037  10.025   9.834  0.2455  1.5042  2.3859
12688SOL     OW38641   9.526   2.111   5.394 -0.3277  0.2581 -0.0509
12688SOL    HW138642   9.528   2.067   5.479  0.2666  1.6909  0.7139
12688SOL    HW238643   9.601   2.075   5.347 -2.3187 -2.7740 -1.2331
12689SOL     OW38644   9.177   9.576   7.272  0.3398 -0.4720 -0.1198
12689SOL    HW138645   9.220   9.566   7.187 -0.5799 -1.6481 -0.4670
12689SOL    HW238646   9.084   9.578   7.252  0.1588  0.9413  0.7252
12690SOL     OW38647   8.730   1.357   7.051 -0.0387 -0.5208 -0.1919
12690SOL    HW138648   8.792   1.309   7.104  1.3880  1.2604 -0.1576
12690SOL    HW238649   8.782   1.426   7.009 -1.7005  0.0663 -1.4073
12691SOL     OW38650   1.494   2.422   4.385  0.4611  0.6002 -0.0742
12691SOL    HW138651   1.402   2.444   4.401  0.0746  0.5353 -1.9753
12691SOL    HW238652   1.509   2.343   4.437 -1.0515 -0.3356 -1.0004
12692SOL     OW38653   7.815   4.797   7.222  0.4695 -0.6000  0.1686
12692SOL    HW138654   7.757   4.724   7.240 -0.3960  0.2511  0.9387
12692SOL    HW238655   7.805   4.814   7.128 -0.4885 -0.5080  0.2791
12693SOL     OW38656   0.272   9.757   8.729 -0.3629 -0.3742 -0.3755
12693SOL    HW138657   0.319   9.675   8.714 -3.1580 -1.8251 -1.9137
12693SOL    HW238658   0.272   9.801   8.643  0.4981  0.9777  0.2679
12694SOL     OW38659   0.794   2.899   8.444 -0.3576  0.2211  0.4210
12694SOL    HW138660   0.819   2.933   8.530 -1.3329  0.3841  0.6553
12694SOL    HW238661   0.716   2.950   8.420 -0.4829 -0.2800 -0.2582
12695SOL     OW38662   5.749   3.008   6.084 -0.6474  0.5207 -0.0193
12695SOL    HW138663   5.769   3.095   6.049  1.5903  1.0739  2.3066
12695SOL    HW238664   5.686   3.024   6.154  0.4763  0.4617  1.0439
12696SOL     OW38665   1.387   3.718   7.607  0.6885 -0.1910 -0.2599
12696SOL    HW138666   1.442   3.763   7.543 -0.6585  1.5170 -0.2773
12696SOL    HW238667   1.372   3.783   7.676 -0.0783 -1.1055  0.4596
12697SOL     OW38668  -0.023   6.227   1.041 -0.2891 -0.4799  0.0213
12697SOL    HW138669   0.008   6.180   1.118 -0.5270  1.2024  1.1897
12697SOL    HW238670   0.045   6.291   1.022 -1.7238  1.4594  0.9990
12698SOL     OW38671   5.992   3.153   9.882 -0.0541 -0.2198  0.2067
12698SOL    HW138672   5.965   3.229   9.830  0.8488  0.3050  0.4599
12698SOL    HW238673   5.940   3.081   9.849  0.2531  0.1707 -1.1985
12699SOL     OW38674   0.885   0.176   1.987 -0.3299  0.3022 -0.6352
12699SOL    HW138675   0.980   0.187   1.977 -0.4109  2.9351  0.4878
12699SOL    HW238676   0.854   0.161   1.897  1.1004 -0.2642 -1.0711
12700SOL     OW38677   0.932   8.165   0.257  0.1700  0.0650 -0.0507
12700SOL    HW138678   0.988   8.242   0.246 -0.5115  0.5859  0.0857
12700SOL    HW238679   0.890   8.153   0.173  1.2845 -0.9928 -0.5038
12701SOL     OW38680   7.700   6.513   8.200 -0.0202  0.1987 -0.3297
12701SOL    HW138681   7.712   6.605   8.178  3.4748  0.2534  1.1967
12701SOL    HW238682   7.630   6.483   8.142 -0.6520  3.5474 -1.4908
12702SOL     OW38683   4.290   2.494   3.099 -0.5570  0.0745 -0.0906
12702SOL    HW138684   4.353   2.566   3.099 -0.5116  0.1049  2.3404
12702SOL    HW238685   4.218   2.524   3.043  1.1172  0.3836 -2.2322
12703SOL     OW38686   8.368   7.868   8.307  0.4080 -0.0479 -0.5173
12703SOL    HW138687   8.461   7.853   8.291  0.6511 -1.7520  1.9062
12703SOL    HW238688   8.337   7.786   8.345 -2.1932  0.3821 -1.4887
12704SOL     OW38689   6.314   6.424   3.087 -0.0968  0.4296 -0.4472
12704SOL    HW138690   6.347   6.407   3.176  2.5828  1.4259 -1.1556
12704SOL    HW238691   6.277   6.340   3.059 -1.1117  0.1263  1.6081
12705SOL     OW38692   4.499   3.185   1.626 -0.5303 -0.2282  0.4647
12705SOL    HW138693   4.482   3.279   1.623 -0.2497 -0.0649  2.6431
12705SOL    HW238694   4.417   3.145   1.594 -0.0755  0.7010 -2.1216
12706SOL     OW38695   6.121   7.063   8.124  0.3845 -0.2262 -0.0707
12706SOL    HW138696   6.144   7.097   8.210  0.4743  0.6317 -0.4211
12706SOL    HW238697   6.066   7.131   8.086 -0.3173 -0.9534 -0.3838
12707SOL     OW38698   6.391   9.513   3.550 -0.0890 -0.0846  0.0470
12707SOL    HW138699   6.387   9.473   3.637  0.4041 -1.5166 -0.5679
12707SOL    HW238700   6.300   9.531   3.528 -0.3651 -1.3219  0.1422
12708SOL     OW38701   8.245   6.295   4.635 -0.4745  0.2699 -0.2322
12708SOL    HW138702   8.156   6.327   4.647 -0.2225  0.7076  0.4699
12708SOL    HW238703   8.283   6.354   4.570 -0.8181 -0.1733 -0.8559
12709SOL     OW38704   9.905   6.196   5.193 -1.1273 -0.3359  0.3081
12709SOL    HW138705   9.983   6.169   5.145 -1.9145 -0.3801 -1.0093
12709SOL    HW238706   9.839   6.131   5.168 -2.1474  0.8892 -0.2838
12710SOL     OW38707   1.627   5.112   9.254  0.7406 -0.9530 -0.0802
12710SOL    HW138708   1.551   5.131   9.310  0.0331 -1.1357 -0.9716
12710SOL    HW238709   1.699   5.158   9.297 -0.1573  0.4488 -0.0015
12711SOL     OW38710   1.770   3.639   3.008  0.0069  0.3763 -0.0672
12711SOL    HW138711   1.744   3.583   2.934 -0.4837  1.6348 -0.8828
12711SOL    HW238712   1.849   3.598   3.043 -0.8747 -1.3618 -0.0115
12712SOL     OW38713   8.789   9.378   2.004 -0.1208  0.4035 -0.6892
12712SOL    HW138714   8.772   9.472   2.004  1.2716  0.7212 -2.6124
12712SOL    HW238715   8.739   9.344   2.078 -0.9413  2.5945 -0.1737
12713SOL     OW38716   9.313   6.708   7.599 -0.0676 -0.1187 -0.3907
12713SOL    HW138717   9.374   6.728   7.527  0.4332 -0.6767 -0.1325
12713SOL    HW238718   9.226   6.712   7.559  0.1405  0.6580 -0.7755
12714SOL     OW38719   5.490   7.004   9.815 -0.4876  0.0163 -0.2922
12714SOL    HW138720   5.521   6.965   9.896 -2.2328 -0.4383  0.2078
12714SOL    HW238721   5.465   6.929   9.761  0.8151  0.3058 -1.3471
12715SOL     OW38722   5.375   0.878   9.679  0.2307 -0.0587 -0.0805
12715SOL    HW138723   5.285   0.895   9.708  0.8387 -0.4749  2.2668
12715SOL    HW238724   5.379   0.783   9.667 -0.0644  0.1207 -1.9059
12716SOL     OW38725   1.712   0.181   7.079 -0.2076 -0.0861 -0.1681
12716SOL    HW138726   1.709   0.104   7.135 -0.8022 -0.5365 -0.8065
12716SOL    HW238727   1.800   0.216   7.091  0.0075 -0.7587  0.2585
12717SOL     OW38728   4.311   3.975   3.670  0.3081 -0.8457  0.0743
12717SOL    HW138729   4.289   4.067   3.659 -2.2852 -1.2249  1.4469
12717SOL    HW238730   4.395   3.976   3.717  1.0643  0.7494 -1.2175
12718SOL     OW38731   9.945   8.150   8.140  0.4251 -0.1321 -0.0501
12718SOL    HW138732   9.942   8.227   8.084 -0.2361 -1.2176 -1.5521
12718SOL    HW238733   9.860   8.108   8.129  0.4566 -0.6395  1.3958
12719SOL     OW38734   2.213   8.882   6.212  0.3993 -0.4037  0.2507
12719SOL    HW138735   2.197   8.811   6.150  0.4158  0.8673 -1.2984
12719SOL    HW238736   2.210   8.961   6.158  2.8139  0.6209  1.4365
12720SOL     OW38737   6.394   2.445   9.921 -0.2110  0.4311 -0.8602
12720SOL    HW138738   6.410   2.412  10.009  0.7736  0.2598 -1.0932
12720SOL    HW238739   6.447   2.389   9.864 -1.3406  0.1221 -1.6361
12721SOL     OW38740   4.747   4.724   6.324  0.6663 -0.0531 -0.3383
12721SOL    HW138741   4.732   4.764   6.238 -1.1754 -0.6982 -0.3547
12721SOL    HW238742   4.836   4.689   6.319  0.4985 -0.3144 -2.0912
12722SOL     OW38743   1.606   8.300   9.738  0.0504 -0.0807  0.2502
12722SOL    HW138744   1.621   8.245   9.661  1.1309  1.6773 -0.8655
12722SOL    HW238745   1.516   8.331   9.727  0.1279 -0.0063 -0.1933
12723SOL     OW38746   7.396   4.654   0.579 -0.7471  0.3484  0.5190
12723SOL    HW138747   7.389   4.643   0.484  0.9454 -0.2570  0.4437
12723SOL    HW238748   7.403   4.565   0.613  0.2517  0.6219  1.0545
12724SOL     OW38749   5.754   6.848   4.638  0.1615  0.0830 -0.3158
12724SOL    HW138750   5.765   6.876   4.729  1.7476 -2.5549  0.4244
12724SOL    HW238751   5.659   6.845   4.626 -0.1115 -0.1976  1.5169
12725SOL     OW38752   6.954   5.567   3.974 -0.7269  0.8355 -0.2587
12725SOL    HW138753   6.888   5.521   3.922  0.1189  0.0677 -0.6852
12725SOL    HW238754   6.931   5.660   3.965 -2.7848  0.5148  1.0556
12726SOL     OW38755   3.586   6.983   1.660 -0.3488  0.1170  0.1791
12726SOL    HW138756   3.585   6.909   1.720 -0.5128  0.0917  0.1461
12726SOL    HW238757   3.679   7.003   1.649 -0.1461 -1.5188 -1.5724
12727SOL     OW38758   6.014   0.620   2.213  0.2657 -0.6315  0.3630
12727SOL    HW138759   6.045   0.710   2.227 -3.1741  0.5159  1.8833
12727SOL    HW238760   6.031   0.603   2.120  2.6897  0.7969  0.4489
12728SOL     OW38761   6.943   6.185   5.816  0.1579  0.2404  0.0780
12728SOL    HW138762   6.958   6.093   5.793 -0.5953  0.2164 -0.3482
12728SOL    HW238763   6.862   6.183   5.867  0.8422  0.5160  1.2125
12729SOL     OW38764   7.384   9.552   4.823  0.3849  0.3766  0.4196
12729SOL    HW138765   7.395   9.457   4.818  0.6752  0.4451 -0.2850
12729SOL    HW238766   7.364   9.568   4.915 -0.2553 -0.4244  0.4310
12730SOL     OW38767   3.564   4.500   0.244 -0.1330  0.2215 -0.1715
12730SOL    HW138768   3.533   4.441   0.176  1.7693 -1.3109  0.2112
12730SOL    HW238769   3.536   4.587   0.215 -2.4859 -0.7482 -1.0515
12731SOL     OW38770   8.708   2.595   4.571  0.2798 -0.0645 -0.0143
12731SOL    HW138771   8.667   2.682   4.572 -1.2279 -0.7434  0.8761
12731SOL    HW238772   8.757   2.591   4.653  0.4079 -0.0230 -0.0888
12732SOL     OW38773   2.083   3.227   6.872 -0.1724  0.9850  0.2517
12732SOL    HW138774   2.014   3.187   6.925  0.3644  0.0597  0.2775
12732SOL    HW238775   2.088   3.173   6.794 -0.6615  2.0934 -0.5732
12733SOL     OW38776   7.062   9.417   2.019 -0.2169  0.5852 -0.4573
12733SOL    HW138777   7.040   9.351   1.952 -0.5084 -0.5628  0.7301
12733SOL    HW238778   7.092   9.365   2.094  1.2638  1.8951 -0.1006
12734SOL     OW38779   8.969   7.801   7.249 -0.1677 -0.2013  0.4318
12734SOL    HW138780   8.923   7.781   7.331  1.8338  0.0996  1.7030
12734SOL    HW238781   8.918   7.872   7.210 -2.5516 -1.9542  0.1150
12735SOL     OW38782   9.766   0.532   1.647  0.4121  0.5226 -0.3910
12735SOL    HW138783   9.837   0.590   1.623  0.0453  2.0757  1.9282
12735SOL    HW238784   9.726   0.573   1.723  0.0356 -2.7055  1.3467
12736SOL     OW38785   7.555   2.943   6.084  0.0952 -0.2727  0.2472
12736SOL    HW138786   7.604   2.870   6.045 -0.3752 -1.7939  2.3349
12736SOL    HW238787   7.593   3.021   6.045  0.9834 -1.5989 -1.6848
12737SOL     OW38788   8.054   0.180   6.752  0.1326 -0.4499  0.3885
12737SOL    HW138789   7.972   0.191   6.704  0.1189  0.9705  0.6837
12737SOL    HW238790   8.034   0.211   6.840  0.6913 -1.1510  0.7709
12738SOL     OW38791   7.326   8.932   2.510  0.1857  0.2360  0.8841
12738SOL    HW138792   7.392   9.000   2.527  1.5001 -1.1747  1.6749
12738SOL    HW238793   7.347   8.862   2.573 -2.1053 -0.2583  1.1789
12739SOL     OW38794   0.381   7.710   4.546  0.5506  0.1587  0.2477
12739SOL    HW138795   0.312   7.771   4.518  0.4843 -0.5763 -1.2932
12739SOL    HW238796   0.456   7.766   4.566  0.0767  0.8381  0.1478
12740SOL     OW38797   7.814   6.483   9.667 -0.4563 -0.1635 -0.1269
12740SOL    HW138798   7.748   6.441   9.612 -0.4527 -0.8022  0.3512
12740SOL    HW238799   7.764   6.530   9.733 -0.4886  1.3376 -1.1712
12741SOL     OW38800   6.361   5.715   0.845 -0.3059  0.0865  0.5501
12741SOL    HW138801   6.406   5.679   0.922 -0.7417 -0.7412  0.4267
12741SOL    HW238802   6.423   5.702   0.774 -0.7002 -1.0168  0.3884
12742SOL     OW38803   4.047   5.445   4.346 -0.3837  0.6991 -0.6365
12742SOL    HW138804   4.084   5.406   4.266  1.7423 -2.4598  1.6477
12742SOL    HW238805   4.120   5.490   4.387 -0.3072 -1.0600  1.3313
12743SOL     OW38806   8.458   5.905   1.113 -0.1634 -0.2952  0.1775
12743SOL    HW138807   8.447   5.995   1.141 -0.1861 -0.5113  0.8874
12743SOL    HW238808   8.419   5.902   1.025  1.6404  0.8524 -0.7299
12744SOL     OW38809   0.971   6.417   4.016  0.1452  0.1940  0.0773
12744SOL    HW138810   1.004   6.444   4.101  1.2702 -0.0198 -0.2697
12744SOL    HW238811   1.037   6.449   3.954 -1.8696  2.6267 -1.0110
12745SOL     OW38812   6.191   5.144   2.572  0.4242 -0.2535 -0.1975
12745SOL    HW138813   6.124   5.181   2.630  1.0773 -0.4426  0.6902
12745SOL    HW238814   6.164   5.053   2.559  0.8206 -0.4998  0.6468
12746SOL     OW38815   3.447   4.197   1.492 -0.1426  0.1225  0.5159
12746SOL    HW138816   3.457   4.241   1.407  0.4147  0.0645  0.5484
12746SOL    HW238817   3.353   4.201   1.510 -0.3273 -0.2788 -0.3256
12747SOL     OW38818   2.000   4.643   6.697 -0.2449  0.0878  0.5867
12747SOL    HW138819   2.058   4.608   6.628 -0.3294 -2.0558  1.5353
12747SOL    HW238820   2.051   4.714   6.737 -0.8702  2.6943 -2.7424
12748SOL     OW38821   0.985   7.459   6.551 -0.0347  0.5867  0.7807
12748SOL    HW138822   1.014   7.490   6.465  0.8875  0.7120  1.1322
12748SOL    HW238823   0.895   7.428   6.536  0.5845 -0.6679 -0.5289
12749SOL     OW38824   6.441   4.209   5.426  0.5299 -0.2915  0.1088
12749SOL    HW138825   6.437   4.304   5.418  1.4170 -0.1981  0.6803
12749SOL    HW238826   6.349   4.182   5.435 -0.0424  0.2103 -2.9730
12750SOL     OW38827   4.207   2.182   9.586 -0.5672  0.3240  0.5526
12750SOL    HW138828   4.187   2.264   9.540  2.2271 -0.3468 -2.2380
12750SOL    HW238829   4.144   2.119   9.552 -1.2314  0.7875  0.9172
12751SOL     OW38830   7.067   7.412   2.805  0.2008  0.2279  0.2595
12751SOL    HW138831   6.984   7.414   2.758  0.5010 -0.1549 -0.2962
12751SOL    HW238832   7.062   7.487   2.865 -0.9167 -0.3374  0.9023
12752SOL     OW38833   4.862   7.320   0.683  0.0897 -0.0475  0.8269
12752SOL    HW138834   4.937   7.335   0.740  1.0151 -0.2704 -0.2749
12752SOL    HW238835   4.901   7.303   0.597 -1.0075 -3.4021  0.8328
12753SOL     OW38836   0.265   9.722   9.813 -0.1566  0.0318 -0.3873
12753SOL    HW138837   0.180   9.764   9.821 -0.9023 -1.3591 -0.6249
12753SOL    HW238838   0.245   9.636   9.776  1.4267 -0.0486 -1.1370
12754SOL     OW38839   7.453   2.589   4.274  0.7542 -0.3252 -0.0263
12754SOL    HW138840   7.494   2.636   4.347 -2.9934  0.5201  1.7571
12754SOL    HW238841   7.450   2.498   4.302  0.4728 -0.2092  0.3306
12755SOL     OW38842   2.949   8.254   6.660 -0.5687 -0.2527  0.0428
12755SOL    HW138843   2.996   8.205   6.728 -0.7644 -1.1888 -0.4904
12755SOL    HW238844   2.921   8.188   6.597 -1.4999  0.4569 -0.3020
12756SOL     OW38845   3.702   6.232   4.312 -0.2066  0.1425 -0.6442
12756SOL    HW138846   3.780   6.283   4.333 -0.6554  1.7677 -2.6388
12756SOL    HW238847   3.734   6.161   4.257  0.1932 -0.8579  0.8147
12757SOL     OW38848   9.685   5.386   8.006 -0.8671 -0.0823 -0.5491
12757SOL    HW138849   9.740   5.450   8.050 -0.7233 -0.4341 -0.2038
12757SOL    HW238850   9.742   5.309   7.997 -2.0434 -1.4268  2.2361
12758SOL     OW38851   7.884   8.865   1.401  0.1053  0.1004  0.4956
12758SOL    HW138852   7.914   8.793   1.456  1.3152 -0.0005 -0.2699
12758SOL    HW238853   7.929   8.853   1.318 -0.5903  1.0720 -0.0512
12759SOL     OW38854   2.357   8.423   9.183 -0.6331  0.1865 -0.1913
12759SOL    HW138855   2.381   8.374   9.105 -2.9840  0.1594 -0.9532
12759SOL    HW238856   2.348   8.357   9.252  2.3270  0.2969  0.4428
12760SOL     OW38857   2.459   7.564   9.765  0.3453  0.2888  0.7022
12760SOL    HW138858   2.460   7.469   9.753 -1.1337  0.4157 -0.8450
12760SOL    HW238859   2.530   7.596   9.709 -2.2924  0.3625 -2.9600
12761SOL     OW38860   5.321   0.573   8.480  0.5463 -0.1179 -0.1813
12761SOL    HW138861   5.250   0.523   8.440 -0.5867  1.0334  0.3091
12761SOL    HW238862   5.376   0.508   8.523 -0.1018 -1.0539 -0.7411
12762SOL     OW38863   1.694   4.847   5.317 -0.1806  0.0984  0.4189
12762SOL    HW138864   1.633   4.913   5.351  0.4020  0.8708  0.0058
12762SOL    HW238865   1.659   4.826   5.230  0.6090  1.2091 -0.1935
12763SOL     OW38866   4.754   3.881   5.111  0.2817  0.1961 -0.3676
12763SOL    HW138867   4.812   3.957   5.106 -0.0114  0.3776 -1.0860
12763SOL    HW238868   4.813   3.807   5.124  0.6000  0.4948 -0.0998
12764SOL     OW38869   1.060   5.486   9.544 -0.2116  0.2036  0.4058
12764SOL    HW138870   1.111   5.534   9.479 -1.9884 -0.2536 -1.4263
12764SOL    HW238871   1.126   5.447   9.601  1.3654  2.4979  0.3159
12765SOL     OW38872   1.046   9.698   8.746  0.1736 -0.1025  0.2179
12765SOL    HW138873   0.989   9.629   8.780 -0.3906  0.7472  1.0579
12765SOL    HW238874   1.002   9.726   8.665 -0.8700  0.8316  1.0724
12766SOL     OW38875   3.032   1.297   5.496  0.6832 -0.3657 -0.2452
12766SOL    HW138876   3.051   1.279   5.404  3.0399 -3.9333  0.7557
12766SOL    HW238877   3.096   1.362   5.522  1.5204 -1.0254 -0.6207
12767SOL     OW38878   2.348   8.451   8.700 -0.1359  0.5995 -0.1572
12767SOL    HW138879   2.359   8.391   8.773  0.9220  1.5597  0.5114
12767SOL    HW238880   2.401   8.413   8.629  0.0956  0.4548  0.0893
12768SOL     OW38881   1.722   2.528   9.334 -0.1930  0.5538 -0.0242
12768SOL    HW138882   1.713   2.434   9.347 -0.4771  0.7033  0.9087
12768SOL    HW238883   1.634   2.557   9.308  0.4633  0.1768 -3.0752
12769SOL     OW38884   6.131   2.123   3.601  0.0774 -0.4876 -0.3657
12769SOL    HW138885   6.145   2.029   3.592  0.9040 -0.4341  0.2231
12769SOL    HW238886   6.094   2.151   3.516 -1.2679 -1.5142 -0.1552
12770SOL     OW38887   8.863   0.121   4.859 -0.1560 -0.1299 -0.1448
12770SOL    HW138888   8.804   0.066   4.806  0.4522  0.1134 -1.1135
12770SOL    HW238889   8.948   0.078   4.851 -0.0603 -0.0869  0.6555
12771SOL     OW38890   9.546   9.758   6.056  0.1618 -0.5101  0.2139
12771SOL    HW138891   9.641   9.755   6.050  0.1405  0.6771 -1.0740
12771SOL    HW238892   9.518   9.668   6.038  1.0160 -0.7885  0.2275
12772SOL     OW38893   9.650   7.292   5.941 -0.4279  0.1257  0.1623
12772SOL    HW138894   9.657   7.332   5.855 -0.7939  1.4334  0.7234
12772SOL    HW238895   9.621   7.202   5.923  1.5391 -0.3060 -1.1831
12773SOL     OW38896   9.928   5.472   6.697 -0.4639 -0.2298 -0.3629
12773SOL    HW138897   9.989   5.414   6.651 -1.0411  0.9553 -2.7964
12773SOL    HW238898   9.985   5.534   6.743  0.1303 -1.3819  0.5304
12774SOL     OW38899   7.375   1.315   4.003  0.0235  0.3084 -0.0612
12774SOL    HW138900   7.425   1.384   4.046 -1.4281  0.5389  1.3591
12774SOL    HW238901   7.327   1.359   3.933 -0.0974  0.5633  0.1793
12775SOL     OW38902   3.703   2.102   4.472  0.1790  0.0938  0.2920
12775SOL    HW138903   3.710   2.091   4.567  0.0214 -1.3988  0.1577
12775SOL    HW238904   3.751   2.182   4.453  1.4049 -0.3380  1.4735
12776SOL     OW38905   5.739   7.721   4.960 -0.1551 -0.0430 -0.7096
12776SOL    HW138906   5.790   7.704   5.039  0.6130  2.4143 -0.5976
12776SOL    HW238907   5.714   7.634   4.929  2.6081 -1.2738  0.2108
12777SOL     OW38908   2.877   6.605   5.914  0.1093  0.1792 -0.2146
12777SOL    HW138909   2.910   6.522   5.949  0.1649  0.5632  0.6491
12777SOL    HW238910   2.822   6.579   5.840  1.9470 -0.5117 -1.4214
12778SOL     OW38911   1.570   3.211   1.977 -0.6461  0.3320  0.6501
12778SOL    HW138912   1.477   3.234   1.975 -0.6853  0.3357  1.9597
12778SOL    HW238913   1.583   3.160   1.896 -1.4472  1.5272 -0.2777
12779SOL     OW38914   1.882   5.510   8.131  0.3712  0.2294 -0.1254
12779SOL    HW138915   1.834   5.593   8.132  1.6750  1.0169 -0.5895
12779SOL    HW238916   1.814   5.443   8.129 -0.7202  1.2525  1.2331
12780SOL     OW38917   4.385   2.154   1.170  0.6077 -0.8733  0.3266
12780SOL    HW138918   4.345   2.102   1.239  0.1223 -0.9552 -0.0127
12780SOL    HW238919   4.423   2.090   1.110  0.6167 -0.8191  0.2736
12781SOL     OW38920   9.480   5.228   4.354  0.4733  0.2398  0.0393
12781SOL    HW138921   9.563   5.237   4.401  0.4135  1.0896 -0.0031
12781SOL    HW238922   9.415   5.214   4.422  0.4858  0.7821  0.1697
12782SOL     OW38923   4.917   0.685   1.987  0.0786 -0.2468  0.2979
12782SOL    HW138924   4.833   0.662   2.025  0.2170 -2.0550 -0.3471
12782SOL    HW238925   4.903   0.770   1.945 -1.0545  0.0681  1.2772
12783SOL     OW38926   3.612   2.652   1.098  0.6638  0.0379 -0.3122
12783SOL    HW138927   3.707   2.639   1.094  0.5988 -0.8363  0.7081
12783SOL    HW238928   3.575   2.564   1.090 -0.0531  0.3357 -0.3524
12784SOL     OW38929   6.212   6.241   5.608  0.2267 -0.0053  0.2957
12784SOL    HW138930   6.142   6.176   5.605  1.1072 -0.9773  0.2851
12784SOL    HW238931   6.196   6.297   5.533  0.2880 -1.1031 -0.5610
12785SOL     OW38932   0.642   6.968   3.854 -0.0173 -0.5471 -0.0068
12785SOL    HW138933   0.668   6.931   3.770  1.1804 -2.2301  1.0300
12785SOL    HW238934   0.723   7.006   3.889 -0.4188 -0.1940  0.5667
12786SOL     OW38935   7.788   7.535   9.522  0.7801 -0.2401 -0.2133
12786SOL    HW138936   7.810   7.581   9.602  0.7310  0.5175 -0.6280
12786SOL    HW238937   7.703   7.494   9.540  1.8459 -2.0612  0.9256
12787SOL     OW38938   0.491   0.351   8.734 -0.4635 -0.2281 -0.6364
12787SOL    HW138939   0.493   0.307   8.819  0.2219 -0.6581 -0.8616
12787SOL    HW238940   0.518   0.441   8.753 -0.1696 -0.3611 -0.4113
12788SOL     OW38941   2.306   1.610   8.239  0.0010 -0.2615 -0.1156
12788SOL    HW138942   2.318   1.624   8.145 -1.5041  0.4898 -0.2306
12788SOL    HW238943   2.376   1.550   8.264  1.2218  0.5599 -1.4499
12789SOL     OW38944   5.977   5.546   7.691  0.6986 -0.1877  0.6834
12789SOL    HW138945   5.929   5.507   7.763 -0.8845 -2.5094 -1.4616
12789SOL    HW238946   5.916   5.607   7.651 -0.0808 -2.0180 -1.1204
12790SOL     OW38947   6.718   0.262   0.644 -0.1684  0.1796 -0.3759
12790SOL    HW138948   6.725   0.344   0.694 -1.1306  0.2671 -0.3780
12790SOL    HW238949   6.771   0.199   0.694  0.8627  0.8749 -0.5554
12791SOL     OW38950   8.717   9.009   1.272  0.2684 -0.3470  0.4781
12791SOL    HW138951   8.662   9.065   1.327  0.3301  0.8576 -0.6383
12791SOL    HW238952   8.753   8.944   1.332  1.7951  1.9775  2.2225
12792SOL     OW38953   6.885   9.324   2.878  0.6991 -0.0065 -0.1999
12792SOL    HW138954   6.962   9.320   2.822  1.5733 -1.9289  1.0341
12792SOL    HW238955   6.894   9.250   2.937 -1.3258  0.6221  1.0166
12793SOL     OW38956   3.775   1.959   3.529 -0.3060  0.3533 -0.0778
12793SOL    HW138957   3.758   2.052   3.519 -0.2114  0.4509  0.6205
12793SOL    HW238958   3.739   1.937   3.615  0.8089  0.0100  0.3094
12794SOL     OW38959   1.681   4.754   3.856  0.2235  0.1635 -0.6945
12794SOL    HW138960   1.612   4.694   3.828  0.0343  0.2483 -0.4221
12794SOL    HW238961   1.715   4.792   3.775 -0.9847  1.1469 -0.7625
12795SOL     OW38962   8.130   7.114   0.251 -0.1683 -0.0600  0.3572
12795SOL    HW138963   8.080   7.195   0.265 -0.8449  0.0793 -2.2392
12795SOL    HW238964   8.131   7.071   0.337 -1.4806  1.7610  1.3634
12796SOL     OW38965   5.945   0.071   5.147 -0.0198  0.1459  0.3085
12796SOL    HW138966   5.873   0.102   5.091  0.3033  0.6089  0.1431
12796SOL    HW238967   5.959  -0.019   5.119 -1.1160 -0.2388  0.9430
12797SOL     OW38968   1.599   6.136   4.695 -0.1250  0.1342  0.0255
12797SOL    HW138969   1.561   6.064   4.745  2.0562  0.0758  1.7693
12797SOL    HW238970   1.622   6.202   4.761  2.7306  0.1324 -0.8480
12798SOL     OW38971   7.877   5.311   3.669 -0.0998  0.2616 -0.1941
12798SOL    HW138972   7.955   5.356   3.702  1.2171 -1.1742 -1.2318
12798SOL    HW238973   7.898   5.218   3.677 -1.1226 -0.1471 -1.8526
12799SOL     OW38974   4.429   7.732   9.652  0.0994 -0.0912 -0.2105
12799SOL    HW138975   4.517   7.764   9.673  1.0590 -2.8078  0.2177
12799SOL    HW238976   4.371   7.804   9.678  2.0895  1.3084  0.6081
12800SOL     OW38977   0.189   0.091   4.073 -0.0396 -0.3722 -0.3475
12800SOL    HW138978   0.240   0.079   3.993 -0.8249 -1.4938 -0.6999
12800SOL    HW238979   0.107   0.132   4.044  1.0069  2.4995  0.3524
12801SOL     OW38980   3.291   6.488   1.023 -0.2545  0.2096  0.3771
12801SOL    HW138981   3.222   6.487   0.957 -0.8892  1.2906  0.9870
12801SOL    HW238982   3.267   6.418   1.083 -0.5744  0.2851  0.3425
12802SOL     OW38983   5.001   5.255   2.403 -0.0947 -0.0142  0.0198
12802SOL    HW138984   5.014   5.179   2.346 -0.6332 -0.9690  1.1231
12802SOL    HW238985   5.088   5.275   2.437  0.9156  2.6687 -3.5787
12803SOL     OW38986   8.855   7.894   8.800 -0.4050 -0.7677 -0.1509
12803SOL    HW138987   8.908   7.877   8.722  1.0795  1.0847  0.3556
12803SOL    HW238988   8.827   7.985   8.790 -2.2605 -1.2549  0.3455
12804SOL     OW38989   4.620   3.043   6.508 -0.3386 -0.2699  0.1755
12804SOL    HW138990   4.669   3.122   6.486 -0.6102 -0.5425 -1.4927
12804SOL    HW238991   4.548   3.074   6.564 -0.9490  0.8044 -1.1521
12805SOL     OW38992   6.155   8.113   1.817  0.2228  0.0048 -0.5783
12805SOL    HW138993   6.235   8.136   1.770 -0.0026 -1.5407 -1.8198
12805SOL    HW238994   6.085   8.130   1.754 -0.3591  0.5535  0.2005
12806SOL     OW38995   1.159   5.467   7.619  0.7922  0.0171  0.0169
12806SOL    HW138996   1.134   5.550   7.578 -2.2705  0.4176  2.3088
12806SOL    HW238997   1.122   5.400   7.562 -1.2768  0.4733  0.7577
12807SOL     OW38998   4.231   0.042   0.526 -0.2062  0.8044 -0.3665
12807SOL    HW138999   4.172  -0.032   0.508 -1.1851  1.9143 -2.0215
12807SOL    HW239000   4.318   0.008   0.504 -0.6117  0.0626 -0.8901
12808SOL     OW39001   0.624   9.234   2.142 -0.1993 -0.4756 -0.2201
12808SOL    HW139002   0.555   9.291   2.175  1.8940  1.2280  1.5986
12808SOL    HW239003   0.600   9.147   2.172 -0.7632  0.3303  1.8884
12809SOL     OW39004   4.381  -0.013   2.538  0.4258 -0.0724 -0.1457
12809SOL    HW139005   4.397   0.079   2.517 -0.2452  0.1711  0.3828
12809SOL    HW239006   4.295  -0.014   2.579  0.6879 -0.8489  0.4243
12810SOL     OW39007   1.689   1.637   8.475 -0.1149  0.3875 -0.1384
12810SOL    HW139008   1.704   1.721   8.519  0.9242 -0.2972  0.8605
12810SOL    HW239009   1.698   1.658   8.382  0.0357  1.4026  0.0903
12811SOL     OW39010   1.414   2.338   9.442  0.0137 -0.2341  0.4190
12811SOL    HW139011   1.509   2.327   9.454 -0.1372 -0.9583  1.0754
12811SOL    HW239012   1.389   2.400   9.510  0.1071  0.4519 -0.1635
12812SOL     OW39013   5.902   0.725   8.395 -0.5659 -0.3559 -0.1052
12812SOL    HW139014   5.927   0.792   8.332 -1.2101 -0.9000 -0.9718
12812SOL    HW239015   5.806   0.723   8.392 -0.6336 -0.0610  1.2578
12813SOL     OW39016   0.929   1.661   7.959  0.3840  0.2803  0.5928
12813SOL    HW139017   0.955   1.599   7.891 -1.2143  1.6815 -1.4220
12813SOL    HW239018   0.944   1.747   7.920 -0.2095  1.1498  2.1861
12814SOL     OW39019   5.893   9.730   0.875 -0.1449  0.3225 -0.4017
12814SOL    HW139020   5.911   9.774   0.791  0.6515  0.4631 -0.1608
12814SOL    HW239021   5.891   9.637   0.853 -0.6453  0.3965 -0.6974
12815SOL     OW39022   5.163   9.571   3.685 -0.4504 -0.1049 -0.6172
12815SOL    HW139023   5.220   9.542   3.756 -2.8197  0.8932  1.8604
12815SOL    HW239024   5.219   9.625   3.629  1.3751 -0.4999  0.7435
12816SOL     OW39025   3.581   3.720   6.122  0.4019 -0.2295  0.2431
12816SOL    HW139026   3.533   3.751   6.045  1.2160  1.2896  0.3084
12816SOL    HW239027   3.607   3.630   6.100 -0.2395 -0.1665 -0.8341
12817SOL     OW39028   1.041   3.450   7.563  0.3831 -0.5563 -0.0413
12817SOL    HW139029   0.993   3.375   7.598  1.0447 -0.5115  1.0012
12817SOL    HW239030   1.026   3.446   7.469 -0.7267 -1.1910  0.1504
12818SOL     OW39031   0.628   9.359   7.374  0.1090  0.3560 -0.0158
12818SOL    HW139032   0.668   9.441   7.347  0.4111  0.8037  1.6715
12818SOL    HW239033   0.554   9.385   7.430 -1.6919 -0.4870 -1.8918
12819SOL     OW39034   5.237   5.910   0.503 -0.0864  0.0136 -0.1539
12819SOL    HW139035   5.268   5.997   0.475  0.5580 -0.9159 -2.5418
12819SOL    HW239036   5.144   5.910   0.483 -0.6580  0.9740  2.1944
12820SOL     OW39037   4.148   3.842   0.688 -0.2404  0.0326 -0.1267
12820SOL    HW139038   4.123   3.912   0.628 -0.0699  0.4490  0.2807
12820SOL    HW239039   4.243   3.834   0.678 -0.1625  0.3386  0.3298
12821SOL     OW39040   9.423   6.137   9.810 -0.6868 -0.7479  0.3046
12821SOL    HW139041   9.393   6.048   9.827  2.9040 -2.0366  0.8373
12821SOL    HW239042   9.435   6.141   9.715 -0.1184 -1.1380  0.3530
12822SOL     OW39043   1.795   0.605   6.813  0.0308  0.1149 -0.3824
12822SOL    HW139044   1.705   0.591   6.785 -0.2584 -0.7846  0.9574
12822SOL    HW239045   1.792   0.604   6.908  1.3080  1.0841 -0.2980
12823SOL     OW39046   5.211   3.478   1.168  0.0833 -0.1738  0.1251
12823SOL    HW139047   5.285   3.517   1.215 -0.6193 -0.5734  1.6574
12823SOL    HW239048   5.200   3.533   1.090  0.7062  1.1383  0.9151
12824SOL     OW39049   1.345   1.401   2.500 -0.3847  0.1286  0.0403
12824SOL    HW139050   1.416   1.463   2.515  0.2273 -0.7515  0.9219
12824SOL    HW239051   1.269   1.456   2.480  0.5933  1.0696 -1.2592
12825SOL     OW39052   9.627   9.050   3.246  0.0142 -0.2999  0.3132
12825SOL    HW139053   9.639   9.098   3.329 -1.2043 -0.9575  0.8921
12825SOL    HW239054   9.638   8.958   3.270 -0.0867 -0.4776 -0.3089
12826SOL     OW39055   4.261   7.015   8.193 -0.6988  0.5064 -0.1368
12826SOL    HW139056   4.250   7.077   8.265  0.1560  0.5201 -0.0136
12826SOL    HW239057   4.335   7.049   8.143 -3.1104  2.2209 -2.8158
12827SOL     OW39058   1.689   3.562   2.583  0.0883  0.1024  0.1503
12827SOL    HW139059   1.658   3.472   2.593 -2.4213  0.9489  0.7316
12827SOL    HW239060   1.638   3.597   2.509  1.1878  0.9879 -0.2087
12828SOL     OW39061   4.737   9.500   7.399  0.9193 -0.1721 -0.1158
12828SOL    HW139062   4.812   9.524   7.345 -1.0051  1.1198 -2.4341
12828SOL    HW239063   4.741   9.559   7.474  2.6630 -0.7607  0.2951
12829SOL     OW39064   4.672   7.322   1.479 -0.3434 -0.2707 -0.1114
12829SOL    HW139065   4.682   7.372   1.398 -0.7147  1.3861  0.8187
12829SOL    HW239066   4.623   7.244   1.454 -2.0559  1.0785 -1.1940
12830SOL     OW39067   3.014   4.486   0.873  0.1369  0.6472  0.2947
12830SOL    HW139068   3.072   4.428   0.923  1.3320  0.6586 -1.0194
12830SOL    HW239069   3.061   4.570   0.870 -0.4672  0.9873  0.1515
12831SOL     OW39070   1.851   7.124   3.819  0.2436 -0.5092 -0.4394
12831SOL    HW139071   1.803   7.097   3.741 -2.9986  1.2575  0.7116
12831SOL    HW239072   1.933   7.160   3.786 -0.3886 -1.1045 -2.8734
12832SOL     OW39073   9.545   1.983   9.221 -0.5527 -0.5404  0.2733
12832SOL    HW139074   9.525   2.008   9.131  0.5695  2.1061  0.6526
12832SOL    HW239075   9.509   2.054   9.274 -0.4042 -1.5867  1.8562
12833SOL     OW39076   5.995   1.946   9.689 -0.3237 -0.7018  0.0311
12833SOL    HW139077   6.037   1.928   9.774 -0.7937  0.1202  0.4427
12833SOL    HW239078   6.051   1.901   9.625 -0.2901 -1.8288  0.8189
12834SOL     OW39079   2.026   1.543   3.432 -0.4755 -0.1408  0.3045
12834SOL    HW139080   1.940   1.507   3.413  0.3068 -2.3479  0.6509
12834SOL    HW239081   2.029   1.548   3.528  0.5677 -2.3894  0.4653
12835SOL     OW39082   1.372   9.364   5.396 -0.3671 -0.1666  0.4649
12835SOL    HW139083   1.303   9.302   5.373 -1.1759  0.8002  0.2357
12835SOL    HW239084   1.383   9.354   5.490 -1.5993  0.4398  0.6921
12836SOL     OW39085   0.308   0.265   8.539 -0.0125 -0.7662  0.5261
12836SOL    HW139086   0.337   0.306   8.620  0.8289  1.7198 -0.9092
12836SOL    HW239087   0.260   0.334   8.493 -2.4090 -2.7552 -0.1777
12837SOL     OW39088   1.775   9.285   8.575  0.1992 -0.3118  0.4370
12837SOL    HW139089   1.728   9.341   8.636 -2.2727  0.0668 -1.6351
12837SOL    HW239090   1.713   9.216   8.551  1.2940 -0.8475 -1.0722
12838SOL     OW39091   3.810   2.716   9.311  0.1135 -0.4477  0.5135
12838SOL    HW139092   3.899   2.715   9.276  0.5667 -1.4374  1.6162
12838SOL    HW239093   3.814   2.778   9.384 -0.4813  0.5918 -0.3155
12839SOL     OW39094   3.089   2.316   4.752  0.4658 -0.1294 -0.2605
12839SOL    HW139095   2.995   2.305   4.766  0.7097 -1.9366  0.2988
12839SOL    HW239096   3.115   2.240   4.700  1.5990  0.4130 -0.5335
12840SOL     OW39097   1.308   4.254   4.170 -0.0420  0.7388 -0.5011
12840SOL    HW139098   1.382   4.209   4.129 -1.0756 -1.5882  0.0202
12840SOL    HW239099   1.245   4.266   4.099  0.5116  2.0611 -0.7899
12841SOL     OW39100   2.905   2.227   9.469 -0.0085  0.2564 -0.2980
12841SOL    HW139101   2.941   2.147   9.509  0.1534 -0.1453 -1.2224
12841SOL    HW239102   2.845   2.261   9.535  1.0368  0.1902  0.7319
12842SOL     OW39103   3.475   7.494   3.631 -0.1985 -0.4789  0.8547
12842SOL    HW139104   3.549   7.452   3.587  1.2314  0.6569  2.0825
12842SOL    HW239105   3.478   7.585   3.601 -0.3369 -0.1352  1.8503
12843SOL     OW39106   7.171   5.938   0.766 -0.2018 -0.1747 -0.1273
12843SOL    HW139107   7.094   5.960   0.713 -0.1579 -0.4456 -0.3049
12843SOL    HW239108   7.155   5.981   0.850 -0.8956 -0.8179  0.0840
12844SOL     OW39109   1.173   5.280   5.845  0.2514  0.5355 -0.2415
12844SOL    HW139110   1.094   5.235   5.813 -0.3835  1.3487  0.1283
12844SOL    HW239111   1.212   5.219   5.908 -0.3437  0.3131 -0.0800
12845SOL     OW39112   9.260   5.837   8.359  0.2783 -0.0716 -0.1856
12845SOL    HW139113   9.274   5.931   8.349  0.4724 -0.1596 -0.8090
12845SOL    HW239114   9.182   5.830   8.413  2.2497  0.4446  3.0433
12846SOL     OW39115   5.447   1.207   1.038 -0.6537 -0.2188 -0.4963
12846SOL    HW139116   5.370   1.182   1.090  0.4413 -2.9007 -0.0188
12846SOL    HW239117   5.466   1.296   1.066 -1.8774 -0.5201  1.5159
12847SOL     OW39118   6.179   9.902   0.390 -0.2233 -0.2477  0.0811
12847SOL    HW139119   6.157   9.964   0.320  1.1014 -1.3753 -1.4175
12847SOL    HW239120   6.275   9.898   0.389 -0.2243 -0.9774  1.3551
12848SOL     OW39121   8.527   7.398   0.238  0.0400 -0.3593 -0.1558
12848SOL    HW139122   8.486   7.329   0.185  1.1757 -1.0214 -0.2126
12848SOL    HW239123   8.621   7.378   0.234  0.2478  0.2983  1.1075
12849SOL     OW39124   0.920   0.038   8.642  0.1945  0.3959  0.0889
12849SOL    HW139125   0.992   0.071   8.587 -0.1707  1.1607  0.0479
12849SOL    HW239126   0.915  -0.055   8.621 -1.7694  1.1017 -3.4011
12850SOL     OW39127   3.294   4.838   1.774  0.1215  0.5094 -0.2432
12850SOL    HW139128   3.199   4.849   1.782 -0.3188 -0.7609 -2.5367
12850SOL    HW239129   3.312   4.754   1.816 -0.3428 -0.7070 -2.3014
12851SOL     OW39130   5.931   0.238   9.025 -0.3563 -0.1659 -0.3038
12851SOL    HW139131   5.871   0.311   9.040  1.0010  1.2727 -1.4493
12851SOL    HW239132   5.875   0.162   9.013 -1.8549  0.8134  0.2278
12852SOL     OW39133   8.470   8.955   3.548  0.1459 -0.2158  0.0600
12852SOL    HW139134   8.402   9.006   3.503  0.1051 -1.5915 -1.5553
12852SOL    HW239135   8.540   9.017   3.566 -0.1874  0.5577 -1.2183
12853SOL     OW39136   5.568   2.784   8.398  0.0350  0.1109 -0.1640
12853SOL    HW139137   5.564   2.701   8.444 -0.0106 -0.6776 -1.5448
12853SOL    HW239138   5.638   2.773   8.333  0.7351  1.5076  0.3072
12854SOL     OW39139   0.720   9.765   4.369  0.5751 -0.3039 -0.3926
12854SOL    HW139140   0.663   9.783   4.294  0.1872 -0.7743 -0.2123
12854SOL    HW239141   0.733   9.671   4.367 -0.8574 -0.5665  1.1382
12855SOL     OW39142   2.783   5.415   8.401  0.1052 -0.4819 -0.2675
12855SOL    HW139143   2.762   5.336   8.452  1.5429 -0.3534  0.5861
12855SOL    HW239144   2.878   5.415   8.396  0.0933  0.8887 -0.7817
12856SOL     OW39145   2.064   3.387   2.080  0.5947 -0.2870  0.0857
12856SOL    HW139146   2.100   3.396   1.993 -0.9221  0.7097 -0.4830
12856SOL    HW239147   2.136   3.410   2.139  3.0224 -5.0259 -0.5806
12857SOL     OW39148   6.449   8.160   1.729  0.1763  0.3610 -0.0463
12857SOL    HW139149   6.456   8.252   1.701  0.9968  0.4096  0.2959
12857SOL    HW239150   6.416   8.114   1.652 -0.9849  1.0558  0.0043
12858SOL     OW39151   9.629   7.519   0.840  0.0861  0.5737  0.0403
12858SOL    HW139152   9.676   7.451   0.887  2.7281  1.4782 -1.1090
12858SOL    HW239153   9.654   7.600   0.882  0.5462  1.1851 -1.3560
12859SOL     OW39154   0.602   2.816   9.653  0.3832 -0.2168  0.1934
12859SOL    HW139155   0.639   2.732   9.678  0.4242 -0.2738 -0.0615
12859SOL    HW239156   0.515   2.817   9.693  0.7606  0.0408  1.0486
12860SOL     OW39157   9.512   3.788   8.639  0.1002 -0.8840 -0.0982
12860SOL    HW139158   9.505   3.821   8.549 -0.3888  0.2421  0.3282
12860SOL    HW239159   9.552   3.860   8.688 -0.8366 -0.9650  0.8333
12861SOL     OW39160   2.277   0.193   2.630 -0.1130 -0.1442  0.4475
12861SOL    HW139161   2.247   0.247   2.703 -0.1381  0.1449  0.2238
12861SOL    HW239162   2.356   0.236   2.598  1.2507 -1.5339  1.7808
12862SOL     OW39163   4.071   1.119   7.731 -0.2126 -0.1243  0.3689
12862SOL    HW139164   4.154   1.082   7.701 -0.8745 -2.3194  1.0937
12862SOL    HW239165   4.030   1.153   7.651  0.0547 -1.7679 -0.5030
12863SOL     OW39166   2.695   1.216   5.539 -0.4968 -0.1490  0.0053
12863SOL    HW139167   2.611   1.181   5.565 -0.0450 -0.6922  0.7510
12863SOL    HW239168   2.756   1.185   5.605  0.3503 -0.0346 -0.7003
12864SOL     OW39169   2.931   7.761   2.968 -0.2180 -0.8391 -0.0676
12864SOL    HW139170   2.954   7.761   2.876 -0.7888  0.0267 -0.2261
12864SOL    HW239171   2.979   7.687   3.005  2.0104  0.2606 -0.5666
12865SOL     OW39172   9.746   9.913   9.403  0.1275 -0.5336  0.1826
12865SOL    HW139173   9.727   9.821   9.389  0.8057 -1.1086  2.6609
12865SOL    HW239174   9.726   9.929   9.495 -1.6156  2.2464 -0.5562
12866SOL     OW39175   8.064   4.599   5.931 -0.2875 -0.0042  0.0835
12866SOL    HW139176   7.978   4.618   5.894  0.3440  1.3019 -0.7645
12866SOL    HW239177   8.124   4.600   5.856  1.0042  2.5623  1.0366
12867SOL     OW39178   9.953   9.937   5.713 -0.7550 -0.0345 -0.3107
12867SOL    HW139179   9.991   9.888   5.786  1.3261  1.7352 -0.0917
12867SOL    HW239180   9.963   9.880   5.637 -0.8828 -1.0073  0.3876
12868SOL     OW39181   1.858   7.130   3.324  0.3343 -1.0153 -0.8097
12868SOL    HW139182   1.909   7.194   3.275 -1.7801  0.3880 -1.3468
12868SOL    HW239183   1.831   7.065   3.259  2.1449 -2.2950 -0.3422
12869SOL     OW39184   0.877   1.192   3.850 -0.3111  0.0588 -0.4863
12869SOL    HW139185   0.841   1.109   3.817 -1.0667 -0.4406  1.4665
12869SOL    HW239186   0.966   1.170   3.876 -0.6256 -0.2485  0.3573
12870SOL     OW39187   7.619   1.460   0.758 -0.7671  0.0696 -0.0892
12870SOL    HW139188   7.684   1.443   0.690  0.6463  0.7303  1.0332
12870SOL    HW239189   7.546   1.404   0.736 -1.3290  1.8184 -3.4277
12871SOL     OW39190   4.856   2.021   2.635 -0.2324  0.1402  0.3170
12871SOL    HW139191   4.928   2.079   2.660  0.5192  0.0053 -1.4104
12871SOL    HW239192   4.854   2.024   2.540 -2.2006 -0.2789  0.2919
12872SOL     OW39193   8.354   5.890   2.402 -0.3178  0.5258 -0.4893
12872SOL    HW139194   8.315   5.959   2.456  0.0742 -1.4950  2.6200
12872SOL    HW239195   8.446   5.888   2.428 -0.5101 -1.7315  0.2808
12873SOL     OW39196   7.714   6.638   7.724 -0.3880 -0.1524 -0.1409
12873SOL    HW139197   7.720   6.560   7.780  0.9246  1.2524  1.7821
12873SOL    HW239198   7.762   6.705   7.771  1.3557  0.9864 -3.2714
12874SOL     OW39199   0.369   4.723   0.143 -0.1639  0.1738 -0.1867
12874SOL    HW139200   0.312   4.770   0.203  0.5507  1.3720 -0.4151
12874SOL    HW239201   0.448   4.704   0.194  0.9457  2.2597 -1.0316
12875SOL     OW39202   9.019   8.438   9.233 -0.2299  0.4484  0.3595
12875SOL    HW139203   9.036   8.523   9.274  2.6160 -0.1936  0.7071
12875SOL    HW239204   9.070   8.438   9.153  0.0593 -1.0188  0.5019
12876SOL     OW39205   8.307   6.457   8.157 -0.4622  0.3488 -0.0581
12876SOL    HW139206   8.324   6.459   8.251 -2.4858  1.0991  0.3571
12876SOL    HW239207   8.268   6.542   8.138 -1.2846 -0.2767 -1.3133
12877SOL     OW39208   5.480   8.175   0.048  0.2390  0.2803  0.4791
12877SOL    HW139209   5.570   8.144   0.053  0.9991  2.4264  1.1460
12877SOL    HW239210   5.429   8.108   0.094  1.6013 -0.5561  0.8179
12878SOL     OW39211   4.214   8.726   4.938  0.1184  0.1204  0.0927
12878SOL    HW139212   4.304   8.697   4.922  0.5219  1.1513  0.4007
12878SOL    HW239213   4.218   8.821   4.934 -0.8579  0.2036  0.6695
12879SOL     OW39214   2.621   6.061   8.992 -0.1396  0.4790 -0.2740
12879SOL    HW139215   2.548   6.056   8.929 -2.0526 -0.7297  1.8684
12879SOL    HW239216   2.594   6.129   9.054 -0.0638 -0.7983  1.2209
12880SOL     OW39217   9.244   5.134   1.563 -0.2260  0.1724  0.1361
12880SOL    HW139218   9.277   5.223   1.566  2.3365 -0.7096  0.7729
12880SOL    HW239219   9.278   5.093   1.643 -2.5647 -1.0235  0.6183
12881SOL     OW39220   8.730   4.434   3.337 -0.4558  0.2049  0.1736
12881SOL    HW139221   8.641   4.469   3.339 -0.9640 -1.0614  0.7766
12881SOL    HW239222   8.723   4.352   3.288  0.3525  0.0419  0.3174
12882SOL     OW39223   4.333   7.365   2.366  0.1444  0.3903 -0.1512
12882SOL    HW139224   4.238   7.377   2.361  0.1858  1.0857  0.5476
12882SOL    HW239225   4.343   7.279   2.408 -0.1722  0.1398 -0.5798
12883SOL     OW39226   3.081   1.566   1.425 -0.3658  0.0307  0.3093
12883SOL    HW139227   3.129   1.645   1.403 -2.0300  1.8195  2.6092
12883SOL    HW239228   2.990   1.586   1.402 -0.6929 -1.5943  0.0581
12884SOL     OW39229   0.014   8.879   2.435 -0.3422 -0.1787  0.1337
12884SOL    HW139230   0.080   8.838   2.491  0.2142 -0.1647 -0.4951
12884SOL    HW239231  -0.040   8.806   2.405  2.7129 -1.1856 -3.8000
12885SOL     OW39232   7.454   2.018   4.520  0.0313 -0.3792 -0.2556
12885SOL    HW139233   7.543   2.048   4.537 -0.2175 -0.0871  0.6019
12885SOL    HW239234   7.400   2.096   4.529 -0.7871 -1.1757  3.3488
12886SOL     OW39235   9.930   1.413   9.153 -0.0027 -0.6546 -0.5986
12886SOL    HW139236   9.887   1.366   9.225  0.2358 -0.0551 -0.0513
12886SOL    HW239237   9.899   1.503   9.162  1.0982 -0.2813 -0.3934
12887SOL     OW39238   8.197   5.375   7.124  0.1631  0.1628 -0.3613
12887SOL    HW139239   8.120   5.425   7.095 -0.9828 -1.8514 -0.9779
12887SOL    HW239240   8.212   5.404   7.214 -1.7849  0.0578  0.0272
12888SOL     OW39241   4.303   3.210   3.640  0.0334  0.6301  0.1117
12888SOL    HW139242   4.225   3.263   3.623  0.3703  1.2081  0.3707
12888SOL    HW239243   4.295   3.137   3.578 -0.4091  0.9979 -0.2798
12889SOL     OW39244   4.482   6.794   7.315  0.3501 -0.0135 -0.0701
12889SOL    HW139245   4.425   6.827   7.384 -0.8779 -2.2882  0.0808
12889SOL    HW239246   4.509   6.707   7.344  0.4494 -0.7103 -2.0582
12890SOL     OW39247   7.738   4.580   6.088  0.0786 -0.6958 -0.4794
12890SOL    HW139248   7.763   4.639   6.017 -1.9492  0.5341 -0.2542
12890SOL    HW239249   7.712   4.499   6.045  0.3594 -0.5112 -1.0058
12891SOL     OW39250   1.022   5.961   7.788  0.3194  0.0028 -0.2138
12891SOL    HW139251   0.964   5.888   7.812  1.3826 -0.5430  0.7592
12891SOL    HW239252   1.010   6.025   7.857 -1.0032  1.0376 -1.3319
12892SOL     OW39253   6.580   8.740   6.141  0.0875  0.5620  0.2965
12892SOL    HW139254   6.563   8.710   6.052  0.1987  0.3040  0.3599
12892SOL    HW239255   6.495   8.732   6.186 -0.1044  1.2458  0.0601
12893SOL     OW39256   6.005   9.415   4.817 -0.5316  0.0987  0.0775
12893SOL    HW139257   6.003   9.503   4.854 -1.1543  0.1736 -0.1293
12893SOL    HW239258   6.097   9.390   4.820 -0.4020  0.6082  0.4871
12894SOL     OW39259   3.607   0.991   7.649 -0.6400 -0.2810  0.0474
12894SOL    HW139260   3.518   0.992   7.616 -0.9488 -0.1561  0.8744
12894SOL    HW239261   3.623   1.079   7.680 -1.0498 -0.8578  2.0147
12895SOL     OW39262   8.006   8.423   2.804  0.1987 -0.2382 -0.6107
12895SOL    HW139263   7.948   8.415   2.728  1.3976  2.0269 -1.8667
12895SOL    HW239264   7.952   8.461   2.873 -0.7410 -1.7382 -0.4713
12896SOL     OW39265   5.392   4.554   0.096 -0.0130  0.5325  0.3419
12896SOL    HW139266   5.421   4.514   0.014  1.3900 -1.7350  1.8466
12896SOL    HW239267   5.322   4.497   0.128  0.4541  0.5339  1.4208
12897SOL     OW39268   7.436   2.975   7.473 -0.1266  0.4321 -0.0082
12897SOL    HW139269   7.348   2.976   7.437 -0.7252 -0.7416  1.2989
12897SOL    HW239270   7.488   2.925   7.410 -0.5474  0.5981 -0.4866
12898SOL     OW39271   3.100   9.802   9.583 -0.2919  0.9283 -0.0293
12898SOL    HW139272   3.101   9.715   9.542 -1.2225  0.0959  1.5967
12898SOL    HW239273   3.132   9.861   9.515 -0.7712 -0.5102 -1.5799
12899SOL     OW39274   3.615   9.325   4.361 -0.0985  0.2805 -0.5101
12899SOL    HW139275   3.624   9.250   4.419 -0.9188  0.2766 -0.3751
12899SOL    HW239276   3.598   9.288   4.275 -0.0623  0.3078 -0.5296
12900SOL     OW39277   5.387   0.322   6.151 -0.0956 -0.3292  0.0660
12900SOL    HW139278   5.378   0.227   6.151  1.4550 -0.4960  0.2724
12900SOL    HW239279   5.421   0.344   6.064 -2.4893  0.3006 -0.7902
12901SOL     OW39280   9.942   0.923   6.688 -0.0932  0.2707  0.0933
12901SOL    HW139281   9.858   0.939   6.645 -0.8906 -1.5299  0.8490
12901SOL    HW239282   9.994   0.875   6.624 -1.0617 -1.8795  0.8002
12902SOL     OW39283   6.675   1.148   4.813  0.7206 -0.4452 -0.2868
12902SOL    HW139284   6.655   1.201   4.736  0.4081 -2.1490 -1.4189
12902SOL    HW239285   6.744   1.089   4.785  1.7205 -0.0819  1.2323
12903SOL     OW39286   7.095   9.233   4.736 -0.2746  0.8057  0.2447
12903SOL    HW139287   7.170   9.205   4.788 -0.5573 -1.2599 -0.3520
12903SOL    HW239288   7.124   9.312   4.691  1.5711  0.0461  0.0083
12904SOL     OW39289   7.328   4.385   4.356 -0.1836 -0.3417 -0.0119
12904SOL    HW139290   7.378   4.374   4.275  0.6008  1.6677  0.1428
12904SOL    HW239291   7.361   4.467   4.394 -2.7306  0.4515  0.7140
12905SOL     OW39292   1.884   1.107   6.172  0.3122  0.6918  0.0366
12905SOL    HW139293   1.902   1.196   6.203 -0.3882  0.7946  0.1741
12905SOL    HW239294   1.884   1.116   6.076 -2.7694  1.5517 -0.0205
12906SOL     OW39295   7.870   9.745   4.460 -0.1231 -0.5535  0.0688
12906SOL    HW139296   7.912   9.714   4.381 -1.5650  1.2890 -1.5291
12906SOL    HW239297   7.827   9.827   4.434  0.6218  0.9617  3.1361
12907SOL     OW39298   4.056   0.437   3.154  0.2022  0.2150  0.4013
12907SOL    HW139299   4.125   0.399   3.209 -0.3339 -0.9533  0.2949
12907SOL    HW239300   4.098   0.449   3.068  0.1019 -1.2011  0.1221
12908SOL     OW39301   1.437   1.681   8.089  0.1029  0.2158 -0.1082
12908SOL    HW139302   1.509   1.686   8.152  0.7950 -1.4603 -0.7046
12908SOL    HW239303   1.361   1.716   8.135  0.3198 -1.9579  2.0567
12909SOL     OW39304   4.328   8.837   4.380 -0.1777  0.1189  0.0035
12909SOL    HW139305   4.293   8.755   4.343  0.6408 -0.1667 -0.1524
12909SOL    HW239306   4.291   8.906   4.325  0.7642 -0.2818 -1.1552
12910SOL     OW39307   5.102   2.890   7.076  0.2728 -0.6877 -0.0214
12910SOL    HW139308   5.012   2.920   7.079  0.4167 -0.2975  0.4620
12910SOL    HW239309   5.110   2.847   6.990 -0.8665 -2.3283  0.6405
12911SOL     OW39310   7.297   4.901   7.471  0.0747 -0.4334 -0.0528
12911SOL    HW139311   7.276   4.964   7.402  1.3565 -0.7412 -0.7472
12911SOL    HW239312   7.280   4.948   7.553 -0.3360  0.3303 -0.5701
12912SOL     OW39313   1.265   7.880   0.944  0.2888  0.5357  0.2028
12912SOL    HW139314   1.323   7.806   0.961 -0.4056 -0.2356 -0.6758
12912SOL    HW239315   1.309   7.931   0.877  0.2340  0.2794 -0.0290
12913SOL     OW39316   1.433   3.627   9.016  0.0114 -0.6136 -0.0431
12913SOL    HW139317   1.485   3.558   9.055  1.2728 -0.6399 -1.6412
12913SOL    HW239318   1.438   3.700   9.078  1.3105 -0.9000  0.2022
12914SOL     OW39319   6.528   3.658   8.996 -0.4785 -0.1549 -0.2272
12914SOL    HW139320   6.554   3.566   8.999  0.6303  0.1567  2.2303
12914SOL    HW239321   6.608   3.705   8.972 -0.9057  0.2266 -0.9408
12915SOL     OW39322   3.831   7.063   5.420  0.0192  0.2890 -0.5331
12915SOL    HW139323   3.798   7.038   5.334 -3.6619  1.1631  0.4420
12915SOL    HW239324   3.814   6.987   5.476  3.2886 -0.6683 -0.5937
12916SOL     OW39325   0.866   1.668   0.980  0.2569  0.4423 -0.0798
12916SOL    HW139326   0.850   1.761   0.992  0.3178  0.4767 -0.2583
12916SOL    HW239327   0.954   1.654   1.014  0.3334  0.4918 -0.2583
12917SOL     OW39328   1.851   3.953   5.561 -0.5768  0.0238  0.4990
12917SOL    HW139329   1.834   4.037   5.519 -3.1236 -0.4821  0.3840
12917SOL    HW239330   1.819   3.964   5.650 -0.4376 -0.6766  0.6416
12918SOL     OW39331   0.104   3.715   2.353  0.0439 -0.0382 -0.3377
12918SOL    HW139332   0.184   3.676   2.319 -0.7767  0.4588 -3.0737
12918SOL    HW239333   0.034   3.677   2.300 -1.3557  0.8903  0.7620
12919SOL     OW39334   2.956   1.336   0.791 -0.7254  1.2586 -0.3113
12919SOL    HW139335   2.976   1.362   0.881 -1.0798 -0.5857  0.3506
12919SOL    HW239336   2.876   1.383   0.770 -0.9313  1.3110  0.5548
12920SOL     OW39337   7.458   1.636   9.068  0.5088  0.3423  0.1263
12920SOL    HW139338   7.489   1.557   9.113 -0.3354 -0.0285  0.0866
12920SOL    HW239339   7.448   1.609   8.977  1.2963  0.8238 -0.1096
12921SOL     OW39340   0.927   4.378   5.234 -0.5599  0.3034 -0.7475
12921SOL    HW139341   0.880   4.448   5.189 -2.1616  0.7114  1.4514
12921SOL    HW239342   0.980   4.423   5.299  0.7345 -0.3767 -1.2829
12922SOL     OW39343   1.200   1.340   6.716  0.3855 -0.0563 -0.3939
12922SOL    HW139344   1.215   1.424   6.674  1.6463 -1.0981 -2.1819
12922SOL    HW239345   1.280   1.290   6.700  0.1919 -1.1806  1.7359
12923SOL     OW39346   1.405   5.062   5.080 -0.7514 -0.1221 -0.1738
12923SOL    HW139347   1.429   4.980   5.123 -2.2582  0.2927  1.6097
12923SOL    HW239348   1.470   5.126   5.112  0.7042 -0.6451 -1.9233
12924SOL     OW39349   8.361   2.822   7.088 -0.4575  0.4304 -0.7405
12924SOL    HW139350   8.377   2.890   7.153  0.0667  0.2341 -0.6618
12924SOL    HW239351   8.314   2.754   7.137 -0.1893  0.3451 -0.5977
12925SOL     OW39352   4.402   8.688   2.930  0.0274  0.7827  0.1589
12925SOL    HW139353   4.388   8.630   2.856  1.6377  2.4734 -1.5818
12925SOL    HW239354   4.315   8.704   2.966 -0.6352 -1.1016 -0.5160
12926SOL     OW39355   5.690   2.838   1.981 -0.2213 -0.4960 -0.4647
12926SOL    HW139356   5.763   2.778   2.001 -1.4090 -1.5246  1.0630
12926SOL    HW239357   5.614   2.798   2.024 -1.3160  1.5079 -0.4074
12927SOL     OW39358   2.385   9.872   3.450 -0.3797  0.0881 -0.0497
12927SOL    HW139359   2.437   9.936   3.500 -1.0668  1.7506 -1.3656
12927SOL    HW239360   2.397   9.789   3.497  0.1693  1.2659  2.0135
12928SOL     OW39361   3.324   7.375   3.139  0.0239  0.3372  0.4480
12928SOL    HW139362   3.354   7.335   3.058  1.3607 -0.6954  1.3945
12928SOL    HW239363   3.361   7.463   3.137  0.5299  0.1229  0.1946
12929SOL     OW39364   8.179   9.929   2.844  0.0080 -0.0700  0.9323
12929SOL    HW139365   8.131   9.922   2.762 -1.3902 -0.3809  1.7395
12929SOL    HW239366   8.248   9.992   2.826 -0.9831  0.7489 -0.1579
12930SOL     OW39367   3.759   6.580   3.869  0.4954 -0.2327  0.0513
12930SOL    HW139368   3.798   6.577   3.782  0.2092  1.9032 -0.2091
12930SOL    HW239369   3.825   6.623   3.923 -0.5836  1.4092  0.1116
12931SOL     OW39370   6.396   5.077   4.666  0.6010 -0.0860  0.0136
12931SOL    HW139371   6.321   5.105   4.614 -0.7136  0.7184  2.1984
12931SOL    HW239372   6.370   4.992   4.701  1.2215 -0.3518 -0.1679
12932SOL     OW39373   6.792   2.294   2.238  0.1269  0.1323 -0.1103
12932SOL    HW139374   6.791   2.373   2.292  0.7010 -0.5351  0.9190
12932SOL    HW239375   6.867   2.244   2.270 -0.1313 -0.7582 -0.8502
12933SOL     OW39376   2.213   5.371   8.358  0.1939  1.1527  0.1698
12933SOL    HW139377   2.246   5.442   8.413  0.6875  0.9007  0.1978
12933SOL    HW239378   2.274   5.299   8.371  0.5217  1.1970 -0.9720
12934SOL     OW39379   1.943   0.806   7.087 -0.0291 -0.1221 -0.3956
12934SOL    HW139380   1.990   0.739   7.136  0.1197 -0.2841 -0.7596
12934SOL    HW239381   1.884   0.757   7.029 -1.8066  0.0666  1.1344
12935SOL     OW39382   9.011   2.080   1.303  0.1068 -0.4954  0.2162
12935SOL    HW139383   9.018   2.008   1.239  0.4741  0.1540 -0.4939
12935SOL    HW239384   8.941   2.136   1.268  0.5273  0.0319  0.2087
12936SOL     OW39385   6.688   6.921   1.088 -0.1454  0.5362  0.2769
12936SOL    HW139386   6.665   6.874   1.008  3.2720  0.1034 -0.6052
12936SOL    HW239387   6.692   7.013   1.061  1.5685  0.3309 -0.2660
12937SOL     OW39388   3.524   8.947   6.739 -0.0135 -0.1175 -0.0909
12937SOL    HW139389   3.613   8.948   6.705  0.9462 -0.9210  2.2351
12937SOL    HW239390   3.472   8.992   6.671  2.1780  0.6749 -1.3397
12938SOL     OW39391   6.246   7.921   8.932  0.1360  0.0469  0.3128
12938SOL    HW139392   6.189   7.885   8.863  0.6016  0.0575 -0.0869
12938SOL    HW239393   6.314   7.854   8.943  0.0041  0.0015  0.8375
12939SOL     OW39394   5.524   9.677   5.777  0.0561 -0.3246 -0.5809
12939SOL    HW139395   5.484   9.604   5.731  0.3361  1.3158 -3.6876
12939SOL    HW239396   5.616   9.652   5.787  0.1409 -0.4461 -1.5932
12940SOL     OW39397   2.947   7.544   7.258  0.3904  0.0744 -0.1224
12940SOL    HW139398   3.035   7.580   7.271  0.5706  0.4463 -2.0151
12940SOL    HW239399   2.962   7.455   7.227  0.0633 -0.1283  0.2907
12941SOL     OW39400   4.924   8.221   5.380 -0.0521 -0.0359 -0.3857
12941SOL    HW139401   4.850   8.159   5.377  0.2315 -0.3557 -0.7975
12941SOL    HW239402   4.955   8.226   5.290 -0.5952  1.3628 -0.5218
12942SOL     OW39403   8.760   5.360   8.172  0.3428  0.3550  0.2435
12942SOL    HW139404   8.808   5.377   8.092 -0.4868  0.0260 -0.3366
12942SOL    HW239405   8.678   5.320   8.143  0.0761  0.1341  1.2586
12943SOL     OW39406   6.988   1.690   8.685 -0.4702  0.4460 -0.0730
12943SOL    HW139407   6.961   1.628   8.753  0.8493 -1.4208 -1.1402
12943SOL    HW239408   6.906   1.723   8.648 -1.2675 -1.4024 -0.0743
12944SOL     OW39409   5.181   8.779   2.639  0.8711  0.1286  0.0097
12944SOL    HW139410   5.257   8.822   2.599  0.1127  1.4134 -0.1087
12944SOL    HW239411   5.123   8.760   2.565  0.7230 -0.1317  0.1908
12945SOL     OW39412   7.905   0.720   0.976  0.0664 -0.4938  0.3558
12945SOL    HW139413   7.852   0.701   0.899  0.0794 -0.1262  0.2515
12945SOL    HW239414   7.955   0.640   0.992 -2.2765 -1.7363  1.9059
12946SOL     OW39415   9.887   1.704   0.813 -0.4043 -0.6592  0.5042
12946SOL    HW139416   9.844   1.770   0.758  1.5972 -2.0190 -3.0285
12946SOL    HW239417   9.817   1.644   0.836 -1.2804 -0.4084 -1.2755
12947SOL     OW39418   3.211   4.031   3.183  0.0181 -0.1528  0.2279
12947SOL    HW139419   3.117   4.023   3.167 -0.2061 -1.6750  1.9529
12947SOL    HW239420   3.249   4.048   3.097 -1.9778  2.3547 -0.2899
12948SOL     OW39421   5.610   6.305   5.116  0.1269  0.4841  0.3442
12948SOL    HW139422   5.626   6.381   5.173  1.2564  1.0655 -0.6972
12948SOL    HW239423   5.523   6.274   5.141  0.3779  1.0240  2.0292
12949SOL     OW39424   3.813   8.357   1.075 -0.8552 -0.0896  0.3965
12949SOL    HW139425   3.725   8.328   1.096 -0.4805 -0.9016  0.8711
12949SOL    HW239426   3.868   8.279   1.086 -0.4625 -0.3551 -2.5862
12950SOL     OW39427   0.100   0.495   7.312  0.1785  0.6074  0.4226
12950SOL    HW139428   0.153   0.419   7.292  0.0243  0.6865 -0.3218
12950SOL    HW239429   0.083   0.536   7.227 -2.1249 -0.1161  0.4707
12951SOL     OW39430   2.613   9.845   3.929  0.5940  0.1895 -0.3139
12951SOL    HW139431   2.689   9.789   3.944  0.0925  0.3043  3.8647
12951SOL    HW239432   2.537   9.789   3.947 -0.2445  0.8101 -1.6884
12952SOL     OW39433   5.983   7.681   7.228 -0.0216  0.4712 -0.2984
12952SOL    HW139434   5.961   7.609   7.287  1.9783  0.7102  0.8188
12952SOL    HW239435   5.960   7.648   7.141  0.0193 -1.1738  0.2840
12953SOL     OW39436   3.009   0.035   5.822 -0.1092 -0.1477 -0.5208
12953SOL    HW139437   3.075   0.035   5.752  0.8438  0.3671  0.3609
12953SOL    HW239438   2.929   0.005   5.779  1.0346 -2.3043 -1.2803
12954SOL     OW39439   9.642   3.886   2.432  0.5213 -0.7818 -0.2432
12954SOL    HW139440   9.724   3.860   2.473 -0.0352 -2.8235 -0.3101
12954SOL    HW239441   9.574   3.850   2.490 -0.3068 -0.5070 -1.0185
12955SOL     OW39442   2.246   4.079   7.343  0.1499  0.4392 -0.2822
12955SOL    HW139443   2.312   4.143   7.369 -0.7331  0.9276  0.8952
12955SOL    HW239444   2.183   4.130   7.292  0.7235 -0.0459 -1.4898
12956SOL     OW39445   3.334   8.597   1.867 -0.1078  0.2440 -0.3046
12956SOL    HW139446   3.418   8.555   1.885 -0.3012  0.2113  0.5616
12956SOL    HW239447   3.276   8.566   1.937 -0.1072  2.4029  0.7204
12957SOL     OW39448   7.118   6.082   7.203 -0.4075  0.0782 -0.2535
12957SOL    HW139449   7.189   6.069   7.266 -0.7177 -0.2625  0.0270
12957SOL    HW239450   7.153   6.046   7.121 -0.4662 -0.6236  0.0198
12958SOL     OW39451   3.277   0.046   0.668 -0.1933  0.6013 -0.5813
12958SOL    HW139452   3.239   0.118   0.719 -0.6917  0.1283 -0.2614
12958SOL    HW239453   3.248  -0.033   0.715 -0.4514  0.1648 -1.4630
12959SOL     OW39454   6.202   8.455   5.507 -0.1908 -0.0125 -0.2567
12959SOL    HW139455   6.162   8.535   5.471  0.7705  0.0324 -1.2680
12959SOL    HW239456   6.260   8.487   5.576  1.5953  0.3760 -1.8749
12960SOL     OW39457   5.928   7.821   6.189  0.4627  0.1876  0.0180
12960SOL    HW139458   5.923   7.744   6.246  1.1373 -0.2003 -0.4446
12960SOL    HW239459   5.895   7.790   6.105 -0.1664  0.6599  0.0864
12961SOL     OW39460   7.292   3.379   1.806  0.5809  0.3817 -0.0357
12961SOL    HW139461   7.256   3.300   1.846  0.2074  0.3611 -0.4077
12961SOL    HW239462   7.218   3.440   1.803  0.6025  0.3789 -0.7037
12962SOL     OW39463   0.968   3.258   5.866  0.1153  0.1287 -0.4833
12962SOL    HW139464   1.056   3.222   5.881 -0.8391 -1.4583  1.9343
12962SOL    HW239465   0.952   3.315   5.942 -1.0166  0.2595 -0.7975
12963SOL     OW39466   4.642   1.438   8.923 -0.3075 -0.4392 -0.9667
12963SOL    HW139467   4.566   1.453   8.979  1.5465 -1.4453  2.1117
12963SOL    HW239468   4.646   1.342   8.913  0.7113 -0.4371 -0.7656
12964SOL     OW39469   2.142   2.210   4.437 -0.1427  0.2718 -0.3118
12964SOL    HW139470   2.101   2.293   4.412 -1.2179 -0.1967 -0.2011
12964SOL    HW239471   2.118   2.150   4.366 -0.0028 -0.1244 -0.0286
12965SOL     OW39472   3.474   3.257   3.265 -0.4814 -0.2736 -0.0186
12965SOL    HW139473   3.407   3.242   3.331 -1.5086 -1.3423 -1.2616
12965SOL    HW239474   3.426   3.272   3.184  0.7290  1.9633 -0.3988
12966SOL     OW39475   7.882   7.759   4.828 -0.1897  0.6510 -0.5682
12966SOL    HW139476   7.884   7.670   4.794 -1.6687 -0.4787  2.0531
12966SOL    HW239477   7.962   7.767   4.880 -0.4426  0.5733 -0.1651
12967SOL     OW39478   1.474   8.692   5.643 -0.0769 -0.6048  0.0258
12967SOL    HW139479   1.499   8.765   5.586  2.0504 -0.3556  1.1667
12967SOL    HW239480   1.388   8.717   5.677 -0.1405  0.5677 -0.9178
12968SOL     OW39481   3.488   0.054   1.700  0.1585 -0.7161 -0.2268
12968SOL    HW139482   3.434  -0.010   1.746  3.4833 -1.4346  3.1833
12968SOL    HW239483   3.552   0.001   1.652  0.3203  0.1213 -0.9699
12969SOL     OW39484   0.056   4.353   3.085  0.1904  0.3551 -0.3801
12969SOL    HW139485   0.051   4.269   3.131 -1.2290  0.3681 -0.4694
12969SOL    HW239486   0.045   4.330   2.993 -0.5902  0.6615 -0.3707
12970SOL     OW39487   3.596   1.212   1.128 -0.4278  0.0940  0.4464
12970SOL    HW139488   3.581   1.122   1.157 -0.0158  0.1278  0.7778
12970SOL    HW239489   3.636   1.255   1.203  1.5355 -0.0570 -0.4492
12971SOL     OW39490   7.138   8.889   3.713 -0.3214 -0.0599 -0.2400
12971SOL    HW139491   7.193   8.847   3.647  1.0202 -0.1645  0.9095
12971SOL    HW239492   7.087   8.953   3.664 -0.3002 -1.0162 -1.5696
12972SOL     OW39493   1.244   2.508   1.595  0.4562  0.3430  0.0560
12972SOL    HW139494   1.305   2.453   1.545  0.3267 -0.2428  0.5262
12972SOL    HW239495   1.159   2.492   1.555  0.4974  0.6095 -0.1414
12973SOL     OW39496   4.358   4.572   0.522 -0.6811  0.0830 -0.6273
12973SOL    HW139497   4.415   4.583   0.446 -1.5418 -1.0358 -1.4697
12973SOL    HW239498   4.271   4.597   0.490 -1.3219 -1.7924 -0.4686
12974SOL     OW39499   8.285   3.281   2.833 -0.3701  0.7495 -0.9082
12974SOL    HW139500   8.257   3.191   2.817 -1.1998  0.9255 -0.4702
12974SOL    HW239501   8.246   3.305   2.917  2.1529  0.5695  0.4227
12975SOL     OW39502   6.293   1.325   3.885  0.2418  0.1410  0.5904
12975SOL    HW139503   6.313   1.322   3.791  2.1454  0.6906  0.9448
12975SOL    HW239504   6.311   1.237   3.916  1.1998  0.3841  0.7319
12976SOL     OW39505   2.488   6.783   6.249 -0.6461 -0.1811  0.4758
12976SOL    HW139506   2.481   6.756   6.158  1.5765  0.5734  0.0307
12976SOL    HW239507   2.466   6.876   6.249 -1.7662 -0.4242  0.9316
12977SOL     OW39508   8.102   3.953   0.573  0.6217 -0.1196 -0.0312
12977SOL    HW139509   8.059   3.879   0.616  1.9765 -0.6179  0.4907
12977SOL    HW239510   8.158   3.992   0.640  1.2075  0.3488 -0.7755
12978SOL     OW39511   6.338   2.004   9.675 -0.3890 -0.3247  0.1695
12978SOL    HW139512   6.377   1.958   9.749 -2.2686 -1.0944  0.7476
12978SOL    HW239513   6.397   2.077   9.658  0.9225 -1.0612  1.3932
12979SOL     OW39514   9.814   5.327   8.518  0.0172 -0.0668  0.2095
12979SOL    HW139515   9.742   5.278   8.480  0.6576  0.8767 -2.4091
12979SOL    HW239516   9.778   5.364   8.599 -1.7891 -1.2183 -0.0143
12980SOL     OW39517   4.663   1.767   5.677  0.2657  1.0237  0.4635
12980SOL    HW139518   4.649   1.733   5.765 -0.3021  1.7305  0.6593
12980SOL    HW239519   4.623   1.854   5.679 -2.8135 -0.1554 -1.4348
12981SOL     OW39520   6.594   3.481   5.846  0.1932  0.1651  0.2253
12981SOL    HW139521   6.527   3.433   5.796 -1.0895  0.6317  1.4255
12981SOL    HW239522   6.677   3.451   5.809 -0.6625 -0.1620 -1.5670
12982SOL     OW39523   1.998   5.532   9.849 -0.2134 -0.0776 -0.4016
12982SOL    HW139524   2.032   5.464   9.908 -1.8256 -0.5128  0.0808
12982SOL    HW239525   1.905   5.514   9.843 -0.4861  1.4312 -1.1853
12983SOL     OW39526   6.207   8.102   1.513 -0.1271 -0.0096 -0.4455
12983SOL    HW139527   6.230   8.160   1.440 -1.4238 -2.1522 -2.7134
12983SOL    HW239528   6.112   8.107   1.519 -0.2871 -1.8769 -0.7606
12984SOL     OW39529   2.981   3.949   9.370  0.0968 -0.2025  0.2711
12984SOL    HW139530   3.028   3.993   9.441  1.7904  1.0696 -1.5056
12984SOL    HW239531   3.031   3.973   9.291 -2.5263 -0.3026 -1.5307
12985SOL     OW39532   5.709   5.003   8.087 -0.2435 -0.4029 -0.3393
12985SOL    HW139533   5.645   5.019   8.157  0.8434  1.2438  0.3444
12985SOL    HW239534   5.659   5.011   8.006 -1.2487 -0.9464  0.2115
12986SOL     OW39535   3.316   0.651   6.833  0.1097 -0.3866  0.7783
12986SOL    HW139536   3.244   0.640   6.895 -0.0408  0.7066  0.8114
12986SOL    HW239537   3.365   0.726   6.866  0.0883  0.1415 -0.3509
12987SOL     OW39538   2.699   8.819   2.871 -0.0365 -0.0319  0.5540
12987SOL    HW139539   2.617   8.861   2.897 -0.0070 -1.0253  2.4049
12987SOL    HW239540   2.754   8.824   2.949  0.8783 -1.2757  0.0130
12988SOL     OW39541   6.986   1.839   9.751  0.3505  0.0326 -0.6397
12988SOL    HW139542   6.969   1.930   9.726  0.6477 -0.0267 -1.0586
12988SOL    HW239543   6.909   1.791   9.719  0.2853  0.1075 -0.5943
12989SOL     OW39544   0.051   8.572   1.126 -0.3415 -0.6434  0.1054
12989SOL    HW139545   0.116   8.528   1.182  0.8475  1.4790  0.4988
12989SOL    HW239546   0.103   8.620   1.063 -1.5983  0.0767 -0.4086
12990SOL     OW39547   2.558   6.772   5.707 -0.2358 -0.4321 -0.1722
12990SOL    HW139548   2.481   6.830   5.711 -0.7948 -1.1944  0.9764
12990SOL    HW239549   2.601   6.786   5.791 -1.0015 -2.4585  0.6087
12991SOL     OW39550   7.249   0.930   9.940 -0.1519  0.1801 -0.3873
12991SOL    HW139551   7.185   0.986   9.984  1.5469  0.2288  2.2455
12991SOL    HW239552   7.324   0.987   9.924  0.2054 -0.4727 -1.1284
12992SOL     OW39553   8.026   8.927   1.639  0.0022 -0.2658 -0.2102
12992SOL    HW139554   7.997   8.840   1.614 -0.7763  0.1595 -0.8374
12992SOL    HW239555   8.061   8.965   1.558  0.5459 -0.0678  0.1080
12993SOL     OW39556   5.354   4.428   3.837  0.0189  0.0596 -0.1066
12993SOL    HW139557   5.415   4.486   3.792  1.0982 -1.8581 -1.2361
12993SOL    HW239558   5.359   4.346   3.789 -1.0014 -1.1833  1.7863
12994SOL     OW39559   7.053   5.728   1.112  0.4491  0.2909 -0.0050
12994SOL    HW139560   6.975   5.761   1.069  1.6344  0.3011 -2.2779
12994SOL    HW239561   7.030   5.638   1.137 -0.3351  0.3515 -0.4832
12995SOL     OW39562   3.075   9.221   5.849  0.0881 -0.6859  0.1328
12995SOL    HW139563   3.159   9.176   5.842  0.7655  0.7233 -1.3276
12995SOL    HW239564   3.098   9.314   5.854 -1.3946 -0.2433 -0.6949
12996SOL     OW39565   1.970   5.763   5.212 -0.0040  0.0654  0.2686
12996SOL    HW139566   1.925   5.742   5.130 -1.9856  1.2459  0.9907
12996SOL    HW239567   2.057   5.790   5.184  0.6442 -3.0178 -1.1208
12997SOL     OW39568   7.321   2.318   0.239 -0.6245 -0.2659  0.1411
12997SOL    HW139569   7.303   2.334   0.146 -1.7534 -1.7034  0.0808
12997SOL    HW239570   7.371   2.237   0.240 -0.7449 -0.3324  0.7967
12998SOL     OW39571   2.995   5.596   7.987 -0.1506 -0.1491 -0.4082
12998SOL    HW139572   3.010   5.690   7.990  0.9107 -0.3239  1.4882
12998SOL    HW239573   2.912   5.582   8.032  1.4549 -0.3459  2.7208
12999SOL     OW39574   6.337   0.790   9.220  0.1097  0.0538  0.2363
12999SOL    HW139575   6.242   0.798   9.231 -0.1047 -0.8987 -0.7567
12999SOL    HW239576   6.367   0.879   9.203 -0.6578  0.3077  0.1704
13000SOL     OW39577   9.589   3.153   6.213 -0.0514 -0.1228  0.1787
13000SOL    HW139578   9.516   3.152   6.152 -0.5746  0.1928  0.7932
13000SOL    HW239579   9.623   3.063   6.212 -1.0125 -0.5070  0.5569
13001SOL     OW39580   0.644   8.815   7.372  0.3216 -0.3968 -0.1121
13001SOL    HW139581   0.653   8.899   7.417  0.7410  0.7975 -2.2513
13001SOL    HW239582   0.674   8.750   7.435 -2.9201  0.6146  2.7745
13002SOL     OW39583   2.103   4.291   1.495  0.1186  1.0051  0.5232
13002SOL    HW139584   2.069   4.366   1.544  1.2302  1.7443  0.2055
13002SOL    HW239585   2.174   4.257   1.550  1.0455  1.5352 -0.3151
13003SOL     OW39586   8.305   4.194   4.075  0.3401 -0.1226 -0.0123
13003SOL    HW139587   8.281   4.253   4.004  0.5256  0.0616  0.0754
13003SOL    HW239588   8.273   4.237   4.154 -1.3477 -1.1168 -0.1162
13004SOL     OW39589   8.504   4.788   5.478  0.0917 -0.3006  0.2066
13004SOL    HW139590   8.419   4.747   5.493  0.8295 -2.7751 -1.6621
13004SOL    HW239591   8.491   4.842   5.400 -0.6403  2.5546  2.1436
13005SOL     OW39592   5.438   5.428   9.892  0.0235 -0.5120 -0.4170
13005SOL    HW139593   5.354   5.418   9.937  0.4583 -2.2598  0.0865
13005SOL    HW239594   5.419   5.408   9.800 -0.0737 -1.2399 -0.2478
13006SOL     OW39595   4.269   0.681   2.072 -0.0850  0.0788 -0.0010
13006SOL    HW139596   4.218   0.756   2.102  0.6042  0.4814  0.1907
13006SOL    HW239597   4.216   0.642   2.003 -1.0131  0.0169  0.7264
13007SOL     OW39598   8.359   1.222   5.573  1.0196  0.4612  0.0033
13007SOL    HW139599   8.381   1.255   5.486  1.2555 -1.2617 -0.6270
13007SOL    HW239600   8.419   1.268   5.632  1.1264  1.3587 -0.7802
13008SOL     OW39601   0.753   3.005   7.644  0.1281  0.5384 -0.5387
13008SOL    HW139602   0.702   2.986   7.565  0.3790  0.4741 -0.6867
13008SOL    HW239603   0.720   3.090   7.673 -2.1167 -0.7656  1.0261
13009SOL     OW39604   5.754   9.812   6.602 -0.1850 -0.0445  0.1929
13009SOL    HW139605   5.807   9.846   6.673  0.4599 -1.1276  0.2454
13009SOL    HW239606   5.803   9.834   6.523 -0.4282  0.3121  0.1381
13010SOL     OW39607   1.326   0.878   3.354  0.2451 -0.5020  0.3737
13010SOL    HW139608   1.358   0.788   3.363  1.3055 -0.0461  1.6038
13010SOL    HW239609   1.401   0.927   3.319 -0.0915  0.0347  0.3865
13011SOL     OW39610   2.219   3.954   6.935 -0.2046  0.1829  0.5330
13011SOL    HW139611   2.260   3.905   6.864 -1.3690  0.1069 -0.1088
13011SOL    HW239612   2.218   3.894   7.009 -0.9595 -0.5201 -0.0325
13012SOL     OW39613   9.509   8.286   7.181  0.1615  0.3179 -0.2715
13012SOL    HW139614   9.547   8.202   7.155 -2.0966 -0.9274  0.1862
13012SOL    HW239615   9.573   8.324   7.241  0.8714 -1.4476  0.1443
13013SOL     OW39616   2.287   7.174   6.862 -0.0549  0.1999  0.1848
13013SOL    HW139617   2.367   7.133   6.896 -0.3753 -1.2639 -0.7079
13013SOL    HW239618   2.288   7.262   6.898  0.5746 -0.6345  2.4256
13014SOL     OW39619   5.881   6.919   7.404  0.3686  0.2030 -0.3021
13014SOL    HW139620   5.788   6.933   7.385  0.4791  1.2284 -0.1146
13014SOL    HW239621   5.901   6.834   7.364 -0.6171  0.0270 -0.4412
13015SOL     OW39622   2.176   0.907   3.903 -0.6310 -0.0027 -0.1935
13015SOL    HW139623   2.231   0.913   3.981  0.4136  0.5729 -0.9591
13015SOL    HW239624   2.112   0.978   3.914  0.3392  0.9401 -0.4828
13016SOL     OW39625   3.295   6.013   8.441  0.4345  0.1650  0.1244
13016SOL    HW139626   3.205   6.037   8.419  0.2480 -1.5531 -1.2075
13016SOL    HW239627   3.340   6.010   8.357  1.5343  0.1606  0.6988
13017SOL     OW39628   1.548   3.020   1.783  0.0208  0.6556  0.2577
13017SOL    HW139629   1.609   3.055   1.718 -1.4290  1.5419 -0.6581
13017SOL    HW239630   1.572   2.928   1.791  1.1424  0.8689 -0.4646
13018SOL     OW39631   9.252   9.524   7.870 -0.1483 -0.2313 -0.3033
13018SOL    HW139632   9.278   9.526   7.962 -1.4776 -2.0948  0.1804
13018SOL    HW239633   9.303   9.594   7.829 -0.2317  1.2983  2.0049
13019SOL     OW39634   4.239   8.898   6.664 -0.0845  0.2252  0.2425
13019SOL    HW139635   4.277   8.853   6.589 -1.5953  0.2631 -0.5942
13019SOL    HW239636   4.252   8.839   6.737 -0.8626 -1.0086 -0.5790
13020SOL     OW39637   3.083   9.807   0.797  0.3075  0.2418  0.4337
13020SOL    HW139638   3.026   9.861   0.743  0.6458 -0.6778 -0.8915
13020SOL    HW239639   3.084   9.722   0.753  0.9342 -0.4076  1.6621
13021SOL     OW39640   3.857   1.069   6.621 -0.3725  0.4488  0.5171
13021SOL    HW139641   3.776   1.020   6.640 -0.6375  0.9009  0.5504
13021SOL    HW239642   3.862   1.134   6.690  1.1886 -0.9801  1.8326
13022SOL     OW39643   6.241   3.346   8.682 -0.6081 -0.3063  0.4403
13022SOL    HW139644   6.232   3.423   8.625 -3.0885 -1.4419 -0.8358
13022SOL    HW239645   6.213   3.377   8.768  0.0482  0.6043  0.3494
13023SOL     OW39646   0.575   8.089   5.039  0.0988  0.4253  0.0948
13023SOL    HW139647   0.488   8.123   5.059 -0.7388 -1.4672 -0.0907
13023SOL    HW239648   0.571   8.067   4.946  0.9726  0.8378 -0.0457
13024SOL     OW39649   4.331   6.174   4.630  0.3532 -0.2333 -0.3580
13024SOL    HW139650   4.422   6.154   4.611  0.4133  0.0518 -0.3796
13024SOL    HW239651   4.295   6.094   4.668  0.8667 -0.0407  0.5491
13025SOL     OW39652   4.934   6.020   4.963  0.2439  0.1807 -0.2712
13025SOL    HW139653   4.903   6.110   4.953  0.0477  0.3687  1.6662
13025SOL    HW239654   5.027   6.024   4.943  0.2647  0.8489 -0.0681
13026SOL     OW39655   6.027   3.455   7.107  0.2049 -0.2839  0.5571
13026SOL    HW139656   6.121   3.439   7.116  0.4558  0.6024 -0.3111
13026SOL    HW239657   6.017   3.487   7.017 -0.8828 -0.0352  0.7546
13027SOL     OW39658   5.779   1.212   1.266  0.4080  0.3773  0.3242
13027SOL    HW139659   5.712   1.147   1.288  1.8265 -0.0357  4.3612
13027SOL    HW239660   5.740   1.296   1.289 -0.0524  0.6066 -1.1836
13028SOL     OW39661   2.231   2.621   9.123  0.2366 -0.2834 -0.3898
13028SOL    HW139662   2.201   2.598   9.211  1.7595 -1.1686 -0.0731
13028SOL    HW239663   2.150   2.630   9.072 -0.6466 -0.1748  0.9874
13029SOL     OW39664   8.037   5.567   5.382 -0.0051  0.4391  0.6872
13029SOL    HW139665   8.110   5.627   5.364  1.5653 -1.3688  0.6308
13029SOL    HW239666   8.008   5.537   5.296 -1.3857  1.7535  0.6719
13030SOL     OW39667   5.910   0.863   6.900 -0.0847 -0.2758 -0.1231
13030SOL    HW139668   5.888   0.872   6.993 -2.6426 -0.7711 -0.6026
13030SOL    HW239669   6.001   0.891   6.894 -0.1300  0.6542  2.3770
13031SOL     OW39670   4.353   7.802   2.294  0.5741 -0.1561  0.5736
13031SOL    HW139671   4.409   7.728   2.272  1.4816  1.3952 -3.1496
13031SOL    HW239672   4.414   7.876   2.304 -0.5004  0.6843  1.1980
13032SOL     OW39673   0.997   4.892   0.761  0.3714 -0.4256  0.5772
13032SOL    HW139674   0.913   4.887   0.806  0.6766  1.7044  1.5344
13032SOL    HW239675   1.061   4.856   0.823  0.5080  0.5827  1.0505
13033SOL     OW39676   4.056   7.024   7.191 -0.0819 -0.1454 -0.4519
13033SOL    HW139677   3.963   7.001   7.190  0.2496 -1.6424 -0.2780
13033SOL    HW239678   4.064   7.096   7.129 -1.2136 -0.6441 -1.2253
13034SOL     OW39679   5.070   0.212   8.840 -0.2793 -0.0686  0.1459
13034SOL    HW139680   4.986   0.174   8.865 -0.4793 -0.1077 -0.5734
13034SOL    HW239681   5.066   0.302   8.873 -0.4229 -0.2011  0.4961
13035SOL     OW39682   5.333   4.319   0.428  0.1113 -0.5163 -0.4450
13035SOL    HW139683   5.381   4.275   0.498  1.3600 -0.7510 -1.4178
13035SOL    HW239684   5.303   4.248   0.372 -1.0031 -0.3377 -0.1029
13036SOL     OW39685   5.306   1.437   2.433 -0.3016  0.0519 -0.5177
13036SOL    HW139686   5.281   1.527   2.454  0.1990  0.2409 -0.7266
13036SOL    HW239687   5.402   1.436   2.438 -0.2185 -0.1354 -1.8693
13037SOL     OW39688   0.447   1.781   5.963  0.3181  0.1532  0.3737
13037SOL    HW139689   0.411   1.747   6.045 -0.4322 -0.5856 -0.2366
13037SOL    HW239690   0.480   1.703   5.917  1.5328  0.6616  0.3492
13038SOL     OW39691   5.623   9.658   1.127  0.6001 -0.0888 -0.5451
13038SOL    HW139692   5.625   9.577   1.077 -0.6740 -1.7291  1.8244
13038SOL    HW239693   5.531   9.684   1.126  0.7391  0.4472  0.0234
13039SOL     OW39694   9.047   0.491   8.819  0.3415  0.2287 -0.0622
13039SOL    HW139695   9.142   0.499   8.817  0.4747 -1.0484  0.1531
13039SOL    HW239696   9.025   0.445   8.738 -0.1501  1.0091 -0.3762
13040SOL     OW39697   0.680   5.275   8.996  0.4400  0.0476 -0.2874
13040SOL    HW139698   0.665   5.369   8.986  0.1375  0.0567  0.2585
13040SOL    HW239699   0.593   5.236   8.990  0.2723  0.0121  1.7787
13041SOL     OW39700   3.903   5.104   1.378 -0.0630 -0.7888  0.6139
13041SOL    HW139701   3.841   5.175   1.361 -0.0016 -1.2630 -2.0352
13041SOL    HW239702   3.848   5.029   1.400 -0.3233 -0.7138  0.2325
13042SOL     OW39703   1.957   5.817   8.552  0.1348  0.1385  0.5979
13042SOL    HW139704   1.928   5.726   8.552 -1.9109  0.7259  1.8876
13042SOL    HW239705   2.031   5.818   8.491 -0.5424 -2.1220 -0.3892
13043SOL     OW39706   8.206   0.313   2.244  0.6214 -0.2444  0.3219
13043SOL    HW139707   8.150   0.390   2.231  0.4571 -0.3031  0.6788
13043SOL    HW239708   8.282   0.347   2.292  1.8181  0.2235 -1.7660
13044SOL     OW39709   6.611   5.790   6.948 -0.5334  0.1433 -0.6051
13044SOL    HW139710   6.635   5.748   7.031 -1.3224  1.4710  0.3222
13044SOL    HW239711   6.571   5.873   6.973 -0.9694  0.4946 -2.3170
13045SOL     OW39712   5.019   4.891   9.517 -0.3797 -0.2863  0.2955
13045SOL    HW139713   4.970   4.874   9.437 -0.0380 -0.0363  0.0313
13045SOL    HW239714   4.971   4.963   9.559 -0.8037 -0.6967  0.5361
13046SOL     OW39715   0.325   2.994   8.238  0.1950  0.6991 -0.8916
13046SOL    HW139716   0.299   2.932   8.306  2.5111  1.7847  1.1679
13046SOL    HW239717   0.393   2.948   8.189 -0.0612  0.6286 -1.1811
13047SOL     OW39718   0.389   3.128   0.386 -0.5974 -0.4061  0.0837
13047SOL    HW139719   0.305   3.148   0.428 -0.9331 -0.7271 -0.4188
13047SOL    HW239720   0.410   3.208   0.337 -0.2049 -0.0314  0.8473
13048SOL     OW39721   1.584   4.100   1.312  0.5722 -0.2613 -0.0506
13048SOL    HW139722   1.523   4.040   1.270 -1.5026  1.6771  0.0239
13048SOL    HW239723   1.574   4.083   1.406  0.1969 -0.0007 -0.0422
13049SOL     OW39724   5.094   9.934   1.344 -0.0804  0.0461 -0.4356
13049SOL    HW139725   5.167   9.875   1.361 -0.3228 -0.5223 -1.3152
13049SOL    HW239726   5.127  10.020   1.369  0.0481 -0.5168  1.5400
13050SOL     OW39727   0.431   5.614   8.548 -0.5200 -0.3362  0.2234
13050SOL    HW139728   0.480   5.566   8.614  1.1762  0.6490 -0.2393
13050SOL    HW239729   0.366   5.552   8.515  2.2176 -2.7567 -1.1164
13051SOL     OW39730   6.311   1.151   2.637 -0.2049 -0.4587 -0.2626
13051SOL    HW139731   6.279   1.122   2.722  0.0975  0.7549  0.2962
13051SOL    HW239732   6.234   1.155   2.581 -0.4155 -1.1942 -0.0299
13052SOL     OW39733   8.116   2.363   5.852  0.7824  0.2983  0.0469
13052SOL    HW139734   8.049   2.427   5.829  1.4166  1.3565  1.0478
13052SOL    HW239735   8.185   2.376   5.786  0.9284  0.6916  0.2728
13053SOL     OW39736   0.399   4.184   8.700 -0.4426  0.1342 -0.1995
13053SOL    HW139737   0.308   4.199   8.727 -0.9573 -2.3136 -0.3212
13053SOL    HW239738   0.392   4.120   8.629  1.4162 -0.9960  0.5662
13054SOL     OW39739   4.089   8.508   6.759 -0.3699  0.0561  0.3305
13054SOL    HW139740   4.006   8.512   6.807  0.3606  1.8189  1.5764
13054SOL    HW239741   4.066   8.534   6.670 -0.9987  1.8778  0.9735
13055SOL     OW39742   6.561   3.213   9.685 -0.1489 -0.3402 -0.4774
13055SOL    HW139743   6.468   3.230   9.699  0.2131  1.0447  0.5030
13055SOL    HW239744   6.586   3.157   9.758 -0.4655 -1.8421 -1.4750
13056SOL     OW39745   9.229   9.964   7.138  0.2579  0.0288  0.0040
13056SOL    HW139746   9.315   9.927   7.122  0.5212  0.2087  0.9410
13056SOL    HW239747   9.210   9.943   7.230 -0.4106  0.5466 -0.0028
13057SOL     OW39748   5.835   6.345   6.829 -0.0401 -0.3375 -0.1440
13057SOL    HW139749   5.776   6.389   6.768  1.9474  1.0338 -1.2168
13057SOL    HW239750   5.854   6.261   6.789 -1.8845 -1.1991  0.6621
13058SOL     OW39751   9.693   3.699   2.975 -1.0318  0.1175 -0.1024
13058SOL    HW139752   9.610   3.743   2.992 -1.0775 -0.5455  1.5840
13058SOL    HW239753   9.669   3.613   2.942 -0.9520  0.8513 -2.2082
13059SOL     OW39754   9.707   2.609   3.376 -0.5803  0.8790  0.1768
13059SOL    HW139755   9.766   2.535   3.389 -0.0323  1.3926  0.6504
13059SOL    HW239756   9.708   2.657   3.459 -0.5749  1.6689 -0.2676
13060SOL     OW39757   8.719   2.818   2.659  0.8982 -0.4118  0.1525
13060SOL    HW139758   8.734   2.912   2.648  0.8036 -0.3739  0.3494
13060SOL    HW239759   8.789   2.776   2.609  0.0660 -0.2401 -1.2266
13061SOL     OW39760   8.157   5.197   3.767  0.4676  0.0013 -0.2823
13061SOL    HW139761   8.228   5.249   3.806  0.3372 -0.1677  0.1898
13061SOL    HW239762   8.101   5.175   3.841 -0.1821  0.2934 -0.6779
13062SOL     OW39763   0.302   0.066   1.504 -0.7444  0.8258 -0.0318
13062SOL    HW139764   0.305   0.128   1.576  0.8344  0.2987  0.3989
13062SOL    HW239765   0.335   0.115   1.429 -0.1472  0.7054  0.1503
13063SOL     OW39766   9.799   7.340   0.952 -0.0416 -0.5848 -0.0825
13063SOL    HW139767   9.874   7.290   0.920  1.5873  2.6515 -1.8760
13063SOL    HW239768   9.818   7.356   1.044  0.8629 -0.8637 -0.2111
13064SOL     OW39769   6.669   1.430   8.090  0.2925  0.1982 -0.2643
13064SOL    HW139770   6.700   1.442   8.180 -1.8986 -1.7662  0.8764
13064SOL    HW239771   6.717   1.354   8.057 -2.0129 -2.0096  1.0333
13065SOL     OW39772   9.965   4.251   5.095 -0.1216 -0.6381  0.0802
13065SOL    HW139773  10.007   4.335   5.113  0.7008 -0.4454 -2.2833
13065SOL    HW239774   9.915   4.230   5.174 -0.7309  2.2982  0.5692
13066SOL     OW39775   5.732   8.719   1.343 -0.4517 -0.1978 -0.3384
13066SOL    HW139776   5.802   8.684   1.288 -1.5381 -0.8061 -1.3574
13066SOL    HW239777   5.764   8.704   1.433  0.4249 -1.0940 -0.7693
13067SOL     OW39778   6.640   2.084   8.099  0.2316 -0.0411 -0.2095
13067SOL    HW139779   6.663   2.090   8.006 -0.1507  0.5174 -0.2732
13067SOL    HW239780   6.614   2.173   8.123  0.1484 -0.2217  0.3865
13068SOL     OW39781   7.655   0.691   2.575 -0.1866 -0.0696 -0.4232
13068SOL    HW139782   7.718   0.647   2.519  0.5580  0.8641 -0.3452
13068SOL    HW239783   7.627   0.625   2.638  0.5937 -0.5291 -0.5588
13069SOL     OW39784   9.132   3.184   0.828  0.0221 -0.0818 -0.1247
13069SOL    HW139785   9.160   3.096   0.854 -1.7317 -0.7402 -0.3074
13069SOL    HW239786   9.089   3.220   0.905 -1.8682 -0.5805 -0.8776
13070SOL     OW39787   4.297   8.261   7.381  0.0969  0.8663  0.1876
13070SOL    HW139788   4.202   8.263   7.376  0.1642  1.0807 -2.4450
13070SOL    HW239789   4.319   8.317   7.456 -1.8177  0.4854  1.0856
13071SOL     OW39790   7.579   8.010   4.732 -0.2487  0.5726 -0.1380
13071SOL    HW139791   7.670   8.029   4.710  0.4348  0.3688  2.1614
13071SOL    HW239792   7.537   8.095   4.739  0.1683  0.7498  0.2495
13072SOL     OW39793   6.911   8.945   2.337 -0.3973  0.0853 -0.3176
13072SOL    HW139794   6.863   9.004   2.279 -1.3943  0.4098  0.8046
13072SOL    HW239795   6.951   9.003   2.402  0.1569 -0.3282 -0.2815
13073SOL     OW39796   4.711   5.745   5.927 -0.2333  0.0908  0.1213
13073SOL    HW139797   4.625   5.729   5.887 -0.4758  1.6089 -0.0407
13073SOL    HW239798   4.773   5.699   5.872 -0.6564  1.4189 -1.5453
13074SOL     OW39799   8.400   4.633   7.625 -0.0034 -0.2318 -0.1417
13074SOL    HW139800   8.308   4.653   7.643  0.3195 -0.6456  2.4324
13074SOL    HW239801   8.397   4.549   7.579 -0.9262 -0.3609  0.1224
13075SOL     OW39802   4.854   7.829   6.080 -0.3924  0.0379 -0.1589
13075SOL    HW139803   4.918   7.775   6.127 -0.2618  0.8861  0.6786
13075SOL    HW239804   4.891   7.838   5.992 -0.8768 -1.9799 -0.6214
13076SOL     OW39805   5.170   9.715   0.575 -0.5761  0.0296 -0.9007
13076SOL    HW139806   5.215   9.750   0.652 -2.5685  0.6953  0.0130
13076SOL    HW239807   5.206   9.627   0.565 -0.5607 -0.2287  1.0589
13077SOL     OW39808   0.972   5.743   2.113 -0.3209 -0.0813 -0.1682
13077SOL    HW139809   0.958   5.659   2.156 -2.0382 -0.4773 -1.3713
13077SOL    HW239810   0.942   5.808   2.177  1.1574 -0.3431  0.8233
13078SOL     OW39811   0.037   5.365   5.807 -0.3402 -0.1075 -0.3236
13078SOL    HW139812  -0.042   5.357   5.860 -0.9638 -0.2944 -1.2597
13078SOL    HW239813   0.086   5.436   5.848 -1.3051  0.4717 -0.1319
13079SOL     OW39814   4.269   5.818   4.320  0.2766 -0.2303 -0.6191
13079SOL    HW139815   4.297   5.819   4.229  1.0829 -1.6327 -0.4101
13079SOL    HW239816   4.302   5.736   4.355 -0.5466 -0.0061  0.7850
13080SOL     OW39817   4.984   4.996   0.840 -0.2884  0.6376  0.1961
13080SOL    HW139818   5.000   5.032   0.752 -0.2852 -2.6432 -1.3091
13080SOL    HW239819   5.071   4.974   0.873 -0.4547 -1.6763 -0.7303
13081SOL     OW39820   4.786   2.948   8.311 -0.1031  0.2089  0.3951
13081SOL    HW139821   4.797   2.893   8.234 -1.6549  0.2101  0.1496
13081SOL    HW239822   4.732   3.021   8.281  0.8287  1.2013  1.0394
13082SOL     OW39823   9.640   0.317   2.652 -0.5507 -0.2270 -0.1479
13082SOL    HW139824   9.681   0.322   2.566 -0.1009 -0.0803  0.0686
13082SOL    HW239825   9.573   0.386   2.651  1.1317  1.5291  0.4824
13083SOL     OW39826   1.985   7.903   0.132 -0.3860 -0.0563  0.2775
13083SOL    HW139827   2.079   7.882   0.130  0.0226  1.5353  1.1664
13083SOL    HW239828   1.942   7.818   0.145  0.9086 -0.8332 -0.3287
13084SOL     OW39829   1.494   9.420   3.230 -0.3808  0.3555 -0.5223
13084SOL    HW139830   1.461   9.477   3.161 -2.3591 -0.6816 -0.5046
13084SOL    HW239831   1.471   9.331   3.200  0.5588 -0.2719  0.5283
13085SOL     OW39832   1.358   6.739   2.066 -0.2567 -0.7870  0.4708
13085SOL    HW139833   1.425   6.805   2.047 -1.0007 -0.1396  0.0300
13085SOL    HW239834   1.276   6.788   2.068 -0.5923 -1.3528  2.2961
13086SOL     OW39835   4.955   7.791   1.154 -0.0185  0.1228 -0.0107
13086SOL    HW139836   4.976   7.702   1.182 -1.8203 -0.7008 -1.1275
13086SOL    HW239837   4.878   7.815   1.204 -1.7977 -0.4324 -2.3261
13087SOL     OW39838   5.721   3.048   7.800  0.4888  0.0577 -0.2640
13087SOL    HW139839   5.726   3.120   7.738 -1.2738  0.1736 -0.3100
13087SOL    HW239840   5.797   3.060   7.857  1.5336  0.5635 -1.7118
13088SOL     OW39841   8.591   1.951   3.874  0.2678 -0.1492 -0.5147
13088SOL    HW139842   8.547   2.033   3.894 -0.4772 -0.6069 -0.2691
13088SOL    HW239843   8.633   1.925   3.956 -0.4565 -0.5928 -0.2739
13089SOL     OW39844   9.877   6.093   1.419 -0.2506  0.1957 -0.2591
13089SOL    HW139845   9.939   6.165   1.404  0.7883 -0.6129 -0.0044
13089SOL    HW239846   9.810   6.104   1.352  1.2955 -0.1113 -1.9337
13090SOL     OW39847   1.778   1.172   2.298 -0.4104 -0.4297  0.3429
13090SOL    HW139848   1.690   1.143   2.273 -0.8467  1.3377 -0.3148
13090SOL    HW239849   1.775   1.267   2.290  1.7971 -0.3727 -0.4579
13091SOL     OW39850   3.308   8.236   1.675 -0.6812  0.1875 -0.0260
13091SOL    HW139851   3.388   8.284   1.694 -1.3981  1.3331  0.1755
13091SOL    HW239852   3.304   8.230   1.580 -0.3017  0.0082 -0.0322
13092SOL     OW39853   0.882   4.149   5.345  0.3970 -0.2471  0.0918
13092SOL    HW139854   0.786   4.151   5.345  0.3403  0.0323  2.6286
13092SOL    HW239855   0.906   4.222   5.287 -0.9455  0.6164  0.5564
13093SOL     OW39856   9.152   1.881   2.870  0.0252 -0.2654  0.3019
13093SOL    HW139857   9.113   1.904   2.786  0.5301 -0.7917 -0.0861
13093SOL    HW239858   9.119   1.947   2.931  0.7829  0.9972 -0.5982
13094SOL     OW39859   6.028   8.620   5.407  0.0488 -0.1380  0.7459
13094SOL    HW139860   5.994   8.534   5.382  1.6643 -1.1265  1.7905
13094SOL    HW239861   5.987   8.681   5.345 -0.8571 -1.6858 -0.2424
13095SOL     OW39862   6.224   8.775   2.378  0.2716  0.4163  0.2154
13095SOL    HW139863   6.318   8.789   2.386  0.4775 -1.7379  3.2038
13095SOL    HW239864   6.215   8.697   2.323  0.3991 -0.4624  1.3996
13096SOL     OW39865   4.020   4.628   3.246  0.2269 -0.3379  0.8255
13096SOL    HW139866   4.100   4.614   3.296 -1.4294 -1.6747  3.3314
13096SOL    HW239867   3.969   4.688   3.299 -0.2732  0.9265 -0.9965
13097SOL     OW39868   8.097   5.201   1.060 -0.5345 -0.2942 -0.1679
13097SOL    HW139869   8.005   5.175   1.061 -0.4499 -0.6385  0.8959
13097SOL    HW239870   8.097   5.293   1.088 -0.6538  0.1719 -1.6275
13098SOL     OW39871   7.752   0.863   8.497 -0.1748 -0.6395 -0.0590
13098SOL    HW139872   7.764   0.944   8.547 -2.0509 -0.2028 -0.2431
13098SOL    HW239873   7.768   0.889   8.406  0.4281 -0.7786  0.0013
13099SOL     OW39874   1.794   1.606   2.507 -0.1869  0.9785 -0.3345
13099SOL    HW139875   1.838   1.666   2.446  1.2328  1.9937  1.5826
13099SOL    HW239876   1.800   1.650   2.592 -1.3577 -0.7681  0.6983
13100SOL     OW39877   5.922   1.025   5.817 -0.1882  0.5973  0.1392
13100SOL    HW139878   5.879   0.991   5.739  0.6744 -1.0442  0.3433
13100SOL    HW239879   5.861   1.005   5.888 -0.3581  0.8533  0.0666
13101SOL     OW39880   1.290   3.058   1.355 -0.2238  0.0392 -0.4457
13101SOL    HW139881   1.366   3.115   1.359 -0.8201  0.8442 -0.2804
13101SOL    HW239882   1.315   2.981   1.406  0.1877  0.6546  0.3193
13102SOL     OW39883   4.915   9.129   0.883  0.1735  0.0103 -0.2119
13102SOL    HW139884   5.006   9.159   0.888  0.6131 -1.3138  0.4289
13102SOL    HW239885   4.921   9.043   0.842 -0.4362 -1.3053  2.2630
13103SOL     OW39886   2.807   4.241   0.168  0.2605  0.7999  0.4199
13103SOL    HW139887   2.727   4.285   0.198  0.6368  0.7152  1.6232
13103SOL    HW239888   2.779   4.153   0.143 -0.2413  1.2143 -0.5290
13104SOL     OW39889   0.687   1.330   8.127 -0.0313 -0.1249  0.0169
13104SOL    HW139890   0.775   1.301   8.149 -0.0855  0.5405  1.1706
13104SOL    HW239891   0.630   1.282   8.188 -0.2832  0.9338  0.6373
13105SOL     OW39892   2.146   5.980   2.905  0.2127  0.4186 -0.4551
13105SOL    HW139893   2.107   5.916   2.966  0.4092  1.0901  0.3983
13105SOL    HW239894   2.147   6.062   2.954  0.8828  0.8558 -1.1786
13106SOL     OW39895   0.882   4.074   0.423  0.2066  0.2425  0.4231
13106SOL    HW139896   0.969   4.052   0.388  0.1782  0.7804  0.0002
13106SOL    HW239897   0.875   4.022   0.503 -0.4625 -2.5150 -1.2726
13107SOL     OW39898   6.284   2.839   6.019  0.1017  0.6947 -0.1028
13107SOL    HW139899   6.190   2.847   6.004 -0.4236 -0.6108  2.1444
13107SOL    HW239900   6.295   2.853   6.113  2.0926  0.2398 -0.2210
13108SOL     OW39901   5.297   0.072   6.743  0.0208  0.4999  0.0369
13108SOL    HW139902   5.329   0.085   6.832 -0.7361 -0.0747  0.4040
13108SOL    HW239903   5.222   0.132   6.735  1.2647  1.9962 -0.8879
13109SOL     OW39904   7.890   7.600   2.324  0.3185  0.9250  0.2790
13109SOL    HW139905   7.796   7.584   2.318  0.7690 -2.1525 -0.3459
13109SOL    HW239906   7.930   7.533   2.268  2.9410  0.9102  1.9556
13110SOL     OW39907   9.367   9.833   5.113  0.1519 -0.2061  0.3923
13110SOL    HW139908   9.309   9.898   5.073 -1.6289 -0.8412  1.7830
13110SOL    HW239909   9.433   9.815   5.046 -0.6119  1.3689 -0.8550
13111SOL     OW39910   8.702   3.401   0.301  0.0132 -0.7741  0.6116
13111SOL    HW139911   8.609   3.421   0.314  0.0727 -0.7255  0.9967
13111SOL    HW239912   8.746   3.442   0.376  0.5972  1.0309 -0.6485
13112SOL     OW39913   9.232   7.100   8.466  0.5717  0.5846 -0.1073
13112SOL    HW139914   9.299   7.037   8.492 -1.8243 -1.8373  0.7332
13112SOL    HW239915   9.280   7.181   8.448  3.7545 -1.2540 -0.5441
13113SOL     OW39916   4.080   3.502   6.991  0.1633  0.4409  0.3086
13113SOL    HW139917   4.058   3.418   6.950 -1.0991  0.2630  1.2754
13113SOL    HW239918   4.172   3.516   6.969 -0.8956  1.5565 -4.6645
13114SOL     OW39919   6.188   0.554   5.584 -0.8105 -0.3752  0.4061
13114SOL    HW139920   6.214   0.638   5.546 -0.4003  0.2468  1.9852
13114SOL    HW239921   6.180   0.571   5.678 -0.2358 -2.2199  0.8429
13115SOL     OW39922   4.728   7.416   5.121  0.1720  0.1581  0.2608
13115SOL    HW139923   4.764   7.329   5.135 -0.0672  0.1184  0.6185
13115SOL    HW239924   4.766   7.444   5.037  1.5919  0.3983  0.9610
13116SOL     OW39925   6.291   3.792   0.219  0.1336  0.0498  0.2269
13116SOL    HW139926   6.315   3.739   0.142 -0.7025 -1.2985  0.8420
13116SOL    HW239927   6.317   3.881   0.197 -0.8041 -0.1539 -1.9685
13117SOL     OW39928   4.159   4.032   0.473 -0.0174 -0.3212 -0.3519
13117SOL    HW139929   4.122   4.059   0.389 -1.0639 -0.8586 -0.0721
13117SOL    HW239930   4.130   4.098   0.535  1.5061  0.5798 -0.5494
13118SOL     OW39931   7.901   2.381   0.739  0.4494  0.2777 -0.4987
13118SOL    HW139932   7.880   2.373   0.646 -2.3561  0.6823  0.0344
13118SOL    HW239933   7.817   2.376   0.784  1.6483  0.8723  1.9889
13119SOL     OW39934   6.747   5.444   6.268  0.0541  0.3911 -0.2497
13119SOL    HW139935   6.683   5.418   6.201  0.6580 -1.7788 -0.0689
13119SOL    HW239936   6.824   5.392   6.249  1.1950  1.7035  0.5731
13120SOL     OW39937   1.989   4.591   5.715 -0.5826 -0.6074 -0.3528
13120SOL    HW139938   2.006   4.647   5.640  0.7749 -0.4310  0.0510
13120SOL    HW239939   1.966   4.651   5.786 -0.9097 -0.6956 -0.3859
13121SOL     OW39940   6.939   0.123   1.695 -0.2993  0.3485 -0.2851
13121SOL    HW139941   6.971   0.078   1.773 -0.3874 -0.2737 -0.6035
13121SOL    HW239942   6.844   0.114   1.700 -0.3553  0.9827 -0.0678
13122SOL     OW39943   5.484   8.330   2.199  0.0907 -0.1174 -1.0133
13122SOL    HW139944   5.468   8.256   2.140  0.1817 -0.9054 -0.0790
13122SOL    HW239945   5.414   8.325   2.264  1.4421 -0.8959  0.4865
13123SOL     OW39946   9.374   8.980   7.239 -0.3475  0.2791 -0.4015
13123SOL    HW139947   9.380   9.075   7.226 -0.0266  0.2260 -0.6454
13123SOL    HW239948   9.426   8.943   7.168 -0.5883 -0.0853 -0.3907
13124SOL     OW39949   0.303   5.633   5.680  0.1169  0.0568 -0.4166
13124SOL    HW139950   0.379   5.605   5.732  0.6552  2.4525  0.1941
13124SOL    HW239951   0.330   5.620   5.589  0.6587 -0.5286 -0.1820
13125SOL     OW39952   9.854   1.045   2.278 -0.0172  0.5819  0.3758
13125SOL    HW139953   9.904   0.976   2.322  1.5973  1.6624  0.3270
13125SOL    HW239954   9.906   1.125   2.293 -1.6181  1.7172  0.0925
13126SOL     OW39955   7.863   0.028   7.702  0.4223  0.2001 -0.7384
13126SOL    HW139956   7.921  -0.000   7.632  1.4747  0.0079  0.1817
13126SOL    HW239957   7.920   0.038   7.778 -0.5412  1.2439 -0.1168
13127SOL     OW39958   7.957   6.572   3.691  0.4527 -0.2060 -0.3375
13127SOL    HW139959   8.024   6.614   3.745 -0.3067  0.7448 -0.1086
13127SOL    HW239960   7.906   6.520   3.753  0.4429 -0.2260 -0.3629
13128SOL     OW39961   5.822   6.077   0.721  0.3751  0.5083 -0.9823
13128SOL    HW139962   5.798   6.107   0.808  1.5568 -0.0016 -0.4539
13128SOL    HW239963   5.819   6.156   0.667  0.3923  0.9798 -0.3041
13129SOL     OW39964   9.532   1.071   7.708  0.2721  0.4331 -0.1011
13129SOL    HW139965   9.512   1.164   7.719  0.6893  0.4146  0.9423
13129SOL    HW239966   9.511   1.032   7.793  1.9948 -0.0743  0.1339
13130SOL     OW39967   4.844   1.873   7.001  0.1508  0.3472  0.3153
13130SOL    HW139968   4.761   1.921   7.006  0.7446  1.3409  0.9247
13130SOL    HW239969   4.838   1.807   7.070 -0.4956 -0.1996 -0.2464
13131SOL     OW39970   2.433   4.203   9.155 -0.7977  0.0245 -0.3979
13131SOL    HW139971   2.501   4.264   9.126 -0.6604 -0.2605 -0.6941
13131SOL    HW239972   2.366   4.207   9.087  0.3367 -1.9635 -1.7428
13132SOL     OW39973   8.800   3.747   2.718  0.7681  0.0857 -0.1141
13132SOL    HW139974   8.720   3.795   2.700  0.4524 -0.7803 -1.1674
13132SOL    HW239975   8.850   3.803   2.778 -0.5668  0.6797  0.4764
13133SOL     OW39976   9.391   2.328   5.458 -0.4040 -0.2036 -0.4291
13133SOL    HW139977   9.451   2.258   5.432  0.4364  0.6088 -0.7441
13133SOL    HW239978   9.407   2.397   5.394 -3.4093 -0.8215 -2.0337
13134SOL     OW39979   3.441   4.002   6.652  0.1690  0.2990  0.0170
13134SOL    HW139980   3.411   3.945   6.724 -1.2414 -1.5169 -1.8913
13134SOL    HW239981   3.425   4.091   6.685 -1.8474 -0.4859  1.4236
13135SOL     OW39982   0.374   2.142   2.858  0.2405  0.3949  0.2144
13135SOL    HW139983   0.451   2.152   2.914  0.5193  0.0738 -0.1161
13135SOL    HW239984   0.312   2.206   2.893  1.1218  1.5979 -0.3217
13136SOL     OW39985   0.919   3.196   0.778  0.0217 -0.4363 -0.1906
13136SOL    HW139986   1.003   3.158   0.750 -0.3636 -1.7030  0.2885
13136SOL    HW239987   0.910   3.276   0.726  1.0492 -0.8181 -0.9921
13137SOL     OW39988   2.268   4.753   7.495  0.0520  0.4678  0.5071
13137SOL    HW139989   2.203   4.814   7.530 -1.5020 -0.5559 -0.5396
13137SOL    HW239990   2.237   4.667   7.521  1.2231 -0.0321  0.3192
13138SOL     OW39991  -0.004   1.727   7.806 -0.0013  0.4100  0.1398
13138SOL    HW139992  -0.017   1.765   7.893  2.0231  0.3674  0.5160
13138SOL    HW239993   0.065   1.780   7.767 -2.1256  1.6576 -2.2641
13139SOL     OW39994   3.727   6.787   3.412  0.1298 -0.0215 -0.3105
13139SOL    HW139995   3.701   6.847   3.342 -0.7828  0.1452  0.1585
13139SOL    HW239996   3.654   6.789   3.473  0.9544 -0.0803  0.7018
13140SOL     OW39997   3.992   0.373   8.572  0.4309 -0.0059  0.5078
13140SOL    HW139998   4.057   0.442   8.588  0.2875 -0.2293  2.1508
13140SOL    HW239999   3.975   0.335   8.658 -0.9521 -0.7930 -0.0798
13141SOL     OW40000   8.898   5.171   0.924 -0.4768 -0.5226 -0.4945
13141SOL    HW140001   8.972   5.215   0.883  0.5486 -2.1156 -0.4421
13141SOL    HW240002   8.874   5.228   0.997 -0.7679  1.1283 -1.8141
13142SOL     OW40003   5.052   7.026   6.867  0.8677 -0.0143  0.7315
13142SOL    HW140004   5.050   7.079   6.947  1.1750  0.1491  0.6330
13142SOL    HW240005   4.963   7.030   6.834  1.2028  1.6379 -0.0448
13143SOL     OW40006   1.911   1.064   3.415  0.0722 -0.0568 -0.0523
13143SOL    HW140007   1.936   1.098   3.501  1.3941 -0.8804 -0.0688
13143SOL    HW240008   1.908   1.141   3.359  0.6088  0.3347  0.4330
13144SOL     OW40009   1.315   1.122   4.108  0.5733 -0.0471  0.3694
13144SOL    HW140010   1.325   1.040   4.157 -0.0297 -0.1723  0.3024
13144SOL    HW240011   1.332   1.191   4.171  1.0411 -0.2272  0.4397
13145SOL     OW40012   2.686   7.181   5.217 -0.2328  0.3133  0.3107
13145SOL    HW140013   2.746   7.190   5.143  0.5386 -0.4499  0.8225
13145SOL    HW240014   2.625   7.254   5.208  1.0890  1.4252  0.0561
13146SOL     OW40015   7.087   6.283   8.768  0.3983  0.3580  0.1179
13146SOL    HW140016   7.066   6.256   8.679 -0.3008 -0.9670  0.6569
13146SOL    HW240017   7.056   6.373   8.775  1.7709  1.0012 -1.4009
13147SOL     OW40018   0.429   2.573   3.144  0.0025  0.0076  0.0943
13147SOL    HW140019   0.334   2.563   3.157  0.0051 -2.0265 -1.0241
13147SOL    HW240020   0.443   2.667   3.141 -2.0668  0.3592 -0.2038
13148SOL     OW40021   6.513   1.764   4.726 -0.3289  0.3334  0.1733
13148SOL    HW140022   6.470   1.739   4.807  0.3513 -1.5770 -0.0002
13148SOL    HW240023   6.442   1.770   4.662 -0.5465 -1.6159  0.1596
13149SOL     OW40024   2.715   4.719   4.488  0.2127 -0.4553 -0.0987
13149SOL    HW140025   2.718   4.796   4.544 -0.9393 -1.3944  1.3382
13149SOL    HW240026   2.688   4.751   4.402  1.1313  0.8905  0.0855
13150SOL     OW40027   9.780   7.359   7.015 -0.1640 -0.4279 -0.3347
13150SOL    HW140028   9.690   7.384   7.035 -0.8303 -2.1588 -0.9576
13150SOL    HW240029   9.826   7.442   7.002 -1.4209  0.5145  0.9425
13151SOL     OW40030   4.344   3.992   7.571 -0.0035 -0.6558 -0.3169
13151SOL    HW140031   4.407   3.920   7.572  1.7538  0.5495  4.6219
13151SOL    HW240032   4.392   4.065   7.532  0.5651 -0.5503  0.5641
13152SOL     OW40033   3.749   4.003   4.480 -0.4485 -0.0726 -0.4942
13152SOL    HW140034   3.723   3.977   4.391 -3.7884  1.1526 -0.0188
13152SOL    HW240035   3.704   4.086   4.495  2.1521  1.1430  1.4709
13153SOL     OW40036   6.225   8.516   9.667 -0.5500 -0.3592  0.5314
13153SOL    HW140037   6.307   8.490   9.709 -1.1161 -1.7008  0.8680
13153SOL    HW240038   6.183   8.576   9.729 -0.5647 -0.9483  1.0998
13154SOL     OW40039   3.879   4.447   9.899 -0.0654  0.0442  0.5524
13154SOL    HW140040   3.968   4.428   9.926  0.9346  2.1392 -1.0045
13154SOL    HW240041   3.870   4.542   9.910 -2.2353 -0.1499  0.9743
13155SOL     OW40042   7.703   0.299   9.013  0.3669 -0.2261 -0.6388
13155SOL    HW140043   7.675   0.384   8.979  1.4498  0.5483  0.3010
13155SOL    HW240044   7.798   0.308   9.023  0.3546 -1.1778  0.5092
13156SOL     OW40045   3.034   3.016   5.663 -0.4824 -0.3007  0.8010
13156SOL    HW140046   3.032   3.095   5.716 -1.1468 -0.7473  1.4527
13156SOL    HW240047   2.943   2.986   5.659 -1.0261  1.2690 -3.0171
13157SOL     OW40048   5.353   9.819   1.465  0.4643 -0.3941 -0.0206
13157SOL    HW140049   5.361   9.874   1.542  0.2874 -1.1251  0.5252
13157SOL    HW240050   5.438   9.777   1.456 -0.2551 -2.1995  1.2363
13158SOL     OW40051   7.532   8.362   7.189  0.7020 -0.1792  0.1640
13158SOL    HW140052   7.447   8.351   7.147 -0.5096 -2.0583  2.7812
13158SOL    HW240053   7.515   8.415   7.267  2.6025  2.1539 -0.8888
13159SOL     OW40054   9.260   3.015   7.349 -0.3112  0.3241  0.0754
13159SOL    HW140055   9.233   3.012   7.257 -0.6226  0.2210  0.1682
13159SOL    HW240056   9.317   3.092   7.355  2.8639 -1.7398 -1.0277
13160SOL     OW40057   4.568   3.125   2.575 -0.3148 -0.1414 -0.0496
13160SOL    HW140058   4.523   3.041   2.567 -1.0463  0.3908 -2.5898
13160SOL    HW240059   4.520   3.171   2.644 -1.2341 -1.0445 -0.0533
13161SOL     OW40060   1.195   3.996   0.908 -0.6915 -0.3183 -0.4430
13161SOL    HW140061   1.122   4.044   0.947 -0.6962 -0.2662 -0.5146
13161SOL    HW240062   1.166   3.906   0.904 -0.8582 -0.2541 -0.7189
13162SOL     OW40063   0.755   2.314   5.252 -0.2986 -0.0599 -0.6078
13162SOL    HW140064   0.700   2.296   5.327  2.3627  1.2831  1.8691
13162SOL    HW240065   0.751   2.409   5.241  1.1013  0.0196 -0.6450
13163SOL     OW40066   7.504   2.323   8.226  0.3588 -0.4201 -0.3020
13163SOL    HW140067   7.478   2.390   8.289 -2.0372 -1.0982 -0.4878
13163SOL    HW240068   7.422   2.288   8.192  1.4930  0.4590 -4.4984
13164SOL     OW40069   1.542   1.536   0.988  0.5796 -0.3006 -0.1620
13164SOL    HW140070   1.531   1.598   0.916 -0.6329 -1.4838 -1.0563
13164SOL    HW240071   1.634   1.541   1.011  0.1403  3.7980  1.6762
13165SOL     OW40072   3.025   9.917   4.088  0.2325  0.1737 -0.7654
13165SOL    HW140073   2.952   9.856   4.080 -0.5254  1.0797 -0.9415
13165SOL    HW240074   3.056   9.906   4.178  0.4842 -0.8686 -0.9670
13166SOL     OW40075   1.915   0.890   6.595  0.1769 -0.0978  0.4617
13166SOL    HW140076   1.820   0.897   6.586 -0.3092 -3.8359  1.4515
13166SOL    HW240077   1.932   0.911   6.687 -0.3996 -3.7668  1.5432
13167SOL     OW40078   8.143   0.431   3.862  0.1540  0.1157  0.0791
13167SOL    HW140079   8.049   0.450   3.856  0.3978  0.9049 -1.6180
13167SOL    HW240080   8.185   0.500   3.810  1.3962 -2.4581 -2.5813
13168SOL     OW40081   9.697   5.915   4.668 -0.6574 -0.0519  0.1290
13168SOL    HW140082   9.669   5.832   4.629 -0.5421 -1.0686  2.0836
13168SOL    HW240083   9.792   5.914   4.662 -0.5656 -0.7166  1.3101
13169SOL     OW40084   8.237   3.874   3.285  0.2918 -0.1771  0.2239
13169SOL    HW140085   8.214   3.882   3.192  1.6721 -0.7161 -0.1829
13169SOL    HW240086   8.219   3.783   3.307  0.4212 -0.1733  0.3488
13170SOL     OW40087   3.241   7.616   0.965 -0.0050 -0.0278  0.4920
13170SOL    HW140088   3.150   7.612   0.936 -0.2178  1.6056  0.8426
13170SOL    HW240089   3.257   7.531   1.006 -2.2875  0.5994  2.9544
13171SOL     OW40090   1.814   5.750   4.964 -0.2716  0.8446  0.2988
13171SOL    HW140091   1.728   5.717   4.988 -0.0688 -1.4282 -1.7253
13171SOL    HW240092   1.809   5.765   4.870  1.5035  0.7383  0.1412
13172SOL     OW40093   2.659   3.642   4.984  0.1405  0.1278  0.1280
13172SOL    HW140094   2.698   3.713   5.035 -0.9549  0.4656  0.5429
13172SOL    HW240095   2.570   3.635   5.019  0.2572 -1.5094  0.1391
13173SOL     OW40096   9.551   8.786   9.915  0.5435  0.8145  0.1762
13173SOL    HW140097   9.513   8.795  10.002  2.1058 -0.8282  1.1089
13173SOL    HW240098   9.577   8.875   9.891  0.1489  1.2925  1.4151
13174SOL     OW40099   6.763   7.845   9.955 -0.1839  0.5282  0.3524
13174SOL    HW140100   6.690   7.851   9.894 -1.2150  1.8055  1.6717
13174SOL    HW240101   6.723   7.830  10.040  1.2018 -0.6030  0.8668
13175SOL     OW40102   1.833   3.238   6.073 -0.2412 -0.1965  0.2257
13175SOL    HW140103   1.880   3.159   6.101  1.7651  0.9394  0.3155
13175SOL    HW240104   1.753   3.238   6.125 -0.0825 -1.9323  0.5333
13176SOL     OW40105   9.567   0.218   4.249  0.4691 -0.1914 -0.0832
13176SOL    HW140106   9.618   0.166   4.311 -2.4840 -2.4103  0.7006
13176SOL    HW240107   9.568   0.167   4.168  1.6838  1.1300 -0.9498
13177SOL     OW40108   7.385   5.795   1.425  0.0482 -0.0964 -0.3995
13177SOL    HW140109   7.452   5.835   1.370  0.2097  0.0364 -0.1045
13177SOL    HW240110   7.347   5.868   1.474 -1.6690  0.1473 -1.9869
13178SOL     OW40111   5.143   7.982   2.437  0.2506 -0.1590  0.7201
13178SOL    HW140112   5.169   7.951   2.524 -0.3958  0.3770  1.1176
13178SOL    HW240113   5.048   7.970   2.435  0.3820 -1.1760 -0.3333
13179SOL     OW40114   4.722   6.964   9.833  0.0075  0.4060 -0.0572
13179SOL    HW140115   4.636   6.923   9.829 -0.7688  2.0005 -0.8479
13179SOL    HW240116   4.708   7.042   9.887  1.5720 -0.6386  1.9410
13180SOL     OW40117   5.607   2.501  -0.004 -0.3498 -0.1780  0.3077
13180SOL    HW140118   5.651   2.459   0.070  1.8969 -0.1231 -0.8775
13180SOL    HW240119   5.679   2.541  -0.054 -2.1362  3.2838  0.2274
13181SOL     OW40120   9.355   9.521   0.132  0.3957  0.2353 -0.3543
13181SOL    HW140121   9.304   9.496   0.055 -1.0698 -2.2164  1.2987
13181SOL    HW240122   9.414   9.447   0.147  1.0701  0.9284  0.5966
13182SOL     OW40123   7.914   3.597   0.219  0.3432  0.9035  0.2146
13182SOL    HW140124   7.824   3.602   0.253 -0.5793 -1.0763 -1.6756
13182SOL    HW240125   7.946   3.512   0.249  0.6650  0.5171 -1.1883
13183SOL     OW40126   7.649   3.313   2.527 -0.1018  0.0263 -0.8573
13183SOL    HW140127   7.681   3.402   2.514  0.0018  0.3036  0.9653
13183SOL    HW240128   7.628   3.282   2.440  0.5549  1.5751 -1.6102
13184SOL     OW40129   8.233   7.531   7.553  0.4097  0.7017  0.6139
13184SOL    HW140130   8.187   7.581   7.620 -3.7211 -1.5154 -0.2765
13184SOL    HW240131   8.254   7.448   7.596  0.1430  0.2713 -0.0800
13185SOL     OW40132   4.465   6.010   3.405 -0.2278 -0.5233  0.4555
13185SOL    HW140133   4.412   5.932   3.424 -0.2046 -0.2296  1.9015
13185SOL    HW240134   4.406   6.083   3.425 -0.5140 -0.1322 -1.6525
13186SOL     OW40135   5.320   1.713   2.509  0.4394 -0.1702 -0.1304
13186SOL    HW140136   5.332   1.761   2.591  0.2010 -1.8418  0.9478
13186SOL    HW240137   5.333   1.778   2.441  2.2777  0.9582  1.1911
13187SOL     OW40138   1.392   1.749   1.414  0.6145 -0.2790  0.0621
13187SOL    HW140139   1.334   1.776   1.485  0.3759 -0.6554  0.0126
13187SOL    HW240140   1.436   1.829   1.386  1.1396 -0.2206  1.0244
13188SOL     OW40141   4.889   4.741   0.460 -0.0906 -0.1918  0.0790
13188SOL    HW140142   4.893   4.737   0.364 -0.0559  1.4844 -0.0123
13188SOL    HW240143   4.816   4.800   0.478  0.4608  0.1968  1.0721
13189SOL     OW40144   6.291   8.688   4.621  0.6657  0.2301 -0.3038
13189SOL    HW140145   6.252   8.774   4.603 -0.9875 -0.6150 -1.0375
13189SOL    HW240146   6.312   8.653   4.534 -0.7489 -0.9750 -0.2170
13190SOL     OW40147   7.162   5.041   9.051 -0.1787  0.8387  0.0625
13190SOL    HW140148   7.135   5.024   9.141 -0.1060  1.7959  0.2792
13190SOL    HW240149   7.179   4.954   9.014  0.2327  0.4600  1.1026
13191SOL     OW40150   4.694   2.055   1.679  0.1640 -0.4831  0.4585
13191SOL    HW140151   4.749   1.985   1.643 -0.3127 -0.1073 -1.0374
13191SOL    HW240152   4.608   2.040   1.641 -0.1403  0.4600  0.7666
13192SOL     OW40153   7.655   9.518   3.132  0.1754  0.1521  0.0251
13192SOL    HW140154   7.734   9.547   3.177  1.2419 -2.1843 -0.1922
13192SOL    HW240155   7.684   9.501   3.042 -0.0699 -2.4546  0.3713
13193SOL     OW40156   5.586   2.351   2.375  0.8564  0.2685  0.0793
13193SOL    HW140157   5.553   2.393   2.295  0.8585  2.2311  1.0724
13193SOL    HW240158   5.537   2.269   2.380 -2.5250  2.1464  0.4547
13194SOL     OW40159   8.758   8.542   8.568 -0.4374 -0.0050  0.5806
13194SOL    HW140160   8.722   8.503   8.647 -0.1239 -0.6305  0.4282
13194SOL    HW240161   8.798   8.468   8.522  1.8843  0.7759  1.2099
13195SOL     OW40162   7.672   9.455   4.790  0.3853  0.1353  0.5068
13195SOL    HW140163   7.744   9.513   4.765 -1.4778  1.8921 -1.1415
13195SOL    HW240164   7.640   9.491   4.874  0.7752 -0.0222  0.7239
13196SOL     OW40165   2.806   4.154   6.981  0.0894 -0.4108 -0.3550
13196SOL    HW140166   2.816   4.246   6.955 -0.4069 -0.2739 -0.0760
13196SOL    HW240167   2.749   4.116   6.914 -0.4968 -0.2694  0.0557
13197SOL     OW40168   1.485   7.338   8.542  0.3009 -0.4933 -0.2617
13197SOL    HW140169   1.529   7.319   8.625  1.1622  0.3285 -0.5135
13197SOL    HW240170   1.448   7.425   8.554  1.4239  0.1348 -1.1105
13198SOL     OW40171   5.636   8.302   9.383  0.0988 -0.1710 -0.5835
13198SOL    HW140172   5.567   8.348   9.335  1.0623  0.9797 -0.9211
13198SOL    HW240173   5.704   8.286   9.318  0.3788 -0.8353 -0.1402
13199SOL     OW40174   6.782   0.551   4.626 -0.2208 -1.1324  0.1626
13199SOL    HW140175   6.843   0.624   4.633  0.6777 -1.9753  1.3129
13199SOL    HW240176   6.818   0.496   4.557 -1.6273  0.1174 -1.7099
13200SOL     OW40177   8.631   2.664   4.973  0.1505 -0.1099 -0.2070
13200SOL    HW140178   8.552   2.634   4.928  0.2680  0.4427 -0.7971
13200SOL    HW240179   8.639   2.607   5.049 -0.4700 -0.5728 -0.4862
13201SOL     OW40180   1.480   4.382   8.233 -0.3940 -0.7435 -0.0516
13201SOL    HW140181   1.431   4.459   8.261 -0.1281  0.1836 -1.9378
13201SOL    HW240182   1.427   4.345   8.161  1.4366  0.1319 -1.9541
13202SOL     OW40183   4.621   7.803   2.350 -0.7134  0.4794 -0.1359
13202SOL    HW140184   4.677   7.876   2.377 -1.0623  0.5196  0.5148
13202SOL    HW240185   4.668   7.761   2.278 -0.5026  1.3388 -0.5049
13203SOL     OW40186   5.213   4.595   1.346  0.1373 -0.7133  0.2151
13203SOL    HW140187   5.126   4.594   1.386  0.6696 -0.9462  1.4144
13203SOL    HW240188   5.268   4.641   1.410  0.7966 -0.0852 -0.7692
13204SOL     OW40189   2.725   2.888   6.762  0.2422 -0.5368 -0.5402
13204SOL    HW140190   2.661   2.955   6.736 -0.7058 -1.2546 -0.1242
13204SOL    HW240191   2.756   2.915   6.848 -0.6649 -0.9761 -0.0606
13205SOL     OW40192   5.318   7.262   1.939 -0.2663  0.5974  0.3746
13205SOL    HW140193   5.392   7.272   2.001  1.2754  0.5265 -1.3727
13205SOL    HW240194   5.247   7.313   1.979  1.1891  1.9246  1.4312
13206SOL     OW40195   7.897   5.273   0.138  0.9140  0.3025  0.1908
13206SOL    HW140196   7.988   5.252   0.116  1.5746  1.7987  1.3106
13206SOL    HW240197   7.851   5.274   0.054  2.0471  0.0420 -0.4468
13207SOL     OW40198   3.351   0.676   2.542  0.0433 -0.1442  0.3168
13207SOL    HW140199   3.430   0.646   2.496  0.2819  2.5788 -1.2773
13207SOL    HW240200   3.352   0.628   2.625  0.7475 -3.7673 -1.5538
13208SOL     OW40201   3.408   3.509   4.769  0.3101  0.0390 -0.1021
13208SOL    HW140202   3.358   3.532   4.691  0.7352  0.1807 -0.3368
13208SOL    HW240203   3.420   3.415   4.763  1.2872  0.1911 -0.7883
13209SOL     OW40204   2.277   7.717   6.056 -0.0087 -0.1302  0.1001
13209SOL    HW140205   2.351   7.672   6.097 -0.2774 -1.2390 -0.5880
13209SOL    HW240206   2.310   7.745   5.971 -0.6523 -1.5467 -0.6475
13210SOL     OW40207   0.291   8.562   6.014 -0.0710  0.0855 -0.3252
13210SOL    HW140208   0.353   8.518   6.074  0.7139  1.8821  0.2506
13210SOL    HW240209   0.213   8.576   6.067 -0.4177 -0.8245 -0.5879
13211SOL     OW40210   1.694   6.293   7.806  0.5251  0.1347  0.3812
13211SOL    HW140211   1.632   6.366   7.805  1.0852  0.6445 -1.1836
13211SOL    HW240212   1.772   6.329   7.763  0.0896 -1.9766 -2.4032
13212SOL     OW40213   8.015   5.322   2.117 -0.4796 -0.0959 -0.2065
13212SOL    HW140214   8.073   5.394   2.143 -0.6394  0.6839 -1.9208
13212SOL    HW240215   7.943   5.326   2.181 -0.1546  0.8343  0.1211
13213SOL     OW40216   6.432   0.216   5.453 -0.0003 -0.1977 -0.3731
13213SOL    HW140217   6.355   0.175   5.491 -0.3754  0.2120 -0.6798
13213SOL    HW240218   6.402   0.250   5.369  0.5134 -0.0287 -0.4900
13214SOL     OW40219   3.090   9.123   0.878 -0.3102  0.4759  0.1506
13214SOL    HW140220   3.183   9.121   0.855 -0.7456 -0.8384 -1.7825
13214SOL    HW240221   3.051   9.182   0.813 -0.9752  0.0940  0.2004
13215SOL     OW40222   8.972   9.635   9.295  0.1338 -0.0464  0.0318
13215SOL    HW140223   8.985   9.589   9.212 -0.8740 -0.1504 -0.0798
13215SOL    HW240224   9.057   9.634   9.337  0.5389 -0.4319 -0.7833
13216SOL     OW40225   1.474   3.240   3.353 -0.0858 -0.0856  0.1785
13216SOL    HW140226   1.403   3.265   3.294  0.1384 -0.3208 -0.1949
13216SOL    HW240227   1.502   3.322   3.393 -0.2175  0.0818 -0.0672
13217SOL     OW40228   0.487   3.029   0.820  0.0620  0.3891  0.1001
13217SOL    HW140229   0.474   2.945   0.864  1.0100  0.5931  0.7898
13217SOL    HW240230   0.567   3.064   0.858  1.0095  0.5146 -1.8921
13218SOL     OW40231   8.655   5.220   1.878  0.6349 -0.1785 -0.3062
13218SOL    HW140232   8.646   5.126   1.888 -0.3293 -0.1459 -0.7405
13218SOL    HW240233   8.683   5.232   1.787 -0.6607  0.0079 -0.7014
13219SOL     OW40234   2.182   8.373   5.315  0.0904  0.0213 -0.5404
13219SOL    HW140235   2.136   8.435   5.371  0.5975  0.6044 -0.7522
13219SOL    HW240236   2.186   8.417   5.229 -0.8530 -0.9375 -1.0994
13220SOL     OW40237   4.893   5.846   7.604  0.0677 -0.6273  0.3031
13220SOL    HW140238   4.865   5.929   7.565 -0.5092  0.0371  2.0376
13220SOL    HW240239   4.813   5.810   7.642  0.8971 -0.3040  2.4866
13221SOL     OW40240   7.419   2.451   1.825  0.1535 -0.4568 -0.4469
13221SOL    HW140241   7.514   2.452   1.833  0.2249  0.3429 -1.1859
13221SOL    HW240242   7.394   2.360   1.838  0.6711 -0.2308  3.1770
13222SOL     OW40243   4.630   2.939   9.433 -0.3134  0.0651 -0.1196
13222SOL    HW140244   4.601   3.029   9.414  1.6679  0.5016 -1.3587
13222SOL    HW240245   4.549   2.892   9.454 -1.4399  2.0512  0.2625
13223SOL     OW40246   6.369   8.503   1.914  0.6820 -0.4343 -0.2840
13223SOL    HW140247   6.279   8.484   1.885  0.1964  0.9072  0.2575
13223SOL    HW240248   6.366   8.595   1.942  2.1615 -0.4558  0.0166
13224SOL     OW40249   9.865   7.583   4.454  0.0346  0.3069 -0.1023
13224SOL    HW140250   9.799   7.534   4.406 -0.2463 -0.8983  1.4241
13224SOL    HW240251   9.882   7.530   4.532  1.9054  1.2050  0.1535
13225SOL     OW40252   1.673   0.513   2.580 -0.2587  0.3682 -0.0988
13225SOL    HW140253   1.627   0.429   2.580  0.5984 -0.1319 -1.3158
13225SOL    HW240254   1.674   0.539   2.488  0.4867  1.1540  0.1232
13226SOL     OW40255   3.542   3.954   1.562 -0.4650 -0.2655 -0.1814
13226SOL    HW140256   3.602   3.990   1.627  0.5420  0.4293 -1.4470
13226SOL    HW240257   3.494   4.029   1.529  0.5804 -0.2449 -1.7618
13227SOL     OW40258   9.308   4.464   1.672  0.1609  0.3179  0.2232
13227SOL    HW140259   9.268   4.380   1.650 -0.2470  0.0566  1.8104
13227SOL    HW240260   9.295   4.518   1.594  0.3144 -1.0331 -0.7820
13228SOL     OW40261   2.264   5.746   3.657  0.2059 -0.3434  0.5075
13228SOL    HW140262   2.303   5.759   3.744  0.6042  1.0820  0.1385
13228SOL    HW240263   2.177   5.786   3.663 -0.1816 -1.1789  0.5500
13229SOL     OW40264   7.802   9.401   2.667  0.0029 -0.9985 -0.4278
13229SOL    HW140265   7.780   9.484   2.624 -0.8174  0.0626  1.8795
13229SOL    HW240266   7.897   9.395   2.661  0.1608  0.5492  0.0743
13230SOL     OW40267   7.273   7.110   0.316  0.5400  0.3420 -0.0571
13230SOL    HW140268   7.202   7.097   0.379  0.7831 -0.4428  0.0746
13230SOL    HW240269   7.352   7.083   0.363  0.6476 -0.8320 -0.8698
13231SOL     OW40270   8.620   9.608   6.989  0.2486  0.3311 -0.1528
13231SOL    HW140271   8.673   9.536   6.955 -0.6225 -0.9770  1.1332
13231SOL    HW240272   8.594   9.658   6.912  0.7027 -0.8541 -1.1078
13232SOL     OW40273   9.275   7.148   5.776 -0.0526  0.4371 -0.4560
13232SOL    HW140274   9.353   7.148   5.720  1.0174  0.2285  0.9607
13232SOL    HW240275   9.256   7.240   5.791 -0.4206  0.4916 -1.2689
13233SOL     OW40276   8.107   8.821   1.201  0.2685 -0.0668 -0.0015
13233SOL    HW140277   8.091   8.915   1.196 -0.6494 -0.1832  0.5843
13233SOL    HW240278   8.128   8.795   1.112  0.5073  0.6837 -0.1728
13234SOL     OW40279   3.982   4.328   4.272  0.4028 -0.3784 -0.0127
13234SOL    HW140280   4.014   4.264   4.337  2.2308  0.9128  0.4510
13234SOL    HW240281   3.981   4.411   4.320  0.4673  0.3597 -1.2613
13235SOL     OW40282   9.126   1.336   1.361  0.0481 -0.3190 -0.0443
13235SOL    HW140283   9.113   1.426   1.390  0.0527 -0.0403 -0.8898
13235SOL    HW240284   9.100   1.336   1.269 -0.0857 -1.2128 -0.0198
13236SOL     OW40285   2.400   2.862   9.217 -0.4680  0.2508 -0.0350
13236SOL    HW140286   2.354   2.918   9.154  1.0930  2.2172  0.4460
13236SOL    HW240287   2.347   2.782   9.221 -1.9505  1.0324 -1.9678
13237SOL     OW40288   1.085   8.616   4.868 -0.1855 -0.4974  0.1083
13237SOL    HW140289   1.134   8.648   4.793  0.7269 -1.4484  0.2797
13237SOL    HW240290   1.015   8.563   4.830  0.1638 -0.8266 -0.0833
13238SOL     OW40291   4.631   5.278   8.143 -0.2432  0.1456  0.1373
13238SOL    HW140292   4.657   5.186   8.134 -1.5651 -0.0802 -2.5507
13238SOL    HW240293   4.546   5.275   8.187  0.0449  0.1413  0.6947
13239SOL     OW40294   6.503   2.861   0.861 -0.6715 -0.0014 -0.2198
13239SOL    HW140295   6.539   2.863   0.773 -0.2913  0.3830 -0.0573
13239SOL    HW240296   6.474   2.771   0.873  0.1923 -0.3058 -0.3677
13240SOL     OW40297   2.120   9.374   3.918  0.0509  0.3467 -0.3741
13240SOL    HW140298   2.163   9.292   3.894 -2.0858  0.0427 -3.8973
13240SOL    HW240299   2.094   9.362   4.009 -0.0078 -2.8385 -0.7025
13241SOL     OW40300   6.408   4.096   7.292 -0.1868  0.2019 -0.1027
13241SOL    HW140301   6.313   4.097   7.286 -0.1458  0.0856 -0.9361
13241SOL    HW240302   6.437   4.079   7.202  0.6323  1.0411 -0.0147
13242SOL     OW40303   1.619   3.343   7.030 -0.3615 -0.2411  0.3665
13242SOL    HW140304   1.669   3.418   7.065  1.2886 -1.7873  1.5132
13242SOL    HW240305   1.541   3.339   7.085  0.6796 -0.7205  1.8884
13243SOL     OW40306   8.718   8.854   4.836 -0.3879 -0.2241 -0.3358
13243SOL    HW140307   8.787   8.803   4.796 -0.9260 -0.4305 -1.0166
13243SOL    HW240308   8.715   8.824   4.927  0.4508 -0.1615 -0.2843
13244SOL     OW40309   7.380   0.760   2.490 -0.1009 -0.3308  0.0466
13244SOL    HW140310   7.468   0.723   2.495 -0.8404 -2.1880 -0.1484
13244SOL    HW240311   7.354   0.772   2.582  0.3354  0.2270  0.1048
13245SOL     OW40312   7.618   2.061   8.893  0.0702 -0.3144  0.4390
13245SOL    HW140313   7.708   2.029   8.889  0.1455 -0.1282  0.6817
13245SOL    HW240314   7.601   2.074   8.986 -0.2489 -0.4675  0.4022
13246SOL     OW40315   2.742   0.708   6.031  0.4213 -0.3948 -0.3963
13246SOL    HW140316   2.652   0.674   6.037  0.2258  0.3172  1.1714
13246SOL    HW240317   2.780   0.690   6.117  1.2740  0.6738 -0.5343
13247SOL     OW40318   2.276   7.163   1.169 -0.2637 -0.2158 -0.3772
13247SOL    HW140319   2.322   7.195   1.247  0.1298  1.9195 -1.4281
13247SOL    HW240320   2.203   7.112   1.204 -0.3996  1.1097  1.4225
13248SOL     OW40321   9.011   8.303   0.893  0.2713 -0.1207  0.3060
13248SOL    HW140322   9.084   8.323   0.834  0.3255  0.7324  0.6426
13248SOL    HW240323   9.050   8.301   0.980 -0.5149  3.3763  0.8925
13249SOL     OW40324   3.050   9.189   2.175  0.2845 -0.1270  0.4910
13249SOL    HW140325   2.977   9.250   2.169  0.0575 -0.5285 -1.2040
13249SOL    HW240326   3.079   9.196   2.266 -1.2033  0.7830  0.9323
13250SOL     OW40327   4.461   7.153   8.034 -0.6211  0.1063  0.2996
13250SOL    HW140328   4.523   7.135   7.963 -1.1172 -0.2676 -0.0466
13250SOL    HW240329   4.511   7.207   8.096  0.5402 -1.4498  0.7965
13251SOL     OW40330   6.335   6.086   7.957 -0.1345 -0.3587 -0.0652
13251SOL    HW140331   6.405   6.027   7.930 -0.3018 -1.5392  1.8843
13251SOL    HW240332   6.377   6.172   7.960  1.2042 -1.0130  0.8718
13252SOL     OW40333   1.043   0.148   9.666  0.7614 -0.2115 -0.3976
13252SOL    HW140334   1.001   0.071   9.630 -0.6064 -0.3910  1.4239
13252SOL    HW240335   0.972   0.213   9.673  1.2836  0.2799  0.5647
13253SOL     OW40336   0.195   3.444   2.575  0.5376  0.3670  0.0092
13253SOL    HW140337   0.225   3.437   2.484 -0.1578  1.2850 -0.3086
13253SOL    HW240338   0.241   3.520   2.610 -0.1813  0.8214  0.0037
13254SOL     OW40339   5.761   5.483   8.178 -0.3562 -0.0637  0.6978
13254SOL    HW140340   5.674   5.500   8.216 -0.0278  0.2239  1.3337
13254SOL    HW240341   5.803   5.569   8.176 -0.1083 -0.1914  0.3336
13255SOL     OW40342   5.552   9.020   8.570 -0.4384 -0.2415 -0.1445
13255SOL    HW140343   5.497   8.964   8.515 -0.4178  0.4629 -0.9085
13255SOL    HW240344   5.629   9.038   8.515  0.7037 -1.4019  0.9812
13256SOL     OW40345   1.381   7.710   7.415 -0.6402  0.1797 -0.1129
13256SOL    HW140346   1.416   7.799   7.420  0.1798 -0.1033 -0.6472
13256SOL    HW240347   1.431   7.669   7.345 -1.2425 -0.6064 -0.0885
13257SOL     OW40348   0.083   4.193   2.588 -1.0381  0.0644  0.2295
13257SOL    HW140349   0.170   4.222   2.613  0.0317 -1.4933 -1.4430
13257SOL    HW240350   0.052   4.142   2.663 -0.5584  0.6813  0.8585
13258SOL     OW40351   5.136   8.827   5.449  0.3144  0.2644  0.2272
13258SOL    HW140352   5.215   8.810   5.500  0.7840 -0.3621 -0.6942
13258SOL    HW240353   5.131   8.755   5.386 -0.6054  0.6700 -0.1897
13259SOL     OW40354   3.962   7.678   2.632  0.0713  0.0520 -0.5664
13259SOL    HW140355   3.870   7.652   2.636  0.0761  0.1174  0.0648
13259SOL    HW240356   3.959   7.773   2.620  0.0563 -0.0170 -1.1114
13260SOL     OW40357   8.907   4.502   1.369 -0.0615  0.0621  0.1662
13260SOL    HW140358   8.830   4.538   1.413 -0.4015 -0.8860  0.3655
13260SOL    HW240359   8.919   4.558   1.292  0.7734  2.0159  1.6226
13261SOL     OW40360   1.814   7.573   4.932 -0.2370 -0.3567  0.6856
13261SOL    HW140361   1.758   7.528   4.996 -0.7433  0.9468  1.1869
13261SOL    HW240362   1.871   7.629   4.985  1.3081 -1.3529  0.1585
13262SOL     OW40363   3.069   3.013   1.944  0.5734 -0.5213 -0.0424
13262SOL    HW140364   2.995   3.026   1.885 -0.8320 -1.8719  1.3192
13262SOL    HW240365   3.091   3.101   1.975 -0.0557 -0.0332 -0.9293
13263SOL     OW40366   2.604   3.796   2.889  0.1580 -0.0675 -0.0278
13263SOL    HW140367   2.655   3.865   2.932  0.6110 -0.8826  0.7864
13263SOL    HW240368   2.554   3.756   2.960  0.0888 -0.7350 -0.4463
13264SOL     OW40369   4.941   7.778   6.592  0.3143 -0.6763  0.0425
13264SOL    HW140370   4.856   7.794   6.634 -0.1778 -1.1488 -0.7493
13264SOL    HW240371   4.950   7.847   6.528  1.8572  1.0816  2.0156
13265SOL     OW40372   0.862   9.795   8.510 -0.3796 -0.4372  0.4443
13265SOL    HW140373   0.854   9.711   8.465 -2.0540 -0.2323  0.3248
13265SOL    HW240374   0.772   9.824   8.523  0.1236  0.5219  2.0317
13266SOL     OW40375   2.241   4.829   0.914 -0.3123 -0.4083 -0.1928
13266SOL    HW140376   2.203   4.905   0.870  1.8021  0.4443 -0.6985
13266SOL    HW240377   2.176   4.760   0.904 -1.1963  0.6210 -2.0360
13267SOL     OW40378   3.677   8.716   5.323 -0.0021 -0.0052  0.1515
13267SOL    HW140379   3.694   8.697   5.415 -0.4387 -1.7157 -0.0826
13267SOL    HW240380   3.760   8.747   5.289  0.9616 -2.0412  0.4986
13268SOL     OW40381   7.286   3.996   0.261  0.0758 -0.0172  0.5004
13268SOL    HW140382   7.294   4.031   0.350  0.3603 -1.2120  0.9640
13268SOL    HW240383   7.192   3.991   0.245  0.0144  1.9779 -0.0183
13269SOL     OW40384   5.655   9.515   3.355  0.3372  0.4887 -0.1673
13269SOL    HW140385   5.570   9.502   3.397  0.5893  0.9611  0.4931
13269SOL    HW240386   5.653   9.455   3.280 -0.9559  1.1988 -0.7318
13270SOL     OW40387   8.629   4.139   7.310  0.5082 -0.3636  0.2453
13270SOL    HW140388   8.587   4.126   7.395  3.3859 -0.7918  1.7321
13270SOL    HW240389   8.627   4.233   7.295 -0.7678 -0.3571  0.3098
13271SOL     OW40390   9.166   1.794   8.178  0.1747 -0.6316  0.0504
13271SOL    HW140391   9.102   1.761   8.114  1.8707 -1.1228 -1.4682
13271SOL    HW240392   9.128   1.877   8.208 -1.1076 -0.8231 -0.9270
13272SOL     OW40393   7.110   0.715   4.393  0.4303  0.5387 -0.5764
13272SOL    HW140394   7.158   0.786   4.351  1.3663  0.8454  0.9470
13272SOL    HW240395   7.152   0.635   4.361  0.3059  0.6980 -1.1683
13273SOL     OW40396   3.144   4.463   6.153 -0.0284 -0.2161  0.0021
13273SOL    HW140397   3.126   4.416   6.071  0.0908 -1.1135  0.4843
13273SOL    HW240398   3.064   4.454   6.204 -0.4670  1.1876 -0.3946
13274SOL     OW40399   0.051   1.791   5.747  0.1410  0.7502  0.4648
13274SOL    HW140400   0.108   1.845   5.803  0.3264  0.9972  0.0424
13274SOL    HW240401   0.110   1.757   5.679  0.0716 -0.1703  0.8490
13275SOL     OW40402   5.442   2.251   7.994  0.2263 -0.6883  0.2527
13275SOL    HW140403   5.347   2.245   7.995  0.2784 -3.0191  2.1757
13275SOL    HW240404   5.471   2.176   7.942  1.1440  2.3012 -4.0898
13276SOL     OW40405   5.155   7.340   6.879  0.0641 -0.2198  0.3140
13276SOL    HW140406   5.107   7.400   6.936  0.4872 -0.3045  0.7584
13276SOL    HW240407   5.242   7.378   6.872  0.6293 -1.2933  1.3814
13277SOL     OW40408   6.045   9.211   1.954 -0.2767 -0.0664  0.1604
13277SOL    HW140409   6.002   9.184   1.873 -0.3589 -1.0292  0.5099
13277SOL    HW240410   6.098   9.287   1.929  0.0366 -0.6078 -0.8929
13278SOL     OW40411   6.734   5.286   0.846  0.1397  0.0032 -0.6534
13278SOL    HW140412   6.669   5.310   0.780 -0.2741  3.1675  0.7280
13278SOL    HW240413   6.818   5.314   0.808  0.4806 -1.8782 -1.4197
13279SOL     OW40414   0.456   2.986   4.728 -0.2506 -0.3652 -0.3030
13279SOL    HW140415   0.451   2.900   4.686 -1.6434 -1.3186  1.6352
13279SOL    HW240416   0.531   2.980   4.786 -1.5179 -1.0739  1.3416
13280SOL     OW40417   8.810   4.402   8.640 -0.4002  0.7904 -0.6710
13280SOL    HW140418   8.851   4.375   8.559 -2.2126 -1.1041 -1.0346
13280SOL    HW240419   8.795   4.496   8.629  2.1582  1.2078 -1.1843
13281SOL     OW40420   5.451   9.362   9.002 -0.6797 -0.2056 -0.1592
13281SOL    HW140421   5.541   9.388   9.017 -1.2188 -0.0277  3.7596
13281SOL    HW240422   5.457   9.286   8.943  1.9051  0.2515 -0.5796
13282SOL     OW40423   4.963   5.318   1.988 -0.4682 -0.0705 -0.1808
13282SOL    HW140424   4.915   5.247   2.031 -0.3740 -2.4052 -3.5597
13282SOL    HW240425   4.921   5.328   1.903  1.4753  1.8179 -1.0111
13283SOL     OW40426   0.245   4.497   3.656  0.0098  0.2576 -0.5242
13283SOL    HW140427   0.220   4.583   3.622  0.7195  1.3406  1.4722
13283SOL    HW240428   0.335   4.509   3.687  0.0965 -1.1811 -0.1375
13284SOL     OW40429   2.222   8.953   2.821  0.3069 -0.5617  0.2454
13284SOL    HW140430   2.251   9.040   2.848  0.0002 -0.7358  1.1708
13284SOL    HW240431   2.128   8.953   2.840  0.4170 -1.2995  0.8191
13285SOL     OW40432   1.034   5.211   6.795  0.2183  0.2360  0.5106
13285SOL    HW140433   1.113   5.174   6.756 -1.1966 -0.2988 -2.1496
13285SOL    HW240434   0.973   5.138   6.801 -1.5093  1.3341 -1.7289
13286SOL     OW40435   4.958   0.423   0.731  0.3854  0.0387  0.3292
13286SOL    HW140436   4.913   0.352   0.686 -0.1054 -1.3210  2.7982
13286SOL    HW240437   4.902   0.443   0.806  3.2223 -0.8820  2.8397
13287SOL     OW40438   7.087   5.378   4.837  0.4847 -0.1684 -0.1832
13287SOL    HW140439   7.043   5.299   4.805 -0.8790  0.0020  1.1369
13287SOL    HW240440   7.053   5.390   4.926  0.2196  2.2078 -0.5297
13288SOL     OW40441   6.980   3.596   2.423 -0.6148  0.1271  0.0588
13288SOL    HW140442   6.983   3.622   2.330 -1.1999 -0.6320 -0.1853
13288SOL    HW240443   6.921   3.659   2.463 -0.2495  0.5479 -0.0470
13289SOL     OW40444   7.399   2.190   7.376 -0.2851 -0.5338 -0.2276
13289SOL    HW140445   7.419   2.248   7.302 -3.3073 -0.0667 -0.7852
13289SOL    HW240446   7.371   2.249   7.446  0.0005 -1.1517  0.4217
13290SOL     OW40447   2.583   7.268   0.082  0.1504 -0.7121 -0.2835
13290SOL    HW140448   2.601   7.221   0.001  1.9084 -1.2772  0.4001
13290SOL    HW240449   2.608   7.359   0.064 -0.2726 -0.6595 -0.6235
13291SOL     OW40450   9.160   3.899   5.273  0.5487 -0.3554  0.2709
13291SOL    HW140451   9.083   3.863   5.317  1.2219 -0.4170  1.4591
13291SOL    HW240452   9.130   3.980   5.232 -0.0413 -0.1234  1.1382
13292SOL     OW40453   9.825   9.746   6.038 -0.0276  0.2670  0.2550
13292SOL    HW140454   9.803   9.724   5.947 -1.0119  0.4033  0.4428
13292SOL    HW240455   9.823   9.841   6.040 -1.6421  0.2614  0.7643
13293SOL     OW40456   0.495   9.166   0.434  0.1235 -0.5958 -0.1236
13293SOL    HW140457   0.487   9.158   0.529 -0.9261 -1.0376 -0.2364
13293SOL    HW240458   0.452   9.088   0.400 -1.5663  0.6448 -1.0044
13294SOL     OW40459   8.021   0.215   4.723 -0.5781 -0.2484 -0.4537
13294SOL    HW140460   8.070   0.293   4.700 -0.1356  0.3506  2.1544
13294SOL    HW240461   7.945   0.216   4.665  0.2831  1.1529 -1.6279
13295SOL     OW40462   7.671   1.599   2.879  0.0609 -0.0698  0.2024
13295SOL    HW140463   7.680   1.670   2.944 -1.4203  0.4160 -0.0780
13295SOL    HW240464   7.679   1.519   2.930  0.3079  0.3109  0.7712
13296SOL     OW40465   2.983   7.777   7.652 -0.0425 -0.0919 -0.4818
13296SOL    HW140466   3.002   7.862   7.693  1.1766 -0.7578  0.4162
13296SOL    HW240467   2.912   7.795   7.591 -0.2108  1.4577  0.1224
13297SOL     OW40468   6.204   5.347   6.053  0.1835 -0.2320  0.2150
13297SOL    HW140469   6.115   5.348   6.017  0.6202  2.9096 -1.1112
13297SOL    HW240470   6.260   5.379   5.982  2.0732 -0.1911  1.6222
13298SOL     OW40471   3.435   1.190   6.064  0.5068  0.5347  0.6487
13298SOL    HW140472   3.501   1.134   6.024 -0.1534  1.2449 -1.5937
13298SOL    HW240473   3.394   1.136   6.132  0.0734 -1.6346 -1.2200
13299SOL     OW40474   6.677   9.723   0.797  0.5218  0.5965 -0.0341
13299SOL    HW140475   6.695   9.771   0.716 -0.8380 -1.9321 -1.9864
13299SOL    HW240476   6.604   9.769   0.838 -1.0771  0.0364 -2.1042
13300SOL     OW40477   9.354   8.760   0.114 -0.2254  0.6205  0.0747
13300SOL    HW140478   9.339   8.784   0.205 -1.0105 -0.8679  0.3793
13300SOL    HW240479   9.306   8.678   0.103 -0.7065  1.1094 -1.8691
13301SOL     OW40480   7.471   3.817   9.362 -0.2253 -0.0232  0.2073
13301SOL    HW140481   7.543   3.788   9.419  0.7467  0.3447 -0.7798
13301SOL    HW240482   7.439   3.897   9.403 -0.6647 -0.6562  1.1290
13302SOL     OW40483   0.473   4.663   3.417  0.0200 -0.0755 -0.2357
13302SOL    HW140484   0.506   4.664   3.507 -0.2017  1.0254 -0.1480
13302SOL    HW240485   0.383   4.696   3.424  0.3255  0.9522 -0.9761
13303SOL     OW40486   4.561   9.510   3.555 -0.3765 -0.1161  0.2265
13303SOL    HW140487   4.544   9.457   3.632 -0.7676 -0.6047 -0.1937
13303SOL    HW240488   4.504   9.586   3.565 -0.4642 -0.2028  0.3870
13304SOL     OW40489   3.585   3.373   7.138  0.3148  0.2476  0.5163
13304SOL    HW140490   3.656   3.318   7.105 -1.0540 -1.8143  0.7920
13304SOL    HW240491   3.519   3.372   7.069  0.0053  1.0260  0.7904
13305SOL     OW40492   8.166   6.719   3.254  0.2461 -0.0544 -0.2439
13305SOL    HW140493   8.092   6.730   3.193  0.3524  1.2202 -0.1588
13305SOL    HW240494   8.133   6.656   3.318 -0.3220 -0.4527 -0.9002
13306SOL     OW40495   4.685   9.272   1.893 -0.5113  0.3152 -0.5181
13306SOL    HW140496   4.694   9.178   1.910  1.0515  0.7367  1.3394
13306SOL    HW240497   4.590   9.287   1.891 -0.7810 -1.1337  0.1708
13307SOL     OW40498   3.020   3.421   7.841  0.2477 -0.4077 -0.0127
13307SOL    HW140499   3.097   3.367   7.822 -0.4563 -1.0533 -1.1488
13307SOL    HW240500   2.970   3.370   7.905  0.5612 -0.1631  0.4350
13308SOL     OW40501   7.213   2.100   9.863 -0.2536 -0.1162 -0.1632
13308SOL    HW140502   7.264   2.177   9.889  0.9143 -1.0765  0.5404
13308SOL    HW240503   7.206   2.107   9.768 -1.6594  1.7259  0.0183
13309SOL     OW40504   1.075   4.592   0.723  0.7409 -0.2874  0.4807
13309SOL    HW140505   1.078   4.648   0.645 -2.8389 -0.3844  0.1361
13309SOL    HW240506   1.048   4.507   0.690 -0.1449 -0.5163  1.7568
13310SOL     OW40507   0.287   7.947   7.501  0.0694  0.9947  0.3600
13310SOL    HW140508   0.255   7.859   7.480 -1.7440  1.7433 -0.2171
13310SOL    HW240509   0.376   7.933   7.533 -0.3479 -1.1054  0.7849
13311SOL     OW40510   5.793   8.700   9.826  0.3309  0.1749 -0.4035
13311SOL    HW140511   5.802   8.746   9.742  1.1667 -1.4648 -1.2427
13311SOL    HW240512   5.870   8.727   9.876  0.0132  0.8777 -0.2723
13312SOL     OW40513   1.334   7.825   5.250  0.1635 -0.1318  0.2254
13312SOL    HW140514   1.415   7.774   5.256 -0.5126 -1.0652  1.9120
13312SOL    HW240515   1.347   7.898   5.309 -0.7199 -1.0533  1.6199
13313SOL     OW40516   6.847   1.881   0.211  0.0768  0.3967  0.6540
13313SOL    HW140517   6.903   1.918   0.143 -1.0440  1.0833  0.0629
13313SOL    HW240518   6.891   1.801   0.238  0.5859  0.1384 -0.8479
13314SOL     OW40519   8.330   3.195   3.404  0.3769 -0.2110  0.1147
13314SOL    HW140520   8.376   3.209   3.321 -0.6666  1.5847 -0.2103
13314SOL    HW240521   8.247   3.155   3.380 -0.1220  0.7304  0.2124
13315SOL     OW40522   1.496   2.079   6.681  0.5481 -0.1737 -0.3590
13315SOL    HW140523   1.546   1.998   6.668  0.4854 -0.5112  1.2065
13315SOL    HW240524   1.523   2.110   6.767 -1.2752  0.0928  0.1694
13316SOL     OW40525   8.374   1.520   0.470  0.1258 -0.3767 -0.4129
13316SOL    HW140526   8.439   1.506   0.539  0.0537 -0.2200 -0.3141
13316SOL    HW240527   8.375   1.438   0.420 -0.4933 -0.8603  0.3378
13317SOL     OW40528   1.553   8.970   8.040 -0.3447 -1.1504 -0.7133
13317SOL    HW140529   1.469   8.926   8.031  0.3923 -3.2123  1.4351
13317SOL    HW240530   1.612   8.902   8.074  1.6938  0.7154 -0.3013
13318SOL     OW40531   4.040   4.260   8.917 -0.3266  0.2308 -0.2067
13318SOL    HW140532   4.013   4.343   8.877  2.0687  0.0510 -2.4971
13318SOL    HW240533   4.065   4.206   8.842  0.6711 -1.6041  1.3945
13319SOL     OW40534   3.505   2.000   6.896 -0.7624 -0.2130 -0.1228
13319SOL    HW140535   3.593   2.006   6.933 -1.5562 -1.6468  2.2769
13319SOL    HW240536   3.467   2.086   6.910 -1.0361 -0.6922  2.6966
13320SOL     OW40537   2.652   3.812   0.462 -0.0679 -0.0584  0.4106
13320SOL    HW140538   2.629   3.896   0.422  0.7356  0.7471  1.5934
13320SOL    HW240539   2.737   3.827   0.503 -0.0670 -1.3568  0.9294
13321SOL     OW40540   9.680   1.374   4.680  0.0556 -0.1624 -0.5282
13321SOL    HW140541   9.605   1.342   4.630 -1.7592 -0.3815  2.1346
13321SOL    HW240542   9.701   1.302   4.740  1.1643  0.6275  0.0599
13322SOL     OW40543   6.302   3.253   9.713 -0.1955  0.2018  0.2174
13322SOL    HW140544   6.290   3.336   9.759 -1.5716 -0.2989  0.7876
13322SOL    HW240545   6.241   3.258   9.639 -0.2083 -0.2702  0.1958
13323SOL     OW40546   3.584   4.590   9.761  0.6235  0.2593 -0.4723
13323SOL    HW140547   3.570   4.511   9.812 -0.6777  0.3194 -0.7036
13323SOL    HW240548   3.661   4.632   9.801  1.8379 -1.5065 -0.8586
13324SOL     OW40549   1.119   4.740   8.442 -0.2231 -0.1470  0.2085
13324SOL    HW140550   1.136   4.659   8.394 -3.4100 -0.2969 -0.8710
13324SOL    HW240551   1.206   4.774   8.462  1.2313 -3.1049 -0.5000
13325SOL     OW40552   9.007   6.236   5.102 -0.2117  0.0292 -0.0035
13325SOL    HW140553   9.064   6.312   5.094 -1.1269  0.6637 -0.8901
13325SOL    HW240554   8.920   6.273   5.119 -0.8429 -0.7420 -1.3186
13326SOL     OW40555   1.694   8.874   6.912 -0.2438  0.6510 -0.6424
13326SOL    HW140556   1.740   8.890   6.994 -1.2417  1.1122 -0.1486
13326SOL    HW240557   1.752   8.909   6.845  0.8793 -0.3111 -0.2034
13327SOL     OW40558   4.073   0.680   9.753 -0.5560  0.4693  0.0006
13327SOL    HW140559   4.165   0.687   9.777 -0.4068 -0.2700 -0.3356
13327SOL    HW240560   4.052   0.762   9.710 -0.3295  1.0567  0.9824
13328SOL     OW40561  -0.017   8.716   7.047 -0.2328  0.1574  0.0809
13328SOL    HW140562   0.071   8.754   7.059  0.1943  0.4180 -3.0550
13328SOL    HW240563  -0.006   8.623   7.067 -0.0163  0.6288  2.5377
13329SOL     OW40564   2.079   2.429   1.958  0.1684 -0.3108  0.2903
13329SOL    HW140565   2.007   2.366   1.962 -1.2305  1.2509  1.3020
13329SOL    HW240566   2.039   2.512   1.985  2.3121  0.6662  0.6621
13330SOL     OW40567   4.216   5.964   2.535  0.4340  0.2222  0.1556
13330SOL    HW140568   4.280   6.025   2.573 -1.4452  2.2582  0.2391
13330SOL    HW240569   4.138   5.975   2.589 -1.1237  0.4464 -2.0198
13331SOL     OW40570   0.178   4.812   1.050 -0.5904  0.2630  0.3991
13331SOL    HW140571   0.101   4.815   1.106 -0.0159  1.2229  1.1629
13331SOL    HW240572   0.194   4.718   1.036 -1.0138  0.0177  1.4638
13332SOL     OW40573   8.445   3.151   0.676 -0.0481 -0.4873  0.7039
13332SOL    HW140574   8.516   3.137   0.613 -1.2844 -0.9758 -0.6309
13332SOL    HW240575   8.422   3.062   0.705 -0.1463 -0.3293  1.1149
13333SOL     OW40576   6.147   1.153   5.697 -0.5567  0.4644 -0.0568
13333SOL    HW140577   6.192   1.214   5.755 -0.7999  0.1999  0.4142
13333SOL    HW240578   6.067   1.130   5.744 -0.7988  0.3142 -0.5353
13334SOL     OW40579   8.402   4.878   7.765 -0.3480  0.3854  0.1513
13334SOL    HW140580   8.422   4.806   7.705 -1.4289  0.9333 -0.9372
13334SOL    HW240581   8.312   4.861   7.793 -0.0856  0.5069  1.1100
13335SOL     OW40582   3.588   9.283   1.101  0.0537 -0.3965 -0.2010
13335SOL    HW140583   3.505   9.241   1.076 -0.1570  0.1569 -0.4455
13335SOL    HW240584   3.570   9.321   1.187  0.4784 -1.4548  0.3674
13336SOL     OW40585   1.078   6.414   9.654 -0.8474 -0.5341 -0.0624
13336SOL    HW140586   1.061   6.472   9.728 -0.7643  0.3156 -0.6960
13336SOL    HW240587   1.011   6.437   9.589 -0.0977 -0.3116 -0.7816
13337SOL     OW40588   0.078   2.045   8.619 -0.0252 -0.4222 -0.4317
13337SOL    HW140589  -0.009   2.037   8.578 -0.9461 -0.9088  1.4874
13337SOL    HW240590   0.087   1.964   8.670  0.8088  0.3980  0.7541
13338SOL     OW40591   6.427   9.144   9.356  0.3515  0.6604 -0.5483
13338SOL    HW140592   6.337   9.146   9.387  0.8132 -0.1129  0.9640
13338SOL    HW240593   6.458   9.234   9.364  0.5104  0.4804  1.5960
13339SOL     OW40594   1.345   8.336   6.193 -0.2544  0.1996  0.8378
13339SOL    HW140595   1.396   8.278   6.250 -0.7737 -0.3237  0.7831
13339SOL    HW240596   1.369   8.309   6.104 -0.8317 -0.2468  0.8098
13340SOL     OW40597   5.755   9.261   0.729 -0.3394 -0.2703 -0.4108
13340SOL    HW140598   5.778   9.232   0.641 -0.5789  1.4560 -1.0815
13340SOL    HW240599   5.745   9.180   0.779 -1.3661 -1.3508 -2.2467
13341SOL     OW40600   3.739   1.842   6.619 -0.0505  0.5040  0.4580
13341SOL    HW140601   3.657   1.843   6.570 -1.1566 -0.6842  2.1830
13341SOL    HW240602   3.786   1.765   6.588 -0.4976  0.0658  0.8623
13342SOL     OW40603   3.407   5.786   6.832 -0.0143  0.3507 -0.3826
13342SOL    HW140604   3.448   5.755   6.751 -1.7575 -0.5022 -0.9909
13342SOL    HW240605   3.413   5.712   6.892 -0.1845  0.4040 -0.2979
13343SOL     OW40606   8.867   2.238   2.096  0.5338  0.2053  0.4006
13343SOL    HW140607   8.868   2.308   2.032 -0.0132 -0.1311  0.0165
13343SOL    HW240608   8.785   2.191   2.080  0.5414 -0.0780  1.1288
13344SOL     OW40609   3.352   5.525   7.645  0.1627 -0.0787  0.9561
13344SOL    HW140610   3.303   5.495   7.570  0.6320 -0.0723  0.6438
13344SOL    HW240611   3.372   5.446   7.695  3.8763 -0.8483 -1.3069
13345SOL     OW40612   4.135   9.125   5.864 -0.1588  0.1556  0.2272
13345SOL    HW140613   4.205   9.073   5.903  0.3894  0.5282 -0.2450
13345SOL    HW240614   4.054   9.086   5.899  0.2540 -0.6889  0.2753
13346SOL     OW40615   8.736   9.411   7.310  0.2902  0.0925 -0.4802
13346SOL    HW140616   8.644   9.386   7.314  0.4283 -0.3816 -0.0883
13346SOL    HW240617   8.735   9.506   7.302 -0.2391  0.0400 -1.0751
13347SOL     OW40618   2.855   9.339   4.932 -0.1475 -0.5733  0.1645
13347SOL    HW140619   2.803   9.262   4.911  0.4144 -0.7127 -0.7886
13347SOL    HW240620   2.940   9.304   4.958  0.1280 -0.2850 -0.3253
13348SOL     OW40621   8.720   1.502   4.053  0.3847  0.3268 -0.1313
13348SOL    HW140622   8.797   1.556   4.072 -0.1215  0.7279  0.8077
13348SOL    HW240623   8.708   1.449   4.131 -1.1448  1.3054  0.3480
13349SOL     OW40624   7.061   7.907   6.212  0.2791 -0.0232  0.0689
13349SOL    HW140625   6.983   7.852   6.218 -0.4683  0.9761 -0.4102
13349SOL    HW240626   7.105   7.894   6.296 -0.3217 -0.7042  0.2887
13350SOL     OW40627   5.602   4.476   8.229  0.1618 -0.2509 -0.2700
13350SOL    HW140628   5.569   4.548   8.175 -0.6661  1.0703  1.8466
13350SOL    HW240629   5.697   4.484   8.224  0.1056  1.4850  0.4173
13351SOL     OW40630   1.633   6.918   0.089 -1.1141  0.3122 -0.3883
13351SOL    HW140631   1.569   6.880   0.029 -0.8209 -3.1472  1.2610
13351SOL    HW240632   1.718   6.887   0.058 -0.8432 -0.4130  0.9731
13352SOL     OW40633   1.593   5.892   5.292 -0.1886 -0.2433  0.3245
13352SOL    HW140634   1.590   5.797   5.298 -1.4612 -0.1215  3.2615
13352SOL    HW240635   1.680   5.916   5.325 -0.1477 -0.3667  0.3045
13353SOL     OW40636   6.350   6.932   1.550 -0.6637 -0.3962  0.2205
13353SOL    HW140637   6.432   6.955   1.594  0.6068 -1.0825 -1.6343
13353SOL    HW240638   6.287   6.919   1.620  1.4306 -2.2333  1.8950
13354SOL     OW40639   0.118   9.605   7.719  0.5593  0.0092  0.2633
13354SOL    HW140640   0.027   9.615   7.747  0.3160 -0.5484 -0.3277
13354SOL    HW240641   0.113   9.584   7.626  1.2281 -1.3423  0.5127
13355SOL     OW40642   5.941   3.862   8.322 -0.1356  0.0453  0.1915
13355SOL    HW140643   5.944   3.782   8.374 -0.9325  0.3199  0.6858
13355SOL    HW240644   5.924   3.932   8.385  1.2553  0.7141 -0.1413
13356SOL     OW40645   9.399   2.430   9.847 -0.1085 -0.1586 -1.2016
13356SOL    HW140646   9.305   2.420   9.862  0.3226 -1.3639  1.2999
13356SOL    HW240647   9.423   2.357   9.791 -0.2045 -1.9213  0.9063
13357SOL     OW40648   6.567   2.091   1.781  0.0852  0.3508  0.4387
13357SOL    HW140649   6.478   2.119   1.799 -0.5332 -1.2457  0.0025
13357SOL    HW240650   6.610   2.091   1.867 -1.3222 -2.0840  1.2610
13358SOL     OW40651   2.258   9.033   0.906 -0.2214  0.0652  0.4094
13358SOL    HW140652   2.244   9.096   0.835  0.1717 -0.0018  0.2679
13358SOL    HW240653   2.226   8.950   0.870  1.6205 -0.3562 -0.3907
13359SOL     OW40654   2.392   5.520   3.139 -0.0400  0.3158 -0.2909
13359SOL    HW140655   2.370   5.613   3.126 -1.6185 -0.1617 -1.2879
13359SOL    HW240656   2.375   5.479   3.055 -1.2825 -1.2204  0.6522
13360SOL     OW40657   3.706   9.263   9.625  0.1072 -1.0379 -0.1486
13360SOL    HW140658   3.753   9.180   9.634  1.3353 -0.4069 -0.4137
13360SOL    HW240659   3.625   9.251   9.674 -0.1853 -2.7172 -1.0010
13361SOL     OW40660   0.180   9.036   2.291 -0.0982  0.0185  0.0825
13361SOL    HW140661   0.137   9.008   2.372  0.5946  0.0815  0.4810
13361SOL    HW240662   0.237   8.962   2.267  0.4713  0.4040  0.2185
13362SOL     OW40663   8.524   8.298   5.334  0.3759  0.0741  1.1340
13362SOL    HW140664   8.612   8.279   5.302 -0.4992 -2.3058 -0.0784
13362SOL    HW240665   8.532   8.296   5.429  1.8414  1.1844  1.0688
13363SOL     OW40666   4.054   3.035   1.072  0.0830 -0.1354 -0.1801
13363SOL    HW140667   4.035   3.011   0.982 -0.3119  0.2132 -0.1971
13363SOL    HW240668   4.053   2.953   1.121  2.4134 -0.6191 -0.8303
13364SOL     OW40669   6.857   9.442   5.051  0.6773  0.3027  0.0468
13364SOL    HW140670   6.825   9.498   4.980  0.5396 -0.9932 -0.9434
13364SOL    HW240671   6.949   9.428   5.032  0.5490 -0.3689 -0.1130
13365SOL     OW40672   0.643   3.419   0.828 -0.7040 -0.6768  0.3685
13365SOL    HW140673   0.642   3.367   0.747  1.6846 -0.4857  0.1533
13365SOL    HW240674   0.654   3.509   0.798 -1.2419 -0.4324  0.8792
13366SOL     OW40675   7.564   6.381   7.535 -0.1954  0.1764  0.0273
13366SOL    HW140676   7.567   6.380   7.439  0.5698 -1.1609  0.0454
13366SOL    HW240677   7.531   6.469   7.557 -1.0701  0.2598 -1.4640
13367SOL     OW40678   4.448   9.981   8.208 -0.2712 -0.1791 -0.1488
13367SOL    HW140679   4.449   9.901   8.156  1.0530 -0.5502  0.4106
13367SOL    HW240680   4.540   9.998   8.229 -0.7240  0.1471  1.7879
13368SOL     OW40681   3.002   0.235   1.708  0.4251  0.1350  0.4253
13368SOL    HW140682   3.025   0.303   1.644  1.9248 -0.2515  0.5057
13368SOL    HW240683   3.050   0.157   1.679  1.4563  0.0514  2.1995
13369SOL     OW40684   1.625   7.988   7.920 -0.2765 -0.9711 -0.4011
13369SOL    HW140685   1.565   7.921   7.954 -1.2211  0.5771  1.2055
13369SOL    HW240686   1.581   8.071   7.940  2.5373  0.2863  1.2483
13370SOL     OW40687   1.224   1.210   1.929 -0.1073 -0.1951 -0.3900
13370SOL    HW140688   1.202   1.131   1.979  2.7007 -1.1167 -0.4474
13370SOL    HW240689   1.222   1.281   1.994 -0.7187 -0.6438  0.0948
13371SOL     OW40690   3.001   3.485   8.667  0.2712 -0.0218 -0.3943
13371SOL    HW140691   2.988   3.391   8.657  0.7536 -0.1451  0.1279
13371SOL    HW240692   3.052   3.511   8.590 -0.6829 -0.0125 -1.0375
13372SOL     OW40693   3.223   2.216   3.627  0.2001 -0.1597  0.2828
13372SOL    HW140694   3.208   2.123   3.610 -1.7404  0.2010 -0.2108
13372SOL    HW240695   3.176   2.261   3.557  0.1702  1.2003  1.1417
13373SOL     OW40696   6.524   5.166   2.831 -0.5885  0.1048 -0.1016
13373SOL    HW140697   6.472   5.242   2.805  1.2261  1.5769  0.3864
13373SOL    HW240698   6.523   5.167   2.926  0.2858  0.1454 -0.0806
13374SOL     OW40699   1.518   4.070   4.126  0.4243  0.3988 -0.3471
13374SOL    HW140700   1.562   4.032   4.202 -1.5004 -1.2783  0.0316
13374SOL    HW240701   1.569   4.039   4.051  0.3060 -0.9597  0.1037
13375SOL     OW40702   2.940   8.061   7.374  0.6864 -0.4675 -0.8570
13375SOL    HW140703   2.999   8.133   7.353 -1.9407  1.1807 -3.3708
13375SOL    HW240704   2.889   8.092   7.448  2.1007 -1.4288  0.5778
13376SOL     OW40705   9.535   6.740   0.163  0.4715  0.2346  0.7131
13376SOL    HW140706   9.529   6.721   0.070  0.5583  1.6590  0.4014
13376SOL    HW240707   9.445   6.756   0.191  0.5055  0.3603  0.7523
13377SOL     OW40708   5.610   4.868   9.931 -0.1656  0.1419  0.4257
13377SOL    HW140709   5.693   4.891   9.973 -0.9971  1.8007  1.2386
13377SOL    HW240710   5.555   4.945   9.943 -0.8067  0.3349 -2.8382
13378SOL     OW40711   6.252   6.705   3.936  0.5389  0.2419 -0.3149
13378SOL    HW140712   6.255   6.664   4.022 -0.0046  0.6168 -0.1103
13378SOL    HW240713   6.313   6.778   3.942  0.1581  0.5431 -0.0988
13379SOL     OW40714   2.652   5.270   4.854 -0.4305  0.0521 -0.1203
13379SOL    HW140715   2.582   5.323   4.890  0.4547  0.3991  1.1705
13379SOL    HW240716   2.732   5.308   4.892  0.4094 -0.6463 -1.1426
13380SOL     OW40717   1.490   4.407   7.789 -0.0613 -0.0486  0.2855
13380SOL    HW140718   1.506   4.323   7.744  0.3694  1.3234 -2.3010
13380SOL    HW240719   1.575   4.433   7.823 -0.0467 -0.2725  0.4248
13381SOL     OW40720   4.915   0.883   9.048 -0.0673  0.2114 -0.3893
13381SOL    HW140721   4.999   0.838   9.048  0.4637  1.1530 -1.1619
13381SOL    HW240722   4.879   0.867   9.136  0.7679 -0.4575 -0.1552
13382SOL     OW40723   1.460   7.595   0.402  0.2100  0.0212 -0.2590
13382SOL    HW140724   1.391   7.533   0.424  1.1687 -0.5881  1.1337
13382SOL    HW240725   1.540   7.543   0.398  0.7221  0.8311 -1.1442
13383SOL     OW40726   1.219   5.918   4.661 -0.2162 -0.1526 -0.1805
13383SOL    HW140727   1.209   5.966   4.743  0.6858  0.8629 -0.6284
13383SOL    HW240728   1.193   5.980   4.594  1.2971 -0.1335 -0.7990
13384SOL     OW40729   3.423   2.869   2.666  0.5588 -0.0891 -0.0254
13384SOL    HW140730   3.424   2.939   2.731  0.7732  1.0687 -1.2331
13384SOL    HW240731   3.360   2.898   2.600  0.2373 -1.3073 -0.2921
13385SOL     OW40732   0.314   0.276   1.668 -0.0747 -0.1691  0.6729
13385SOL    HW140733   0.313   0.268   1.763  2.6322  1.3101  0.9322
13385SOL    HW240734   0.272   0.360   1.651  0.4895  0.1273  0.6997
13386SOL     OW40735   0.778   8.620   6.349  0.2597  0.7786  0.3325
13386SOL    HW140736   0.742   8.691   6.402  0.6883  0.8879  0.4759
13386SOL    HW240737   0.763   8.542   6.402  0.5256  0.8651  0.5349
13387SOL     OW40738   3.959   3.166   1.744 -0.4310 -0.1562  0.0490
13387SOL    HW140739   4.029   3.231   1.733 -0.9026  0.4464  0.5633
13387SOL    HW240740   3.883   3.217   1.772 -0.9936 -0.8478 -0.1927
13388SOL     OW40741   4.636   5.679   1.972 -0.0382  0.7127  0.8155
13388SOL    HW140742   4.631   5.687   1.876 -0.7730 -1.3116  0.6514
13388SOL    HW240743   4.671   5.763   2.000  0.4308  1.2741 -1.2517
13389SOL     OW40744   1.009   0.037   0.630 -0.8472 -0.5999 -0.0628
13389SOL    HW140745   1.022  -0.000   0.543  1.1333 -2.6082  1.0022
13389SOL    HW240746   0.981  -0.037   0.684 -0.9296  0.3712  1.2680
13390SOL     OW40747   1.532   6.530   2.746  0.2255 -0.3006  0.0427
13390SOL    HW140748   1.583   6.604   2.713  1.8205 -0.8574  1.1755
13390SOL    HW240749   1.448   6.537   2.701  1.2140  0.7622 -1.7144
13391SOL     OW40750   4.097   9.270   4.971  0.3933 -0.0013  0.8219
13391SOL    HW140751   4.018   9.239   5.015 -0.8061  0.2724 -1.0126
13391SOL    HW240752   4.164   9.205   4.991 -0.0802  0.1189  2.9851
13392SOL     OW40753   9.361   8.990   4.990 -0.4288 -0.3702  0.4770
13392SOL    HW140754   9.447   8.978   5.031  0.0889 -0.2918 -0.5562
13392SOL    HW240755   9.325   9.069   5.031  0.3638  0.0814  0.3136
13393SOL     OW40756   4.469   5.119   5.576  0.2733  0.2582 -0.3526
13393SOL    HW140757   4.396   5.162   5.532  0.2418  0.7343  0.1609
13393SOL    HW240758   4.449   5.025   5.568 -0.1935  0.3700 -0.5547
13394SOL     OW40759   9.237   6.253   1.148  0.1982 -0.5709 -0.6649
13394SOL    HW140760   9.233   6.277   1.240  0.0122  3.0237 -1.4479
13394SOL    HW240761   9.157   6.203   1.133 -0.1670 -0.5205  0.9526
13395SOL     OW40762   2.463   1.515   3.433  0.0963  0.7915  0.3496
13395SOL    HW140763   2.459   1.452   3.361 -0.7061  0.9246  0.2703
13395SOL    HW240764   2.551   1.553   3.426  1.2862 -1.5078  1.4402
13396SOL     OW40765   3.410   7.242   5.198 -0.2983 -0.3308  0.1807
13396SOL    HW140766   3.335   7.184   5.208 -1.4983  1.0728 -0.2693
13396SOL    HW240767   3.436   7.232   5.106 -2.3981  1.9256 -0.7738
13397SOL     OW40768   4.130   2.161   2.157 -0.0533 -0.4929 -0.1019
13397SOL    HW140769   4.201   2.110   2.196  0.3204 -1.7287 -2.2260
13397SOL    HW240770   4.174   2.231   2.110  0.1029 -2.6303 -3.4443
13398SOL     OW40771   1.136   6.050   6.038 -0.0622 -0.1407 -0.1583
13398SOL    HW140772   1.102   5.961   6.039 -0.2571 -0.0750 -0.5954
13398SOL    HW240773   1.155   6.070   6.130 -0.8778 -0.3028  0.0519
13399SOL     OW40774   6.201   5.646   9.637 -0.1053 -0.0165  0.0840
13399SOL    HW140775   6.290   5.664   9.666 -0.0849 -2.4943  1.9073
13399SOL    HW240776   6.210   5.574   9.574 -0.7988 -0.3127  0.3060
13400SOL     OW40777   3.779   1.177   3.927 -0.0289  0.5274 -0.0456
13400SOL    HW140778   3.741   1.234   3.860 -1.3647 -0.7974 -0.4695
13400SOL    HW240779   3.734   1.094   3.916 -0.0636  0.1542  2.2954
13401SOL     OW40780   3.862   6.083   0.939  1.0041  0.3593 -0.0115
13401SOL    HW140781   3.932   6.050   0.883  1.4769  0.6587  0.3922
13401SOL    HW240782   3.879   6.042   1.024 -0.3717 -1.0064 -0.3466
13402SOL     OW40783   4.868   8.258   6.666  0.0158 -0.0329 -0.0993
13402SOL    HW140784   4.797   8.196   6.645  0.3112  0.0133 -1.2977
13402SOL    HW240785   4.888   8.300   6.582 -0.5375  2.0952  0.7804
13403SOL     OW40786   9.022   6.561   8.111 -0.3140 -0.3177  0.0998
13403SOL    HW140787   8.951   6.550   8.048 -1.7392  1.1992  1.3139
13403SOL    HW240788   8.980   6.547   8.196  0.4353  2.0831  0.9421
13404SOL     OW40789   7.840   6.272   2.682  0.2304 -0.3071  0.0171
13404SOL    HW140790   7.875   6.197   2.731 -1.1006  0.4581  2.3207
13404SOL    HW240791   7.745   6.264   2.691  0.0383  1.1190 -0.5544
13405SOL     OW40792   2.573   4.255   8.744 -0.1388 -0.1514 -0.8303
13405SOL    HW140793   2.582   4.350   8.753 -1.2942 -0.2267  3.5493
13405SOL    HW240794   2.484   4.243   8.711  0.0626  0.2664 -1.5499
13406SOL     OW40795   9.076   3.957   2.841 -0.0662  0.0401 -0.7076
13406SOL    HW140796   9.006   3.931   2.901  0.9906 -0.4702  0.3532
13406SOL    HW240797   9.052   4.045   2.813 -0.6774  0.2347  0.3518
13407SOL     OW40798   0.617   1.367   4.361  0.2655 -0.5679 -0.4189
13407SOL    HW140799   0.697   1.315   4.358 -0.3794 -1.7081  0.8627
13407SOL    HW240800   0.609   1.395   4.453 -0.5367 -0.0338 -0.6295
13408SOL     OW40801   7.429   4.923   0.306 -0.1173 -0.1972 -0.0377
13408SOL    HW140802   7.407   4.974   0.228  0.6911  0.7919  0.3607
13408SOL    HW240803   7.432   4.987   0.377 -1.4066 -1.1669  0.9425
13409SOL     OW40804   4.380   2.551   9.122  0.3688 -0.5472  0.4019
13409SOL    HW140805   4.354   2.551   9.030  1.7963 -0.5137 -0.0119
13409SOL    HW240806   4.391   2.458   9.144 -0.1858 -0.5684  0.6155
13410SOL     OW40807   7.380   7.434   3.811 -0.4578 -0.0035  0.3141
13410SOL    HW140808   7.420   7.361   3.859 -2.4261 -2.2756 -1.3055
13410SOL    HW240809   7.440   7.451   3.738  0.3358  0.5261  1.0562
13411SOL     OW40810   1.832   9.495   3.135  0.3998  0.0999 -0.2435
13411SOL    HW140811   1.901   9.550   3.171  0.7681  0.2698 -1.1939
13411SOL    HW240812   1.840   9.412   3.182  1.1730  0.1559 -0.2643
13412SOL     OW40813   7.934   2.531   2.734  0.3543  0.0966  0.2527
13412SOL    HW140814   7.979   2.614   2.719  1.6844 -0.8415 -1.2712
13412SOL    HW240815   7.992   2.482   2.792  1.2539 -1.0265 -1.5248
13413SOL     OW40816   1.112   7.881   3.641  0.1842  0.1137  0.2636
13413SOL    HW140817   1.115   7.925   3.725  1.8926 -0.9434  0.8215
13413SOL    HW240818   1.172   7.930   3.585 -0.4985  0.4692 -0.1724
13414SOL     OW40819   9.202   5.948   9.698 -0.4609 -0.4369  0.3823
13414SOL    HW140820   9.164   6.033   9.675 -5.2459 -2.1757  0.6410
13414SOL    HW240821   9.225   5.908   9.614  0.8870  0.6470  0.1989
13415SOL     OW40822   8.723   3.377   4.329 -0.2947 -0.0398 -0.0322
13415SOL    HW140823   8.805   3.338   4.300 -1.2990 -1.6239 -0.8880
13415SOL    HW240824   8.710   3.452   4.271  0.2142 -0.1673 -0.3157
13416SOL     OW40825   5.445   3.363   3.009 -0.7108  0.1135  0.6227
13416SOL    HW140826   5.366   3.357   2.956 -0.0625 -0.4355 -0.3197
13416SOL    HW240827   5.501   3.426   2.964 -0.0145 -0.6046  0.4546
13417SOL     OW40828   1.187   2.613   7.610 -0.1446  0.0547 -0.0193
13417SOL    HW140829   1.258   2.601   7.674  0.9609 -1.7223 -1.4674
13417SOL    HW240830   1.177   2.527   7.570 -2.8585  0.3793 -0.1955
13418SOL     OW40831   7.992   3.317   9.455 -0.5491  0.0890  0.0295
13418SOL    HW140832   8.017   3.408   9.439  1.9943 -0.2314  1.6194
13418SOL    HW240833   8.068   3.266   9.427 -1.5196 -1.4875  0.1455
13419SOL     OW40834   0.292   7.429   6.367  0.0784 -0.6019  0.2645
13419SOL    HW140835   0.309   7.348   6.415 -1.9045 -1.7353 -0.8406
13419SOL    HW240836   0.291   7.403   6.275 -2.1283  0.3337 -0.0418
13420SOL     OW40837   7.391   4.131   0.026  0.0412 -0.0768  0.3301
13420SOL    HW140838   7.384   4.098   0.115 -1.5290 -1.7473 -0.3376
13420SOL    HW240839   7.311   4.181   0.013 -0.2285 -0.6722 -0.4199
13421SOL     OW40840   8.855   2.309   1.245  0.7002  0.0714 -0.3324
13421SOL    HW140841   8.843   2.368   1.170 -1.8695  0.2799  0.1513
13421SOL    HW240842   8.822   2.359   1.320 -0.4229 -1.4987  0.2771
13422SOL     OW40843   4.130   6.521   8.080  0.2584 -0.1860  0.0807
13422SOL    HW140844   4.147   6.554   8.169  0.5827  0.0478 -0.0656
13422SOL    HW240845   4.129   6.425   8.091 -2.3313 -0.1645  0.8023
13423SOL     OW40846   9.699   1.535   0.888  0.3991 -0.3735 -0.4418
13423SOL    HW140847   9.708   1.443   0.914 -1.8232 -0.2617  0.9945
13423SOL    HW240848   9.604   1.549   0.885  0.6605  1.4161 -2.4189
13424SOL     OW40849   7.323   9.898   1.632  0.4930  0.3985 -0.6942
13424SOL    HW140850   7.290   9.827   1.688 -0.8181  1.2402 -0.3649
13424SOL    HW240851   7.416   9.878   1.622  0.4172 -0.6826  0.4287
13425SOL     OW40852   4.020   1.984   0.807  0.2460  0.4393  0.1391
13425SOL    HW140853   3.989   2.064   0.765 -1.0839 -0.0106  0.2323
13425SOL    HW240854   4.000   1.914   0.745 -0.5481 -0.0697  0.9443
13426SOL     OW40855   6.946   3.015   1.854 -0.1132 -0.1635  0.1521
13426SOL    HW140856   6.857   2.983   1.862  0.0709 -1.3214 -1.8206
13426SOL    HW240857   6.960   3.026   1.760  1.4373  1.1276  0.4860
13427SOL     OW40858   1.246   8.056   4.308  0.3350  0.2378  0.2562
13427SOL    HW140859   1.312   8.074   4.375 -0.1150  0.6648  0.5971
13427SOL    HW240860   1.246   7.961   4.299 -0.5464  0.0629  1.8476
13428SOL     OW40861   3.102   5.595   5.397  0.1990  0.4389 -0.1790
13428SOL    HW140862   3.124   5.577   5.305 -2.2176  1.4268 -1.0382
13428SOL    HW240863   3.101   5.509   5.439  0.0027 -0.1918 -1.4230
13429SOL     OW40864   8.423   4.662   4.313 -0.2828 -0.0645 -0.9071
13429SOL    HW140865   8.432   4.712   4.395 -1.8473 -0.2255 -0.5960
13429SOL    HW240866   8.367   4.717   4.258  0.6553 -0.0170 -1.8472
13430SOL     OW40867   8.560   4.919   5.916  0.1285 -0.5692  0.0117
13430SOL    HW140868   8.468   4.903   5.932  0.3124 -1.0273  0.6219
13430SOL    HW240869   8.564   5.011   5.890 -0.5678 -0.7150 -0.6298
13431SOL     OW40870   0.243   0.456   6.507  0.0953  0.1571 -0.1630
13431SOL    HW140871   0.191   0.476   6.584 -1.4094 -0.8026 -0.8672
13431SOL    HW240872   0.316   0.517   6.510  0.5732 -0.4314  2.4691
13432SOL     OW40873   9.155   9.971   4.396 -0.7627 -0.3822  0.4998
13432SOL    HW140874   9.140   9.957   4.303 -2.2867  2.4286  0.1936
13432SOL    HW240875   9.078   9.933   4.439 -1.1129  0.1600  0.3726
13433SOL     OW40876   6.963   9.705   6.756  0.1526  0.6826 -0.3682
13433SOL    HW140877   6.935   9.673   6.670  1.1279 -1.2197 -0.0437
13433SOL    HW240878   7.058   9.695   6.755  0.7044  4.5642 -0.5262
13434SOL     OW40879   9.609   7.539   3.109 -0.8787  0.2439  0.0337
13434SOL    HW140880   9.630   7.603   3.176  0.7146  0.2175 -0.4000
13434SOL    HW240881   9.653   7.570   3.030  0.2923 -1.5655 -0.0938
13435SOL     OW40882   7.537   3.339   6.161 -0.6650 -0.7355  0.3596
13435SOL    HW140883   7.518   3.378   6.246  1.6386 -0.6180  0.8926
13435SOL    HW240884   7.594   3.403   6.117 -0.9468 -1.2706 -0.8215
13436SOL     OW40885   3.673   1.598   9.293 -0.0199  0.0508 -0.6782
13436SOL    HW140886   3.741   1.658   9.261 -0.6244  1.0353 -0.1511
13436SOL    HW240887   3.619   1.581   9.216  0.8200 -0.7596 -1.1106
13437SOL     OW40888   9.662   7.705   3.308  0.0415 -0.1870  0.3210
13437SOL    HW140889   9.736   7.702   3.369 -0.1444  0.7975  0.6027
13437SOL    HW240890   9.585   7.709   3.364 -0.0919  1.5657  0.0469
13438SOL     OW40891   0.313   3.248   9.730  1.1466 -0.2551 -0.5010
13438SOL    HW140892   0.287   3.339   9.713 -0.0844 -0.6870 -1.0790
13438SOL    HW240893   0.233   3.197   9.713  1.3470 -1.2925  1.3895
13439SOL     OW40894   0.918   6.428   0.897 -0.1298 -0.5079 -0.2151
13439SOL    HW140895   0.887   6.472   0.976  0.1661 -2.1284  0.8345
13439SOL    HW240896   1.012   6.416   0.911 -0.2269 -1.5745 -0.4237
13440SOL     OW40897   6.332   6.665   0.143  0.0173  0.4343  0.0594
13440SOL    HW140898   6.407   6.676   0.084  0.4012  3.4191  0.9693
13440SOL    HW240899   6.370   6.627   0.222  0.1392 -0.1567 -0.2723
13441SOL     OW40900   1.567   3.773   2.773  0.1531  0.2994  0.1741
13441SOL    HW140901   1.567   3.719   2.694 -1.1221 -0.1561  0.4733
13441SOL    HW240902   1.546   3.713   2.844  0.5419  0.8505  0.7741
13442SOL     OW40903   5.777   0.051   3.811 -0.2964 -0.3281  0.1958
13442SOL    HW140904   5.779  -0.024   3.752 -0.5974 -0.8341  0.8199
13442SOL    HW240905   5.710   0.109   3.775  1.5661  0.8012 -1.6512
13443SOL     OW40906   1.355   7.565   8.619 -0.1243  0.3428  0.1912
13443SOL    HW140907   1.388   7.604   8.701 -2.1559  0.7443  0.8587
13443SOL    HW240908   1.309   7.635   8.575 -1.8335 -0.6789  0.2772
13444SOL     OW40909   4.797   1.676   5.296  0.2085 -0.6154  0.5570
13444SOL    HW140910   4.753   1.612   5.241 -0.1489 -0.2548  0.4215
13444SOL    HW240911   4.863   1.715   5.238 -0.1556 -0.2487  0.3846
13445SOL     OW40912   0.575   2.302   3.030 -0.4551  0.0836 -0.1021
13445SOL    HW140913   0.660   2.312   3.073 -0.9131 -0.6124  1.0378
13445SOL    HW240914   0.540   2.391   3.026  0.9875  0.6134 -2.0818
13446SOL     OW40915   6.989   5.739   2.299  0.0000 -0.3937 -0.0118
13446SOL    HW140916   7.025   5.826   2.320 -0.5948 -0.1435 -0.0238
13446SOL    HW240917   7.053   5.678   2.335  0.7440  0.0479 -0.5375
13447SOL     OW40918   5.906   9.538   4.444  0.1689 -0.8107  0.3071
13447SOL    HW140919   5.935   9.627   4.427  1.0218 -0.8635  1.3549
13447SOL    HW240920   5.953   9.485   4.380  1.7795 -0.7814  1.3740
13448SOL     OW40921   3.151   6.963   4.494  0.0405 -0.0392  0.4024
13448SOL    HW140922   3.205   6.902   4.443 -1.7614 -0.8789 -0.5935
13448SOL    HW240923   3.179   7.049   4.465 -0.5496 -0.4918 -1.6664
13449SOL     OW40924   7.374   4.073   3.043 -0.0815 -0.5794  0.0193
13449SOL    HW140925   7.382   4.142   3.109 -0.1565 -0.9765  0.4525
13449SOL    HW240926   7.446   4.013   3.061 -0.2093 -0.7856 -0.1410
13450SOL     OW40927   1.368   2.366   1.394 -0.3953 -0.4996 -0.5030
13450SOL    HW140928   1.440   2.340   1.337  0.0866 -0.4552  0.0789
13450SOL    HW240929   1.297   2.305   1.373 -0.4667 -0.0407 -1.6397
13451SOL     OW40930   7.963   2.109   8.031  0.3140  0.1006 -0.2751
13451SOL    HW140931   7.963   2.058   8.112  0.3858 -1.4926 -1.2386
13451SOL    HW240932   8.014   2.056   7.970 -0.5833  0.7869 -1.6584
13452SOL     OW40933   5.658   6.215   1.306  0.0424  0.6152  0.2816
13452SOL    HW140934   5.638   6.294   1.358  0.6056 -0.3629  2.0730
13452SOL    HW240935   5.630   6.143   1.362  1.4064 -0.5273 -0.4699
13453SOL     OW40936   1.618   6.699   9.439  0.0938 -0.1944  0.7595
13453SOL    HW140937   1.611   6.754   9.361 -0.2654 -0.7724  0.3840
13453SOL    HW240938   1.617   6.761   9.512  1.0391  0.3972  0.2909
13454SOL     OW40939   6.328   0.114   2.184  0.0900 -0.1587  0.1819
13454SOL    HW140940   6.388   0.166   2.237  2.0890  0.2258 -2.2781
13454SOL    HW240941   6.367   0.026   2.183  0.3575 -0.0438 -0.9756
13455SOL     OW40942   7.482   0.493   6.783 -0.1180 -0.0472  0.2302
13455SOL    HW140943   7.517   0.493   6.694 -1.6593 -1.5554 -0.4125
13455SOL    HW240944   7.447   0.581   6.795 -2.4165 -0.5957 -1.7404
13456SOL     OW40945   1.549   3.424   1.768 -0.4881  0.6873 -0.2551
13456SOL    HW140946   1.559   3.486   1.840 -0.9089 -1.6180  1.9180
13456SOL    HW240947   1.455   3.406   1.765 -0.5214  1.0192 -1.6532
13457SOL     OW40948   3.196   7.298   9.356  0.3455 -0.6371 -0.2782
13457SOL    HW140949   3.250   7.226   9.323 -0.9871 -0.9525 -1.8932
13457SOL    HW240950   3.123   7.256   9.400 -0.4744 -0.3108 -1.2854
13458SOL     OW40951   1.384   6.866   4.593  0.1649 -0.4377 -0.3308
13458SOL    HW140952   1.330   6.889   4.518 -2.2390  0.9481  1.6856
13458SOL    HW240953   1.463   6.921   4.583 -0.2997  0.0422 -1.5834
13459SOL     OW40954   5.343   4.453   6.515  0.2543 -0.0548 -0.2528
13459SOL    HW140955   5.360   4.502   6.595  0.3688  1.4035 -1.1311
13459SOL    HW240956   5.345   4.361   6.542 -0.4967  0.4071  1.5578
13460SOL     OW40957   9.555   8.625   5.595 -0.0220 -0.0883 -0.1430
13460SOL    HW140958   9.467   8.650   5.621  1.4804  2.9632  2.7799
13460SOL    HW240959   9.565   8.535   5.626 -1.5055  0.1931  1.2649
13461SOL     OW40960   9.616   7.224   4.962 -0.4199 -0.3041 -0.1625
13461SOL    HW140961   9.596   7.163   5.033  0.8148  1.4899  1.8800
13461SOL    HW240962   9.535   7.275   4.951 -1.1437 -1.6290 -1.2267
13462SOL     OW40963   2.028   1.526   3.692 -0.2202  0.0707 -0.1147
13462SOL    HW140964   2.058   1.611   3.722  1.1375 -0.4201 -0.0115
13462SOL    HW240965   1.944   1.513   3.736  0.8565  0.1501  2.0889
13463SOL     OW40966   7.618   2.843   4.889  0.2051  0.1633 -0.2191
13463SOL    HW140967   7.618   2.897   4.968  2.0148 -0.1643  0.0285
13463SOL    HW240968   7.622   2.907   4.817 -0.3363  0.4197 -0.0308
13464SOL     OW40969   6.597   9.465   1.080 -0.0799 -0.1070  1.0477
13464SOL    HW140970   6.533   9.470   1.151 -0.7818 -0.2721  0.4362
13464SOL    HW240971   6.545   9.453   1.001  0.6540  0.6765  0.4225
13465SOL     OW40972   8.819   6.160   1.000 -0.3131  0.2778 -0.0273
13465SOL    HW140973   8.867   6.205   1.069 -1.4635  0.8425  0.4361
13465SOL    HW240974   8.852   6.070   1.002  1.1429  0.7893 -0.1493
13466SOL     OW40975   9.621   6.268   3.959  0.4002  0.6013  0.1437
13466SOL    HW140976   9.636   6.248   4.051 -0.2432  0.2362  0.1772
13466SOL    HW240977   9.688   6.331   3.936  0.3983  0.8931  0.9338
13467SOL     OW40978   0.910   8.253   0.693 -0.0059 -0.2086 -0.0353
13467SOL    HW140979   0.879   8.206   0.616 -0.2497  1.4805 -1.0251
13467SOL    HW240980   0.950   8.186   0.748 -0.4661 -1.5681 -1.2973
13468SOL     OW40981   1.128   2.015   7.433 -0.5011  0.1892  0.0726
13468SOL    HW140982   1.162   1.953   7.497 -1.5770  0.4501  0.9142
13468SOL    HW240983   1.107   1.962   7.357  0.3969 -0.1817  0.0648
13469SOL     OW40984   0.040   6.792   8.144 -0.2417  0.3066  0.1495
13469SOL    HW140985   0.125   6.825   8.173  0.3090 -1.2487  0.3716
13469SOL    HW240986   0.031   6.825   8.055  2.1572 -2.1536 -1.1667
13470SOL     OW40987   7.881   3.402   8.443  0.5254  0.4686  0.9230
13470SOL    HW140988   7.877   3.486   8.488  0.4849  1.0312 -0.0984
13470SOL    HW240989   7.797   3.359   8.463 -0.3295  1.5579 -0.2082
13471SOL     OW40990   6.817   1.004   1.819 -0.1208  0.3041  0.8854
13471SOL    HW140991   6.870   0.937   1.778  0.0952 -0.3111  2.1149
13471SOL    HW240992   6.729   0.991   1.785  0.5021  1.4821 -1.3524
13472SOL     OW40993   6.539   2.287   4.109 -0.4717  0.2720 -0.6246
13472SOL    HW140994   6.489   2.276   4.028 -0.7692 -1.1916 -0.2718
13472SOL    HW240995   6.564   2.379   4.110  1.1591 -0.0468 -3.3214
13473SOL     OW40996   3.870   6.109   6.609  0.2224 -0.2232 -0.3357
13473SOL    HW140997   3.920   6.043   6.656 -0.9988 -0.2322  1.0157
13473SOL    HW240998   3.885   6.190   6.658  0.2920  0.1388 -0.9440
13474SOL     OW40999   5.512   8.001   1.629  0.5728 -0.2484  0.0400
13474SOL    HW141000   5.537   8.094   1.630 -0.3089  0.0121  1.4331
13474SOL    HW241001   5.416   8.003   1.621  0.4528 -0.9820  1.0268
13475SOL     OW41002   9.633   8.590   8.980 -0.0407  0.1822  0.1019
13475SOL    HW141003   9.704   8.549   8.931  0.8597 -0.6454  2.0071
13475SOL    HW241004   9.554   8.546   8.949  0.2138  1.0436 -1.9662
13476SOL     OW41005   7.513   2.899   7.190 -0.5862 -0.1965  0.3597
13476SOL    HW141006   7.589   2.871   7.138 -0.2865 -0.2410  0.8125
13476SOL    HW241007   7.437   2.872   7.139 -0.3160 -1.7316  0.7125
13477SOL     OW41008   7.809   8.455   3.535  0.0919  0.2916  0.4033
13477SOL    HW141009   7.880   8.455   3.598  1.0938 -1.7032 -0.6473
13477SOL    HW241010   7.794   8.363   3.514  1.3923  0.8320 -3.9132
13478SOL     OW41011   3.994   7.347   9.324  0.2077  0.3881 -0.3007
13478SOL    HW141012   3.905   7.378   9.308  0.4028  1.4619  0.5916
13478SOL    HW241013   4.044   7.425   9.348  0.9606 -0.4267  0.9606
13479SOL     OW41014   4.622   5.775   0.508  0.7026  0.0272  0.1908
13479SOL    HW141015   4.558   5.750   0.441 -0.6402  2.0209  0.6304
13479SOL    HW241016   4.571   5.785   0.588  1.6701  1.0415  0.7118
13480SOL     OW41017   7.782   9.450   8.067 -0.1941 -0.0300  0.1546
13480SOL    HW141018   7.771   9.436   8.161 -0.7337 -1.6262 -0.1223
13480SOL    HW241019   7.711   9.510   8.044 -0.7064 -0.4517  0.5942
13481SOL     OW41020   7.266   8.603   6.864 -0.3336 -0.2473  0.0299
13481SOL    HW141021   7.202   8.650   6.918  0.0394 -0.7970  0.9734
13481SOL    HW241022   7.351   8.621   6.906  0.0843  0.0996 -0.9362
13482SOL     OW41023   1.333   2.382   5.653  0.0278 -0.3798 -0.0295
13482SOL    HW141024   1.339   2.393   5.558 -0.0455 -2.7967 -0.3692
13482SOL    HW241025   1.250   2.336   5.666  0.5347 -0.9957  1.1196
13483SOL     OW41026   3.284   2.088   5.300 -0.1196 -0.3341 -0.1293
13483SOL    HW141027   3.223   2.132   5.242  0.3585 -0.4090 -0.6976
13483SOL    HW241028   3.237   2.011   5.332  0.0469 -1.0165 -1.4444
13484SOL     OW41029   5.496   0.840   6.517  0.0584  0.2074 -0.6525
13484SOL    HW141030   5.581   0.809   6.484 -0.4101 -0.6749 -1.0918
13484SOL    HW241031   5.492   0.808   6.607 -0.0450 -0.2769 -0.8212
13485SOL     OW41032   6.048   4.351   7.053  0.3544 -0.1119 -0.1354
13485SOL    HW141033   5.958   4.319   7.049 -0.2214  1.3487  0.3461
13485SOL    HW241034   6.097   4.295   6.992 -1.3260  0.4709 -2.1230
13486SOL     OW41035   9.533   1.487   8.407 -0.1363 -0.3402  0.6873
13486SOL    HW141036   9.452   1.440   8.427  0.1335 -0.6034  1.1764
13486SOL    HW241037   9.504   1.563   8.358 -0.6498 -0.6230  0.5369
13487SOL     OW41038   1.683   8.165   8.558 -0.4629  0.1848  0.4010
13487SOL    HW141039   1.725   8.080   8.544 -1.8096 -0.3331 -0.7529
13487SOL    HW241040   1.663   8.167   8.651 -1.2240 -1.1844  0.2918
13488SOL     OW41041   6.347   4.202   1.777 -0.1195  0.1909  0.5333
13488SOL    HW141042   6.363   4.296   1.775  1.8470 -0.1136  0.7627
13488SOL    HW241043   6.265   4.191   1.727 -0.4805  2.0122  0.6614
13489SOL     OW41044   6.437   3.685   1.998 -0.3981 -0.7140  0.2981
13489SOL    HW141045   6.524   3.707   2.032 -0.8358  0.7149  0.5640
13489SOL    HW241046   6.415   3.757   1.939 -0.9414 -1.6365 -0.6627
13490SOL     OW41047   4.035   1.116   0.830  0.2623  0.1353 -0.0845
13490SOL    HW141048   4.068   1.058   0.898 -0.6562  0.0290  0.2870
13490SOL    HW241049   3.984   1.182   0.877 -0.6186 -0.1035 -0.6634
13491SOL     OW41050   7.596  -0.035   7.623  0.6380  0.0311 -0.2754
13491SOL    HW141051   7.537   0.039   7.607  0.5596 -0.2241 -1.2626
13491SOL    HW241052   7.679   0.006   7.646  0.1144  0.3970  1.0833
13492SOL     OW41053   9.642   1.105   3.619 -0.6324  0.0686 -0.3335
13492SOL    HW141054   9.592   1.168   3.568 -0.7770 -0.2260 -0.5608
13492SOL    HW241055   9.581   1.033   3.635 -0.7250  0.3470  0.6291
13493SOL     OW41056   0.849   4.411   8.176  0.3371 -0.1815 -0.5911
13493SOL    HW141057   0.809   4.358   8.107  1.8032 -0.0984 -1.5613
13493SOL    HW241058   0.930   4.365   8.197 -0.0548 -0.1729  1.0665
13494SOL     OW41059   0.033   3.886   2.087  0.1625  0.5734 -0.2067
13494SOL    HW141060   0.047   3.834   2.008 -0.6740 -0.3798  0.2489
13494SOL    HW241061  -0.033   3.837   2.137 -1.4862  2.5956 -0.2474
13495SOL     OW41062   2.983   1.582   2.537  0.3542 -0.0319  0.1995
13495SOL    HW141063   3.066   1.629   2.533  0.5441 -0.3743  0.0911
13495SOL    HW241064   2.928   1.636   2.593  0.6632  0.1751  0.3074
13496SOL     OW41065   6.949   7.335   9.742  0.3267 -0.3103 -0.0199
13496SOL    HW141066   6.928   7.332   9.649 -0.2816 -0.4015  0.1179
13496SOL    HW241067   6.929   7.425   9.769  3.4183  0.6985 -0.6277
13497SOL     OW41068   8.413   3.107   8.830  0.7867  0.3253 -0.4357
13497SOL    HW141069   8.385   3.184   8.879 -1.2045 -0.9648  0.5837
13497SOL    HW241070   8.353   3.038   8.857  2.2997 -1.5316 -1.5537
13498SOL     OW41071   7.536   6.093   8.443  0.6300  0.6272  0.0867
13498SOL    HW141072   7.627   6.078   8.416 -0.2910 -0.5343 -2.8552
13498SOL    HW241073   7.534   6.183   8.475  2.7900  0.6688  0.2178
13499SOL     OW41074   3.059   8.840   0.861 -0.2578  0.1705  0.2786
13499SOL    HW141075   3.062   8.930   0.829 -0.2122  0.2813  0.5914
13499SOL    HW241076   2.969   8.829   0.892 -0.8576 -0.5134 -1.5219
13500SOL     OW41077   2.058   1.030   2.033 -0.1992 -0.2343 -0.3853
13500SOL    HW141078   2.077   0.995   2.120 -2.4447 -0.1164  0.2358
13500SOL    HW241079   2.067   1.125   2.043  0.6757 -0.2870 -0.6148
13501SOL     OW41080   4.650   7.631   2.940 -0.1982  0.0841  0.0797
13501SOL    HW141081   4.629   7.567   2.873  0.7902  0.5120 -0.6657
13501SOL    HW241082   4.617   7.714   2.906 -0.1814  0.2161  0.3768
13502SOL     OW41083   3.544   1.837   6.424 -0.1466  0.7297 -0.7321
13502SOL    HW141084   3.558   1.895   6.348 -1.6198  0.2503 -1.4099
13502SOL    HW241085   3.450   1.818   6.422 -0.1860  0.5825  1.1489
13503SOL     OW41086   6.566   6.072   3.200  0.7159  0.7474 -0.3809
13503SOL    HW141087   6.624   6.014   3.151  0.4222 -0.2543  0.4219
13503SOL    HW241088   6.590   6.160   3.171  0.5502  0.1934 -2.2803
13504SOL     OW41089   1.356   1.025   6.950 -0.2497 -0.4112  0.6286
13504SOL    HW141090   1.366   1.119   6.960  2.3093 -0.5517  0.2266
13504SOL    HW241091   1.399   1.005   6.866 -1.3829 -1.8514  0.3536
13505SOL     OW41092   3.088   8.451   5.053  0.0539  0.2185 -0.1561
13505SOL    HW141093   3.137   8.489   5.126  0.4558 -0.8036  0.1210
13505SOL    HW241094   2.997   8.453   5.081  0.2365 -0.4602  0.5252
13506SOL     OW41095   1.581   0.081   7.898  0.2571  0.1325 -0.1216
13506SOL    HW141096   1.632   0.107   7.975 -0.4765  0.2995  0.3192
13506SOL    HW241097   1.630   0.117   7.823 -0.0495  1.7016  0.3896
13507SOL     OW41098   1.849   7.380   6.397  0.8425 -0.2408  0.0634
13507SOL    HW141099   1.852   7.429   6.479  0.7641  0.2782 -0.2355
13507SOL    HW241100   1.756   7.363   6.383  0.9438 -1.4521  0.7216
13508SOL     OW41101   6.671   2.826   8.638  0.4748 -0.3734 -0.1325
13508SOL    HW141102   6.702   2.738   8.618  2.2166  0.1410  0.2019
13508SOL    HW241103   6.697   2.842   8.729  2.4971  1.4028 -0.9472
13509SOL     OW41104   6.039   5.338   9.773  0.1906  0.2440 -0.0994
13509SOL    HW141105   6.077   5.412   9.820  1.7473  0.3819 -1.4786
13509SOL    HW241106   5.949   5.334   9.803  0.9046  0.7487  2.3355
13510SOL     OW41107   1.878   5.203   1.851  0.3129 -0.0487  0.1872
13510SOL    HW141108   1.938   5.268   1.815  0.1201 -0.7548 -1.4747
13510SOL    HW241109   1.806   5.198   1.788  0.0805 -1.5032  0.5284
13511SOL     OW41110   4.337   3.947   5.884  0.4953 -0.1284 -0.2692
13511SOL    HW141111   4.411   3.969   5.828  1.3402 -1.1222  0.4202
13511SOL    HW241112   4.321   3.854   5.869  0.6890 -0.4005  1.0405
13512SOL     OW41113   0.553   1.023   6.838 -0.5217  0.0124  0.2681
13512SOL    HW141114   0.543   0.952   6.901  2.6686  1.3664  2.5727
13512SOL    HW241115   0.490   1.089   6.867 -0.9165 -0.4029  0.3729
13513SOL     OW41116   1.416   1.225   8.721  0.3623  0.3808 -0.5091
13513SOL    HW141117   1.415   1.133   8.747 -3.2227  0.8290  1.7005
13513SOL    HW241118   1.365   1.228   8.640  0.5555  0.4218 -0.6300
13514SOL     OW41119   6.871   1.171   9.804 -0.2767 -0.7949  0.2007
13514SOL    HW141120   6.952   1.147   9.848  2.1893  0.5915 -3.1662
13514SOL    HW241121   6.874   1.125   9.720 -1.6223  1.2831 -1.0880
13515SOL     OW41122   6.122   1.048   9.068  0.7774  0.8708  0.6775
13515SOL    HW141123   6.091   0.996   8.995 -1.6411 -0.4608  2.5331
13515SOL    HW241124   6.100   1.138   9.044  1.7370  0.7065 -0.9877
13516SOL     OW41125   5.889   3.966   4.989 -0.1690 -0.4904 -0.3531
13516SOL    HW141126   5.934   4.049   4.970 -0.6917 -0.0559  0.2503
13516SOL    HW241127   5.948   3.899   4.955  1.0665  0.0530  0.6144
13517SOL     OW41128   0.781   3.883   3.255 -0.4239  0.3637 -0.0590
13517SOL    HW141129   0.761   3.832   3.333 -0.5179  1.0604  0.3795
13517SOL    HW241130   0.706   3.941   3.244  0.4875  1.6905  0.5200
13518SOL     OW41131   2.718   5.127   9.365  0.5152  0.4953 -0.1274
13518SOL    HW141132   2.771   5.162   9.294  0.2688 -1.4658 -1.3345
13518SOL    HW241133   2.780   5.085   9.424  0.5384  0.4950 -0.1524
13519SOL     OW41134   7.008   5.918   6.185 -0.0516 -0.2649 -0.8669
13519SOL    HW141135   6.929   5.936   6.134 -0.3796 -0.0066 -0.2765
13519SOL    HW241136   6.978   5.859   6.255 -0.1830  1.4453  0.5938
13520SOL     OW41137   0.048   2.908   1.656  0.0843  0.6929  0.2574
13520SOL    HW141138   0.022   2.967   1.727  1.4986  0.1806  1.2414
13520SOL    HW241139   0.133   2.942   1.627  0.4889 -0.3202  0.2214
13521SOL     OW41140   0.613   4.329   4.287  0.6298  1.0353  0.4125
13521SOL    HW141141   0.577   4.418   4.295 -1.8977  0.0138  1.4119
13521SOL    HW241142   0.645   4.325   4.197 -1.5302  2.1941 -0.4836
13522SOL     OW41143   4.517   9.387   8.999 -0.1027 -0.3203  0.0430
13522SOL    HW141144   4.537   9.480   9.006 -1.0927 -0.1651  1.0232
13522SOL    HW241145   4.423   9.381   9.015 -0.0523 -1.4972  0.0069
13523SOL     OW41146   4.674   2.115   4.981  0.0027  0.1042 -0.6372
13523SOL    HW141147   4.613   2.166   4.928 -0.3037  0.4753  0.0589
13523SOL    HW241148   4.624   2.039   5.010 -0.7213  1.2413  1.3408
13524SOL     OW41149   0.709   2.451   1.718  0.0217  0.1797 -0.5747
13524SOL    HW141150   0.716   2.489   1.630  3.7196  0.0796 -0.4873
13524SOL    HW241151   0.733   2.522   1.777  1.2770 -0.6878  0.0158
13525SOL     OW41152   8.210   7.193   3.407  0.4383 -0.2489 -0.5005
13525SOL    HW141153   8.122   7.186   3.443  0.4890  0.3305 -0.2442
13525SOL    HW241154   8.231   7.105   3.375  0.5101 -0.8699  1.1591
13526SOL     OW41155   2.626   9.493   6.976  0.1062  0.8345 -0.9514
13526SOL    HW141156   2.545   9.457   7.013  0.4506 -0.8936 -1.7704
13526SOL    HW241157   2.639   9.444   6.894  0.5788  2.9387 -2.2093
13527SOL     OW41158   0.588   0.303   6.387  0.3246  0.1262  0.1266
13527SOL    HW141159   0.548   0.369   6.331  0.5398  0.4001  0.2944
13527SOL    HW241160   0.576   0.335   6.476  0.7470  0.1235  0.1901
13528SOL     OW41161   6.224   0.836   2.156 -0.0538  0.3275 -0.0853
13528SOL    HW141162   6.231   0.925   2.120 -0.3887 -0.2750 -1.7226
13528SOL    HW241163   6.233   0.848   2.250 -0.1291  2.1069 -0.2648
13529SOL     OW41164   9.179   5.056   6.730  0.2631 -0.2119 -0.4002
13529SOL    HW141165   9.115   5.069   6.800 -0.2551 -1.9822 -0.5041
13529SOL    HW241166   9.210   5.144   6.710 -0.6020  0.4774  1.0899
13530SOL     OW41167   0.882   8.314   2.884  0.6285  0.5256  0.6752
13530SOL    HW141168   0.886   8.244   2.949  0.0829  0.8488  1.0627
13530SOL    HW241169   0.853   8.391   2.933 -0.6008  0.5780 -0.1041
13531SOL     OW41170   1.569   4.323   3.051  0.1508  0.2305  0.8521
13531SOL    HW141171   1.567   4.352   3.142  2.4412 -1.4226  1.5058
13531SOL    HW241172   1.518   4.242   3.050 -0.0780  0.3706  0.5700
13532SOL     OW41173   7.018   9.917   0.555 -0.1212 -0.4716  0.3851
13532SOL    HW141174   6.929   9.887   0.567  0.1805 -1.4407  0.2577
13532SOL    HW241175   7.030   9.922   0.460 -0.5036  1.1121  0.3932
13533SOL     OW41176   9.210   3.798   1.852 -0.1451  0.2045 -0.7197
13533SOL    HW141177   9.281   3.841   1.804  1.0103  2.4621  2.6662
13533SOL    HW241178   9.143   3.866   1.861 -0.2253 -0.0616  0.9595
13534SOL     OW41179   9.725   8.478   8.706 -0.1970  0.0844 -0.8537
13534SOL    HW141180   9.703   8.537   8.634  0.6001 -1.3953 -2.3799
13534SOL    HW241181   9.688   8.394   8.681  0.3597 -0.5394  0.3359
13535SOL     OW41182   8.199   9.571   1.402 -0.0282  0.0673 -0.2397
13535SOL    HW141183   8.217   9.640   1.466  0.3290 -0.0274 -0.2351
13535SOL    HW241184   8.103   9.563   1.401 -0.1659  1.4909 -1.2211
13536SOL     OW41185   7.985   5.515   7.347 -0.1289  0.0374  0.6066
13536SOL    HW141186   7.939   5.433   7.364 -1.0822  0.3187 -0.4650
13536SOL    HW241187   8.077   5.494   7.361 -0.4362 -0.9879  1.1781
13537SOL     OW41188   3.166   3.286   8.871  0.0301 -0.0711 -0.3322
13537SOL    HW141189   3.202   3.371   8.897 -1.4223  0.9774 -1.5381
13537SOL    HW241190   3.202   3.270   8.784 -0.5216 -0.1627 -0.5503
13538SOL     OW41191   3.884   3.083   5.118  0.2685  0.1477 -0.9023
13538SOL    HW141192   3.879   3.054   5.209 -1.8747 -0.1506 -1.0418
13538SOL    HW241193   3.876   3.178   5.121  0.6488  0.1727 -0.7502
13539SOL     OW41194   4.136   9.646   8.585 -0.4396  0.0298 -0.4973
13539SOL    HW141195   4.202   9.647   8.515 -0.4805  1.7170 -0.5464
13539SOL    HW241196   4.056   9.619   8.540 -0.5552  1.4830 -1.2125
13540SOL     OW41197   7.022   7.457   0.089  0.2587  0.4067  0.8604
13540SOL    HW141198   7.051   7.500   0.009  1.2620  0.5613  1.2953
13540SOL    HW241199   6.961   7.389   0.059  0.0633  0.9403  0.0330
13541SOL     OW41200   0.156   0.715   9.248 -0.4944 -0.5207  0.1739
13541SOL    HW141201   0.105   0.779   9.198 -3.3650 -1.5405  1.5780
13541SOL    HW241202   0.130   0.630   9.213  2.5885 -1.0853 -1.0448
13542SOL     OW41203   7.366   4.592   2.514 -0.1718 -0.1081  0.4400
13542SOL    HW141204   7.300   4.622   2.452 -0.2334 -2.6232 -0.8413
13542SOL    HW241205   7.322   4.523   2.565  0.6479  0.1429  1.5346
13543SOL     OW41206   6.119   0.456   6.599 -0.0248  0.1177  0.0650
13543SOL    HW141207   6.123   0.473   6.693 -0.4748  2.2503 -0.2450
13543SOL    HW241208   6.209   0.469   6.568  0.1140 -0.5391  0.1808
13544SOL     OW41209   3.067   1.763   7.538 -0.5733  0.8325  0.5066
13544SOL    HW141210   3.027   1.679   7.562  0.0146  0.3029 -0.2907
13544SOL    HW241211   3.084   1.807   7.621 -3.4154  1.3976  0.8767
13545SOL     OW41212   8.555   6.556   3.960 -0.0847 -0.3415 -0.2520
13545SOL    HW141213   8.495   6.491   3.924 -0.2357 -1.1321  1.3566
13545SOL    HW241214   8.536   6.636   3.910 -3.2846 -0.2323  0.9292
13546SOL     OW41215   6.393   7.353   0.917 -0.0329  0.2718 -0.4693
13546SOL    HW141216   6.336   7.419   0.956 -1.6729 -1.0034 -0.5882
13546SOL    HW241217   6.380   7.362   0.823  0.6762  0.5640 -0.5446
13547SOL     OW41218   7.435   9.726   4.276  0.3240  0.4270  0.2726
13547SOL    HW141219   7.387   9.804   4.305 -1.1092  1.2129 -3.5797
13547SOL    HW241220   7.374   9.653   4.292  1.1830  0.1429  2.7281
13548SOL     OW41221   9.836   2.866   5.668  0.3201  0.1901 -0.1798
13548SOL    HW141222   9.836   2.808   5.744 -1.2069 -0.0151 -0.2909
13548SOL    HW241223   9.753   2.913   5.674  1.3468  2.1150 -0.3092
13549SOL     OW41224   0.801   5.458   0.365 -0.6467 -0.1807  0.2510
13549SOL    HW141225   0.803   5.469   0.270 -1.0787 -2.2370 -0.0387
13549SOL    HW241226   0.714   5.488   0.391 -0.1907  1.2850  0.1468
13550SOL     OW41227   8.958   0.866   1.609 -0.3427 -0.0230  0.0456
13550SOL    HW141228   9.015   0.818   1.669  0.5649 -0.3314 -1.0368
13550SOL    HW241229   9.016   0.928   1.565 -0.5907 -1.0620 -1.8474
13551SOL     OW41230   3.719   4.625   7.172  0.1825 -0.0716  0.7055
13551SOL    HW141231   3.749   4.673   7.249 -1.7929  0.9813  0.8846
13551SOL    HW241232   3.648   4.679   7.136 -1.4387 -2.3119  0.2962
13552SOL     OW41233   0.306   2.547   2.634 -0.0296 -0.2052 -0.2373
13552SOL    HW141234   0.218   2.540   2.598 -0.2304  0.1796  0.1701
13552SOL    HW241235   0.360   2.493   2.576 -0.6815 -1.1764  0.0286
13553SOL     OW41236   8.600   2.687   8.714  0.0633  0.1186 -0.3570
13553SOL    HW141237   8.553   2.724   8.640 -0.0361  0.1937 -0.2562
13553SOL    HW241238   8.613   2.595   8.690  0.7544  0.3290 -0.8332
13554SOL     OW41239   0.034   5.119   9.425 -0.8158  0.4248  0.1772
13554SOL    HW141240  -0.044   5.082   9.384  0.2254  0.0109 -1.5234
13554SOL    HW241241   0.047   5.203   9.381 -0.0779  0.3091  0.1630
13555SOL     OW41242   4.572   6.579   0.176  0.2300  0.3523  0.4625
13555SOL    HW141243   4.537   6.491   0.162  1.1766 -0.0115  0.3394
13555SOL    HW241244   4.525   6.634   0.113 -0.3191 -0.0729  0.4944
13556SOL     OW41245   6.996   2.851   9.375  0.0150  0.3898  0.9617
13556SOL    HW141246   6.978   2.916   9.443 -2.1655  0.5622  0.2805
13556SOL    HW241247   7.019   2.902   9.298 -0.5603  0.3169  0.7401
13557SOL     OW41248   7.920   8.679   5.163 -0.0973 -0.4218  0.1838
13557SOL    HW141249   7.929   8.750   5.099  3.2113 -1.4843 -0.7302
13557SOL    HW241250   7.859   8.618   5.122 -1.8464  1.1384  0.3304
13558SOL     OW41251   5.994   3.640   9.064 -0.4310 -0.4212 -0.3888
13558SOL    HW141252   6.027   3.652   8.975  0.1745  2.7610  0.1413
13558SOL    HW241253   6.072   3.642   9.119 -0.9798  0.3003  0.3920
13559SOL     OW41254   6.973   9.634   2.839 -0.6010 -0.0873  0.3422
13559SOL    HW141255   6.995   9.572   2.908 -1.7609  0.8771  1.6382
13559SOL    HW241256   7.019   9.601   2.761  0.4909 -1.3743  1.4782
13560SOL     OW41257   4.003   4.589   5.061 -0.3036 -0.1318  0.0870
13560SOL    HW141258   4.008   4.628   5.148 -2.0713  0.7619 -0.1664
13560SOL    HW241259   4.017   4.663   5.001 -2.4968 -0.0538 -0.3892
13561SOL     OW41260   7.469   8.774   5.385 -0.4196 -0.8283 -1.0348
13561SOL    HW141261   7.441   8.783   5.293 -0.2562  0.2038 -1.0038
13561SOL    HW241262   7.470   8.680   5.401  2.2112 -1.2336 -2.9309
13562SOL     OW41263   5.365   6.779   8.680  0.0895  0.4459 -0.0698
13562SOL    HW141264   5.313   6.812   8.607 -0.7839  0.6365  0.6128
13562SOL    HW241265   5.320   6.699   8.708 -0.2378  0.9546  0.9347
13563SOL     OW41266   5.175   0.748   2.960 -0.1807  0.0062 -0.5067
13563SOL    HW141267   5.257   0.797   2.957 -0.5610  0.6707 -0.3890
13563SOL    HW241268   5.121   0.796   3.024  0.7491 -2.6631  2.5335
13564SOL     OW41269   6.205   6.678   8.566 -0.1464 -0.0355  0.2678
13564SOL    HW141270   6.263   6.618   8.519  0.3561  0.0920  0.7140
13564SOL    HW241271   6.238   6.677   8.656  0.8064  2.0508 -0.0144
13565SOL     OW41272   1.576   6.835   4.888  0.0866  0.3272  0.0615
13565SOL    HW141273   1.628   6.833   4.807 -0.4557 -0.2408 -0.2783
13565SOL    HW241274   1.517   6.761   4.880  0.0827  0.2206  1.0288
13566SOL     OW41275   8.651   0.450   9.476 -0.3721 -0.7016  0.2994
13566SOL    HW141276   8.641   0.484   9.387  0.5283 -0.6762  0.2009
13566SOL    HW241277   8.706   0.372   9.467  1.8672  0.6896  1.0848
13567SOL     OW41278   0.325   3.869   9.536 -0.4478 -0.2904 -0.3129
13567SOL    HW141279   0.246   3.904   9.496  0.7610 -0.6282 -3.3107
13567SOL    HW241280   0.348   3.794   9.481  2.1367  0.0181  0.1964
13568SOL     OW41281   0.028   7.418   8.682  0.4437  0.5580  0.0269
13568SOL    HW141282   0.082   7.493   8.708  0.1545  0.8897 -0.3351
13568SOL    HW241283   0.004   7.436   8.592 -1.9899  1.4289  0.7783
13569SOL     OW41284   2.745   5.857   0.424 -0.6371  0.4964  0.2224
13569SOL    HW141285   2.689   5.906   0.484 -0.4335  1.3648 -0.2683
13569SOL    HW241286   2.782   5.924   0.366  1.6565  0.1150  1.1152
13570SOL     OW41287   6.815   7.912   6.606 -0.1817 -0.1567 -0.7956
13570SOL    HW141288   6.808   7.823   6.639 -1.9161 -0.1720 -1.0975
13570SOL    HW241289   6.881   7.954   6.662  0.3440 -1.4895 -0.3802
13571SOL     OW41290   6.914   6.823   2.683 -0.1611 -0.1111 -0.5161
13571SOL    HW141291   6.863   6.890   2.637  0.2223  1.1278  0.7893
13571SOL    HW241292   6.891   6.741   2.639 -0.5377  0.8739 -2.2619
13572SOL     OW41293   1.894   4.183   2.610 -0.2822 -0.0556  0.0093
13572SOL    HW141294   1.825   4.186   2.677 -0.1889 -1.6217  0.2214
13572SOL    HW241295   1.967   4.231   2.649 -1.2948  1.8503 -0.3168
13573SOL     OW41296   8.770   6.821   4.647 -0.5113  0.1175  0.0729
13573SOL    HW141297   8.740   6.870   4.724 -0.1307 -0.3913  0.5541
13573SOL    HW241298   8.743   6.874   4.573 -2.0283  0.0132  0.5063
13574SOL     OW41299   5.765   4.587   2.928  0.1090  0.2551  0.0008
13574SOL    HW141300   5.731   4.609   2.841 -0.3760  0.1066  0.1474
13574SOL    HW241301   5.811   4.504   2.916 -0.5968 -0.1472  0.0274
13575SOL     OW41302   7.041   8.622   0.540 -0.2913 -0.2148  0.5984
13575SOL    HW141303   7.080   8.667   0.616 -0.0926 -1.2286  1.1124
13575SOL    HW241304   6.957   8.589   0.573 -0.5366 -0.0367  0.1597
13576SOL     OW41305   4.864   3.989   2.605  0.4540 -0.2152 -0.1790
13576SOL    HW141306   4.948   3.976   2.560  0.9659 -1.2133  1.0092
13576SOL    HW241307   4.829   3.900   2.616 -0.1049  0.0912  0.5536
13577SOL     OW41308   4.696   5.336   0.120 -0.3731 -0.4312  0.1818
13577SOL    HW141309   4.685   5.420   0.077 -0.8557 -0.3019  0.5552
13577SOL    HW241310   4.756   5.288   0.063  0.4705  0.4217  0.3370
13578SOL     OW41311   5.827   6.197   2.666  0.1926 -0.1676 -0.7798
13578SOL    HW141312   5.757   6.208   2.601  0.1281 -2.6493 -1.2174
13578SOL    HW241313   5.853   6.106   2.658  0.7537 -0.3589  2.1618
13579SOL     OW41314   3.088   7.300   1.980 -0.1604  0.1580 -0.1784
13579SOL    HW141315   3.002   7.342   1.985 -0.8553 -1.1297 -0.8849
13579SOL    HW241316   3.149   7.373   1.969 -1.0200  1.1897  1.4926
13580SOL     OW41317   8.574   5.216   8.690  0.2249 -0.4411 -0.3296
13580SOL    HW141318   8.496   5.197   8.639 -0.3198  0.7869  0.0086
13580SOL    HW241319   8.627   5.272   8.633  0.6158 -0.8346 -0.3589
13581SOL     OW41320   3.996   3.925   1.804  0.5979 -0.2073 -0.0376
13581SOL    HW141321   4.023   3.848   1.755  2.0161  0.6358 -0.6462
13581SOL    HW241322   4.074   3.979   1.810 -0.4292  1.3521  0.0783
13582SOL     OW41323   5.811   5.162   5.364 -0.1257 -0.2384  0.1231
13582SOL    HW141324   5.790   5.235   5.305 -0.7918 -0.5368 -0.0268
13582SOL    HW241325   5.842   5.203   5.444 -1.4739  0.2703  0.4199
13583SOL     OW41326   6.434   7.327   3.766 -0.3540 -0.0265  0.1318
13583SOL    HW141327   6.357   7.340   3.821 -0.1721 -1.2684  0.7181
13583SOL    HW241328   6.508   7.326   3.828 -0.0271 -0.2931 -0.2528
13584SOL     OW41329   6.930   8.978   8.464  0.0338  0.0830 -0.4576
13584SOL    HW141330   6.861   8.995   8.528  2.7423  1.6657  2.2820
13584SOL    HW241331   6.963   8.891   8.488  0.6068  0.3892 -0.1222
13585SOL     OW41332   1.723   8.149   2.812  0.3288  0.8232 -0.2467
13585SOL    HW141333   1.806   8.172   2.770  0.8621  1.0728  0.9089
13585SOL    HW241334   1.746   8.133   2.903 -1.1704  2.8263  0.5540
13586SOL     OW41335   7.613   9.625   1.132  0.1492  0.1293 -0.6755
13586SOL    HW141336   7.680   9.687   1.158  1.1235 -1.4626  0.8339
13586SOL    HW241337   7.636   9.601   1.042  0.5915  0.8870 -0.7692
13587SOL     OW41338   0.817   1.602   1.867  0.3278  0.5126  0.3103
13587SOL    HW141339   0.760   1.672   1.901 -0.8327  0.2265 -0.9436
13587SOL    HW241340   0.842   1.633   1.780  0.6393 -0.1865  0.1509
13588SOL     OW41341   7.926   4.335   3.740  0.2429 -0.6320 -0.6547
13588SOL    HW141342   7.991   4.270   3.713  0.5251 -0.8119  0.4256
13588SOL    HW241343   7.920   4.394   3.665 -1.3360 -2.8484 -2.4329
13589SOL     OW41344   4.431   3.388   0.890  0.2214 -0.1279 -0.0593
13589SOL    HW141345   4.437   3.365   0.983 -0.6985 -0.7595 -0.1381
13589SOL    HW241346   4.375   3.466   0.888  1.6295  0.9396  0.0312
13590SOL     OW41347   3.259   0.649   6.573 -0.0927 -0.0600  0.0197
13590SOL    HW141348   3.207   0.726   6.550  2.7159  1.5918 -1.3380
13590SOL    HW241349   3.290   0.667   6.662  2.0821  1.4621 -0.9353
13591SOL     OW41350   5.803   0.491   6.297 -0.1134 -0.4596  0.4828
13591SOL    HW141351   5.803   0.528   6.386 -1.6563 -0.6602  0.5997
13591SOL    HW241352   5.857   0.413   6.304  1.2402  0.4680  0.8060
13592SOL     OW41353   5.878   3.160   2.243 -0.4383 -0.1396 -0.2039
13592SOL    HW141354   5.889   3.255   2.240 -0.1097 -0.1952 -0.8796
13592SOL    HW241355   5.788   3.148   2.274 -0.4747  0.3886 -0.0878
13593SOL     OW41356   2.717   3.273   6.606  0.2183 -0.0008 -0.1857
13593SOL    HW141357   2.786   3.209   6.626  0.5986  0.6641  0.6991
13593SOL    HW241358   2.639   3.237   6.648 -0.3085 -1.3750 -2.2153
13594SOL     OW41359   1.428   6.570   0.224 -0.1208  0.0158  0.2352
13594SOL    HW141360   1.451   6.613   0.307 -2.4787  0.3099  0.8253
13594SOL    HW241361   1.385   6.488   0.251  1.5849 -1.2725 -0.8113
13595SOL     OW41362   2.323   3.833   9.745 -0.0353 -0.3138  0.1311
13595SOL    HW141363   2.323   3.843   9.840 -1.7052  1.2211  0.0288
13595SOL    HW241364   2.391   3.894   9.715 -0.8046  0.6163  0.2537
13596SOL     OW41365   1.414   2.604   7.019 -0.1705  0.2437  0.2787
13596SOL    HW141366   1.493   2.562   7.055 -0.6868 -1.4294 -0.4420
13596SOL    HW241367   1.358   2.531   6.993 -0.8342  1.3827 -1.6983
13597SOL     OW41368   0.477   7.301   8.636 -0.1503 -0.4943  0.3104
13597SOL    HW141369   0.416   7.312   8.709  0.1654 -0.8419  0.6299
13597SOL    HW241370   0.443   7.359   8.568 -0.7826 -0.6176  0.5156
13598SOL     OW41371   5.194   6.048   4.867  0.1425 -0.7739 -0.3473
13598SOL    HW141372   5.212   6.137   4.836 -0.0160 -1.2067 -1.7936
13598SOL    HW241373   5.249   5.992   4.811  0.7062 -1.5589  0.9467
13599SOL     OW41374   0.186   4.236   1.227  0.2806 -0.7714 -0.5065
13599SOL    HW141375   0.216   4.327   1.236  1.4743 -1.1304 -0.6926
13599SOL    HW241376   0.120   4.226   1.295  0.0523  0.2667 -0.5508
13600SOL     OW41377   4.012   2.908   6.358 -0.3483 -0.2090 -0.3328
13600SOL    HW141378   3.926   2.912   6.400  0.1714  2.1050  0.6863
13600SOL    HW241379   4.014   2.985   6.301  0.7401 -0.7253 -1.0288
13601SOL     OW41380   2.988   4.663   5.952  0.7053 -0.2646  0.1375
13601SOL    HW141381   3.022   4.614   5.877  0.7637  2.3290 -1.6851
13601SOL    HW241382   2.906   4.702   5.919  0.4297  0.4733  1.6223
13602SOL     OW41383   8.551   7.251   9.858 -0.0725  0.7298 -0.2272
13602SOL    HW141384   8.483   7.241   9.925 -0.9573  1.2250 -1.0277
13602SOL    HW241385   8.503   7.270   9.778  1.0260  1.2178 -0.7902
13603SOL     OW41386   6.820   9.360   1.246 -0.0695  0.6827  0.2510
13603SOL    HW141387   6.836   9.454   1.241 -0.0396  0.6425 -0.5378
13603SOL    HW241388   6.741   9.345   1.194  0.7143  0.1009 -0.8220
13604SOL     OW41389   3.884   4.886   7.536  0.0815 -0.1847  0.6342
13604SOL    HW141390   3.866   4.805   7.488  1.4247  0.2269 -0.6425
13604SOL    HW241391   3.968   4.870   7.580  1.9768  1.4286 -2.0552
13605SOL     OW41392   1.339   0.030   7.766  0.1020  0.1112 -0.3642
13605SOL    HW141393   1.345  -0.006   7.678 -1.0094  3.9597 -2.2719
13605SOL    HW241394   1.429   0.040   7.795  0.4827 -1.1509 -1.0452
13606SOL     OW41395   0.207   3.078   4.651  0.2607  0.0310 -0.0440
13606SOL    HW141396   0.170   3.102   4.735 -0.7102 -0.2867 -0.3705
13606SOL    HW241397   0.299   3.058   4.670  1.2823  4.1850  0.1914
13607SOL     OW41398   5.871   4.115   7.623  0.0588 -0.3287  0.2410
13607SOL    HW141399   5.854   4.052   7.552  3.0865 -0.6437 -0.3232
13607SOL    HW241400   5.855   4.065   7.703  0.7730 -1.3508 -0.2210
13608SOL     OW41401   1.569   2.273   2.531 -0.1395  0.5767 -0.1947
13608SOL    HW141402   1.477   2.258   2.554  0.0127 -0.9162 -0.4690
13608SOL    HW241403   1.589   2.207   2.465  1.6077 -0.2581  1.0902
13609SOL     OW41404   2.185   8.264   2.374  0.3857 -0.8582  0.5892
13609SOL    HW141405   2.252   8.258   2.306  1.1389 -2.3711  1.4212
13609SOL    HW241406   2.162   8.357   2.377 -0.4258 -0.8642 -2.4121
13610SOL     OW41407   2.479   1.429   0.334  0.2596 -0.1934 -0.5376
13610SOL    HW141408   2.481   1.511   0.383 -2.1622 -0.5458  0.2836
13610SOL    HW241409   2.552   1.436   0.273  1.3266  1.7051  0.8397
13611SOL     OW41410   2.808   8.503   2.599  0.2293  0.3416  0.3945
13611SOL    HW141411   2.797   8.481   2.507 -0.6943  1.3946  0.2337
13611SOL    HW241412   2.869   8.577   2.599  1.5820 -0.7217  0.7757
13612SOL     OW41413   6.166   3.554   4.031  0.4775  0.1974 -0.0935
13612SOL    HW141414   6.129   3.642   4.021 -0.5513 -0.2946 -0.8359
13612SOL    HW241415   6.209   3.556   4.117  0.5055  1.4326 -0.1150
13613SOL     OW41416   3.304   8.020   2.464  0.2015  0.4299  0.4972
13613SOL    HW141417   3.309   7.928   2.437 -1.1689  0.2601  0.7486
13613SOL    HW241418   3.248   8.019   2.542 -1.2467  1.6365 -0.4612
13614SOL     OW41419   4.130   3.614   1.782 -0.3196 -0.2881 -0.2090
13614SOL    HW141420   4.172   3.678   1.841 -0.5374 -0.2106 -0.1347
13614SOL    HW241421   4.138   3.653   1.695 -1.8347  0.6157  0.0099
13615SOL     OW41422   0.865   7.318   6.077 -0.0757 -0.3942  0.4235
13615SOL    HW141423   0.822   7.255   6.019 -1.1635  0.0662  0.6874
13615SOL    HW241424   0.855   7.280   6.164  3.1911 -2.0111  0.2328
13616SOL     OW41425   8.765   2.169   0.621  0.0888  0.0367 -0.3420
13616SOL    HW141426   8.809   2.084   0.621  1.3895  0.6840 -1.2436
13616SOL    HW241427   8.728   2.176   0.709 -0.7085 -1.7773 -0.4878
13617SOL     OW41428   8.139   5.922   6.148 -0.3875 -0.4462  0.4940
13617SOL    HW141429   8.115   5.976   6.072  1.9240 -0.5936 -0.4598
13617SOL    HW241430   8.120   5.832   6.120 -0.5404 -0.4131  0.4941
13618SOL     OW41431   3.611   9.893   1.503  0.4968  0.1447 -0.0378
13618SOL    HW141432   3.597   9.951   1.428  0.6793 -2.8603 -2.5554
13618SOL    HW241433   3.705   9.896   1.518  0.4371  0.8970  0.2672
13619SOL     OW41434   7.707   9.953   3.076  0.8057  0.0556  0.3383
13619SOL    HW141435   7.755   9.974   3.156  1.7567 -5.3858  1.6235
13619SOL    HW241436   7.773   9.960   3.006  1.6772 -0.8263  1.0353
13620SOL     OW41437   1.424   9.397   8.591 -0.4287  0.2758  0.2414
13620SOL    HW141438   1.396   9.485   8.618  0.1959  0.1538  1.3434
13620SOL    HW241439   1.510   9.386   8.632  0.6319  0.0880 -1.9096
13621SOL     OW41440   8.625   8.891   9.274 -0.0174 -0.2643 -0.2305
13621SOL    HW141441   8.606   8.966   9.216  0.0293  0.2096  0.3604
13621SOL    HW241442   8.639   8.818   9.214 -0.7909  0.0326 -0.7950
13622SOL     OW41443   0.672   0.170   8.236  0.2460  0.2200 -0.5163
13622SOL    HW141444   0.745   0.230   8.250 -0.4885  1.1651 -0.6478
13622SOL    HW241445   0.671   0.114   8.314  0.4353  0.9241 -0.0006
13623SOL     OW41446   7.105   1.339   4.287 -0.1687  0.5821 -0.1488
13623SOL    HW141447   7.061   1.313   4.368 -0.1423 -1.0926 -0.6224
13623SOL    HW241448   7.034   1.359   4.227 -0.2830 -0.5296 -0.4153
13624SOL     OW41449   2.295   7.151   8.098  0.4656 -0.0913 -0.8128
13624SOL    HW141450   2.354   7.223   8.122 -1.5141  0.7944  1.9437
13624SOL    HW241451   2.210   7.193   8.085 -0.7918 -1.8837  1.0337
13625SOL     OW41452   7.130   3.494   9.916 -0.1295  0.4153  0.3534
13625SOL    HW141453   7.112   3.438   9.991 -1.3756  0.9152  0.4565
13625SOL    HW241454   7.065   3.468   9.850 -0.2577  1.2327  0.1434
13626SOL     OW41455   0.530   7.830   1.911  0.3662 -0.5160 -0.6830
13626SOL    HW141456   0.520   7.746   1.865 -3.1857 -1.2674  1.1043
13626SOL    HW241457   0.537   7.805   2.003 -1.1423  1.0802 -0.0847
13627SOL     OW41458   3.543   1.734   3.532  0.1605 -0.6498  0.0365
13627SOL    HW141459   3.617   1.693   3.489  1.2442  1.8715 -0.6989
13627SOL    HW241460   3.569   1.742   3.624  1.6808  1.8190 -0.5228
13628SOL     OW41461   3.942   4.230   9.335  0.1751 -0.2649  0.4837
13628SOL    HW141462   3.967   4.215   9.426 -1.1686 -2.3371  0.5801
13628SOL    HW241463   4.005   4.294   9.303  1.1043 -0.0025  2.6650
13629SOL     OW41464   9.298   6.875   5.533  0.3373  0.7493 -0.2166
13629SOL    HW141465   9.252   6.868   5.449 -0.5797  0.6948  0.2829
13629SOL    HW241466   9.391   6.883   5.508  0.2065 -0.4500 -1.2002
13630SOL     OW41467   7.837   2.843   1.523 -0.6519  0.2491  0.6823
13630SOL    HW141468   7.906   2.778   1.538  0.1964  1.0867  0.5206
13630SOL    HW241469   7.778   2.801   1.460  0.0070 -0.2771  0.4046
13631SOL     OW41470  -0.005   6.157   0.722  0.5633 -0.1739  0.2608
13631SOL    HW141471   0.029   6.176   0.810 -1.0896 -0.4518  0.9895
13631SOL    HW241472  -0.019   6.244   0.684  0.9595 -0.0476  0.3899
13632SOL     OW41473   6.276   7.459   3.401  0.1448 -0.4590 -0.7142
13632SOL    HW141474   6.265   7.403   3.324 -2.1789 -1.0433 -0.0631
13632SOL    HW241475   6.188   7.493   3.418  0.6581 -0.0682  1.4512
13633SOL     OW41476   8.022   4.164   8.390  0.2075  0.2914  0.4472
13633SOL    HW141477   8.076   4.159   8.311  0.0804  0.6628  0.3333
13633SOL    HW241478   7.945   4.111   8.370 -1.1136  2.4908 -0.7257
13634SOL     OW41479   1.085   2.596   8.175 -0.4272 -0.3758  0.3696
13634SOL    HW141480   1.057   2.688   8.176  0.6336 -0.0245  2.3036
13634SOL    HW241481   1.003   2.547   8.170 -0.9979  0.6345 -1.0990
13635SOL     OW41482   9.077   8.201   9.767  0.1516 -0.5205 -1.1500
13635SOL    HW141483   9.130   8.279   9.749  0.9682 -1.2266 -1.8958
13635SOL    HW241484   9.141   8.133   9.788 -0.5277  0.0765  4.6498
13636SOL     OW41485   1.652   2.304   8.304  0.0355  0.2507  0.0222
13636SOL    HW141486   1.748   2.295   8.305  0.0943  0.6265  1.8393
13636SOL    HW241487   1.620   2.214   8.305  0.4207  0.1012  1.3658
13637SOL     OW41488   4.507   1.956   6.695 -0.1582  0.1080 -0.1194
13637SOL    HW141489   4.416   1.936   6.719 -0.8425  1.0149 -1.8149
13637SOL    HW241490   4.550   1.975   6.779 -0.8348 -2.8237  1.0130
13638SOL     OW41491   3.794   8.414   8.551  0.1489 -0.2508  0.6548
13638SOL    HW141492   3.744   8.467   8.489  0.7249  0.1854  0.5527
13638SOL    HW241493   3.762   8.325   8.537 -0.9234  0.0741  0.9147
13639SOL     OW41494   2.996   6.862   2.051 -0.2363 -0.5565  0.2214
13639SOL    HW141495   2.914   6.815   2.057 -0.3593 -0.2665  0.8514
13639SOL    HW241496   3.041   6.845   2.134  0.0565 -0.1990  0.1418
13640SOL     OW41497   8.876   1.874   2.900 -0.2455 -0.0248  0.1206
13640SOL    HW141498   8.905   1.942   2.839  1.7720 -0.3674  0.6420
13640SOL    HW241499   8.781   1.869   2.886 -0.1556  1.4611 -1.3694
13641SOL     OW41500   2.410   8.719   8.505  0.6883  0.0786  0.2795
13641SOL    HW141501   2.322   8.712   8.544  0.6943 -0.0624  0.2671
13641SOL    HW241502   2.463   8.658   8.556  0.5659 -0.5440 -0.3228
13642SOL     OW41503   5.468   2.559   2.056 -0.5422  0.3769  0.4673
13642SOL    HW141504   5.492   2.578   1.965  2.0914 -1.5701  0.6413
13642SOL    HW241505   5.460   2.645   2.097  1.3129  1.3040 -0.9208
13643SOL     OW41506   6.838   8.846   9.431 -0.3063  0.0146 -0.2514
13643SOL    HW141507   6.853   8.752   9.445 -0.5865 -0.0040 -0.0707
13643SOL    HW241508   6.783   8.850   9.353  1.1753  0.1113 -1.3461
13644SOL     OW41509   7.081   3.580   0.627 -0.1593 -0.4413  0.0105
13644SOL    HW141510   7.096   3.494   0.588  1.8858 -0.8763  1.6055
13644SOL    HW241511   7.168   3.618   0.637 -0.7964  0.7336  1.6457
13645SOL     OW41512   9.159   5.863   3.207  0.3902 -0.5405 -0.5646
13645SOL    HW141513   9.105   5.806   3.262 -0.5391  0.3532 -0.5269
13645SOL    HW241514   9.166   5.944   3.257  3.0112 -1.0888  0.1195
13646SOL     OW41515   5.045   9.350   0.080  0.5196  0.1249  0.0215
13646SOL    HW141516   5.019   9.421   0.022 -0.6919 -1.0511 -0.9129
13646SOL    HW241517   4.975   9.344   0.145  0.2910 -0.6183 -0.2834
13647SOL     OW41518   5.878   0.495   1.623 -0.0015 -0.5054  0.5284
13647SOL    HW141519   5.804   0.529   1.573 -0.2899 -0.3504  1.0501
13647SOL    HW241520   5.941   0.466   1.557 -0.8222 -1.2988  0.0815
13648SOL     OW41521   4.857   3.973   6.109  0.2199 -0.1096  0.0896
13648SOL    HW141522   4.770   3.995   6.141  0.9383  2.7053  0.4369
13648SOL    HW241523   4.894   3.917   6.177 -1.2797 -1.3081 -0.0471
13649SOL     OW41524   3.907   6.695   0.318  0.0046 -0.3212  0.0242
13649SOL    HW141525   3.834   6.705   0.379 -0.1522 -1.9807  0.1540
13649SOL    HW241526   3.865   6.693   0.232 -0.1433 -1.2491  0.0972
13650SOL     OW41527   1.451   3.571   3.077  0.1705  0.0440 -0.1244
13650SOL    HW141528   1.376   3.631   3.082  0.7429  0.6842  1.3741
13650SOL    HW241529   1.505   3.595   3.152  0.9101 -1.7257 -0.0553
13651SOL     OW41530   9.933   5.385   7.014  0.4338  0.3064  0.1293
13651SOL    HW141531   9.904   5.446   6.946  0.6702  0.5827  0.2711
13651SOL    HW241532  10.007   5.339   6.974 -1.6663 -2.2075 -1.1753
13652SOL     OW41533   7.627   3.611   2.821 -0.8153 -0.2684  0.0330
13652SOL    HW141534   7.628   3.607   2.916  0.5763  1.2498  0.1411
13652SOL    HW241535   7.672   3.694   2.800 -3.1658  0.6391 -1.8800
13653SOL     OW41536   0.357   4.623   2.207 -0.1304 -0.4636 -0.2024
13653SOL    HW141537   0.399   4.702   2.172  0.2441 -0.0038  1.2243
13653SOL    HW241538   0.350   4.639   2.301 -1.3203 -1.5600 -0.0798
13654SOL     OW41539   8.496   8.406   2.236 -0.2948 -0.0364 -0.3643
13654SOL    HW141540   8.507   8.370   2.148 -1.1248 -0.8486 -0.1485
13654SOL    HW241541   8.530   8.338   2.295  0.7392  0.7127 -0.0595
13655SOL     OW41542   9.410   3.203   9.955  0.2554 -0.0109 -0.1953
13655SOL    HW141543   9.338   3.147   9.927 -0.4467  0.9979 -0.4577
13655SOL    HW241544   9.369   3.268  10.012  1.0600  0.2099  0.1502
13656SOL     OW41545   0.836   7.077   1.985 -0.0305 -0.3018 -0.3132
13656SOL    HW141546   0.896   7.059   1.913 -0.1339  0.1720 -0.5164
13656SOL    HW241547   0.779   7.000   1.989  1.7232 -1.6176  1.0450
13657SOL     OW41548   1.894   9.152   8.872  0.1985 -0.5129  0.5198
13657SOL    HW141549   1.816   9.117   8.915  0.2645 -0.9571  0.2883
13657SOL    HW241550   1.950   9.075   8.860  0.8942 -0.1175  1.1541
13658SOL     OW41551   1.817   3.340   8.672 -0.3482  0.0817 -1.0460
13658SOL    HW141552   1.769   3.398   8.612 -0.8143 -0.6260 -1.3677
13658SOL    HW241553   1.865   3.280   8.614 -1.9260 -1.5430 -0.7597
13659SOL     OW41554   2.813   7.456   4.447  0.1338  0.0639  0.2181
13659SOL    HW141555   2.860   7.499   4.376 -2.3900  1.1890 -0.8975
13659SOL    HW241556   2.796   7.367   4.414 -1.6927  0.8062 -1.0368
13660SOL     OW41557   2.817   2.427   4.231 -0.1612 -0.5692  0.4714
13660SOL    HW141558   2.742   2.435   4.171  0.3407  0.0954 -0.0986
13660SOL    HW241559   2.892   2.455   4.178  0.4143 -0.7525  1.1806
13661SOL     OW41560   3.698   8.884   2.329  0.1026  0.2374  0.0056
13661SOL    HW141561   3.727   8.887   2.238 -0.4645 -1.9067 -0.2989
13661SOL    HW241562   3.726   8.968   2.366  1.2374  0.7362 -1.8547
13662SOL     OW41563   2.623   0.444   4.412  0.1999  0.1515 -0.6012
13662SOL    HW141564   2.632   0.518   4.353  1.5880 -0.4019 -1.1314
13662SOL    HW241565   2.614   0.368   4.354 -1.1597 -0.1358 -0.0720
13663SOL     OW41566   2.657   9.787   8.041  0.6272  0.0091 -0.1453
13663SOL    HW141567   2.582   9.735   8.070  0.9833  0.3561  1.4896
13663SOL    HW241568   2.662   9.771   7.947 -1.2372 -0.3485 -0.2291
13664SOL     OW41569   7.382   1.124   4.674 -0.2722 -0.1168  0.3352
13664SOL    HW141570   7.382   1.034   4.641 -1.1984 -0.1285  0.3546
13664SOL    HW241571   7.359   1.178   4.599  0.3193  0.1176  0.3138
13665SOL     OW41572   0.798   8.534   4.215 -0.6015 -0.7087 -0.1550
13665SOL    HW141573   0.730   8.575   4.162 -3.0905 -1.8589  1.9299
13665SOL    HW241574   0.839   8.470   4.157 -1.3703 -0.0716 -1.4296
13666SOL     OW41575   4.376   8.074   2.935  0.5727 -0.6140 -0.3766
13666SOL    HW141576   4.323   8.008   2.890 -0.7940  0.0425  0.2126
13666SOL    HW241577   4.316   8.147   2.951  1.6830  0.2071  0.2396
13667SOL     OW41578   4.049   5.561   7.465  0.1446 -0.3827  0.2925
13667SOL    HW141579   4.064   5.466   7.462  3.3237 -0.0516  1.5046
13667SOL    HW241580   4.109   5.597   7.400 -1.1223  0.8142 -0.2497
13668SOL     OW41581   4.506   4.654   5.838  0.1008 -0.1073  0.4093
13668SOL    HW141582   4.562   4.726   5.868 -1.1497  0.9647  0.2487
13668SOL    HW241583   4.535   4.637   5.749  0.0097  0.6215  0.2313
13669SOL     OW41584   9.062   5.999   3.707 -0.4515  0.1387  0.4559
13669SOL    HW141585   9.094   5.951   3.784 -0.3670  0.8543  0.8787
13669SOL    HW241586   8.980   6.038   3.735 -0.1009  0.9313  0.3876
13670SOL     OW41587   6.309   0.090   3.097  0.1684  0.0563  0.4109
13670SOL    HW141588   6.266   0.158   3.149  1.4538  3.2991 -2.3827
13670SOL    HW241589   6.393   0.075   3.142 -0.6892 -0.8476  1.8065
13671SOL     OW41590   8.368   2.225   7.235 -0.0194 -0.1446 -0.3069
13671SOL    HW141591   8.284   2.191   7.265  0.3030 -0.4906  0.2145
13671SOL    HW241592   8.344   2.292   7.171 -0.7466  0.8935  0.9849
13672SOL     OW41593   8.747   4.692   2.880  0.6733  0.3287 -0.5219
13672SOL    HW141594   8.803   4.654   2.812 -1.1496 -1.2088 -1.2723
13672SOL    HW241595   8.692   4.619   2.910 -2.1329  2.0088 -1.1262
13673SOL     OW41596   9.484   6.266   8.412  0.5427  0.6177  0.1840
13673SOL    HW141597   9.537   6.214   8.352 -0.4356  0.9499 -1.0150
13673SOL    HW241598   9.498   6.226   8.497  3.0143  0.9317  0.0044
13674SOL     OW41599   7.692   3.413   2.153 -0.2339 -0.8678 -0.2639
13674SOL    HW141600   7.599   3.437   2.156 -0.1041 -0.2317 -1.1050
13674SOL    HW241601   7.692   3.318   2.169 -0.9812 -0.7983  0.2210
13675SOL     OW41602   6.622   9.715   7.354  0.3753 -0.0490 -0.2299
13675SOL    HW141603   6.698   9.771   7.366  1.2371 -0.0920 -4.2629
13675SOL    HW241604   6.557   9.770   7.312 -0.7530 -0.8136  0.4392
13676SOL     OW41605   3.490   3.188   8.854  0.1214 -0.2551  0.1811
13676SOL    HW141606   3.567   3.211   8.905 -0.0188 -2.6430  1.5797
13676SOL    HW241607   3.469   3.099   8.880 -0.7664 -1.1504 -3.1229
13677SOL     OW41608   3.096   0.467   7.117 -0.2369 -0.3799  0.1728
13677SOL    HW141609   3.072   0.545   7.067  1.8865 -0.0829 -0.4749
13677SOL    HW241610   3.074   0.489   7.208  0.7201  1.1538  0.0626
13678SOL     OW41611   1.107   7.844   8.173 -0.3400  0.5754 -0.0265
13678SOL    HW141612   1.101   7.930   8.131 -0.0424  0.4480 -0.3335
13678SOL    HW241613   1.200   7.824   8.174 -0.5283 -0.7951 -2.1521
13679SOL     OW41614   3.212   7.468   8.951  0.0117 -0.2564 -0.4467
13679SOL    HW141615   3.303   7.446   8.929  0.1365  0.1873 -0.3736
13679SOL    HW241616   3.218   7.551   8.999 -0.4535 -0.1163 -0.6294
13680SOL     OW41617   5.098   0.068   2.975 -0.0548 -0.0464 -0.0185
13680SOL    HW141618   5.130   0.154   2.947 -1.2219 -0.2444 -2.2072
13680SOL    HW241619   5.149   0.006   2.922 -2.1885 -0.4563 -1.7606
13681SOL     OW41620   6.934   3.498   5.000 -0.2700  0.5791  0.0328
13681SOL    HW141621   6.882   3.557   4.945  1.1598 -0.1790 -2.2920
13681SOL    HW241622   7.011   3.548   5.024 -0.2258  0.4535  0.1565
13682SOL     OW41623   1.740   5.388   7.442  0.5734 -0.1566  0.0141
13682SOL    HW141624   1.735   5.344   7.358 -0.7182 -0.9563  0.4714
13682SOL    HW241625   1.814   5.346   7.487  0.8308 -0.2081 -0.4588
13683SOL     OW41626   3.449   0.872   3.085 -0.1673 -0.2386  0.3568
13683SOL    HW141627   3.384   0.825   3.032 -0.5024 -1.6870  1.9232
13683SOL    HW241628   3.509   0.910   3.022 -1.1420 -0.9618 -1.0748
13684SOL     OW41629   7.489   9.433   1.978  0.2335  0.4974  0.0803
13684SOL    HW141630   7.431   9.390   2.040  2.2261 -2.3421  0.1635
13684SOL    HW241631   7.480   9.383   1.897  1.7382  0.6405 -0.2156
13685SOL     OW41632   9.240   3.732   1.459 -0.1601 -0.2090  0.0184
13685SOL    HW141633   9.193   3.805   1.501  0.4890  0.5872 -0.6252
13685SOL    HW241634   9.332   3.748   1.479 -0.0842 -1.5358  0.9072
13686SOL     OW41635   3.203   0.171   6.143  0.2352 -0.2937 -0.1602
13686SOL    HW141636   3.152   0.095   6.115 -1.6680  1.1054 -0.6587
13686SOL    HW241637   3.243   0.204   6.063 -1.9063  1.3020 -0.6688
13687SOL     OW41638   1.551   8.211   9.110 -0.2552  0.8011  0.1700
13687SOL    HW141639   1.580   8.124   9.137  0.4839  0.5099 -1.4512
13687SOL    HW241640   1.593   8.271   9.172 -0.0690  0.0778  0.7618
13688SOL     OW41641   5.311   7.742   5.409  0.0513  0.0960 -0.0622
13688SOL    HW141642   5.229   7.778   5.377  0.9688  1.1005 -1.4303
13688SOL    HW241643   5.288   7.657   5.445 -1.4580 -0.0419 -1.2472
13689SOL     OW41644   1.909   2.254   8.225  0.1915 -0.0375 -0.4327
13689SOL    HW141645   1.969   2.300   8.166  0.0795 -0.5584 -0.9611
13689SOL    HW241646   1.963   2.231   8.300  1.0149 -1.5995 -1.4377
13690SOL     OW41647  -0.026   8.153   0.615 -0.4539 -0.0581 -0.2099
13690SOL    HW141648   0.049   8.171   0.559 -0.3123 -1.4079 -0.4907
13690SOL    HW241649   0.010   8.149   0.703 -0.1951 -0.6768 -0.3418
13691SOL     OW41650   3.982   2.250   3.470  0.0552 -0.8770  0.7185
13691SOL    HW141651   3.989   2.204   3.387 -0.9115 -0.6359  0.5002
13691SOL    HW241652   3.901   2.299   3.464  0.8925  0.6045  1.0817
13692SOL     OW41653   8.809   7.031   8.072  0.1255 -0.3870  0.1736
13692SOL    HW141654   8.882   6.977   8.040  1.1584  1.0042  0.0954
13692SOL    HW241655   8.844   7.075   8.149  0.0338  1.7648 -0.9476
13693SOL     OW41656   9.079   4.975   8.343  0.6152 -0.2326  0.1514
13693SOL    HW141657   9.145   5.044   8.349  0.2573  0.1953 -0.5576
13693SOL    HW241658   9.060   4.968   8.250 -1.2610  0.5862  0.4079
13694SOL     OW41659   3.994   5.429   5.981  0.7158 -0.4757 -0.6951
13694SOL    HW141660   3.947   5.509   6.004  0.4445 -0.3377 -1.6915
13694SOL    HW241661   4.068   5.426   6.042  2.0184  1.7178 -2.0196
13695SOL     OW41662   7.211   2.839   1.097  0.1353  0.4834 -0.3934
13695SOL    HW141663   7.202   2.933   1.081  0.8949  0.7525  0.6135
13695SOL    HW241664   7.251   2.834   1.184 -0.8235 -0.7990 -0.0067
13696SOL     OW41665   9.058   6.735   0.591  0.0867 -0.1669  0.2829
13696SOL    HW141666   9.082   6.758   0.681 -0.3428 -0.7273  0.5429
13696SOL    HW241667   9.095   6.648   0.578 -2.2789 -1.3228  0.9006
13697SOL     OW41668   5.429   6.847   4.340  0.0107  0.5644  0.3017
13697SOL    HW141669   5.377   6.806   4.270  0.2463  1.3424 -0.3449
13697SOL    HW241670   5.506   6.883   4.294  0.4297  0.6318  1.0440
13698SOL     OW41671   2.535   7.530   4.939  0.3474 -0.0625  0.2463
13698SOL    HW141672   2.450   7.560   4.905  1.7963  2.6536 -1.3796
13698SOL    HW241673   2.559   7.457   4.883 -0.9896 -1.0583  0.9090
13699SOL     OW41674   9.655   8.063   2.019  0.6946 -0.1727 -0.3761
13699SOL    HW141675   9.666   7.992   1.957  1.9740  0.4318 -0.8921
13699SOL    HW241676   9.730   8.055   2.078  1.2014  1.0580 -0.8029
13700SOL     OW41677   0.785   1.571   5.608  0.1049  0.3103  0.0668
13700SOL    HW141678   0.857   1.634   5.618  0.4375  0.0015 -0.3434
13700SOL    HW241679   0.823   1.487   5.633  0.0749  0.0358 -0.7833
13701SOL     OW41680   2.376   2.156   3.569  0.3102 -0.0115  0.2275
13701SOL    HW141681   2.410   2.159   3.480 -1.4259  0.5014 -0.4670
13701SOL    HW241682   2.379   2.247   3.599 -0.5949  0.0808  0.0726
13702SOL     OW41683   0.597   3.435   7.376  0.6756 -0.5699  0.3587
13702SOL    HW141684   0.688   3.451   7.351  0.6555 -0.3427  0.4278
13702SOL    HW241685   0.584   3.341   7.361  0.7392 -0.4893 -0.2318
13703SOL     OW41686   3.240   2.530   4.629 -0.5788  0.1019 -0.2643
13703SOL    HW141687   3.254   2.591   4.701  0.1702  0.3360 -0.5990
13703SOL    HW241688   3.186   2.461   4.667  0.6799 -0.3240  0.8215
13704SOL     OW41689   1.657   1.290   5.661  0.5010 -0.2268 -0.0047
13704SOL    HW141690   1.674   1.232   5.587  1.0108 -1.0338  0.7308
13704SOL    HW241691   1.587   1.246   5.710  0.1507  0.3149 -0.0007
13705SOL     OW41692   3.921   3.865   9.320  0.7496  0.1009 -0.5907
13705SOL    HW141693   3.896   3.799   9.384 -0.8627 -0.0563 -1.3363
13705SOL    HW241694   3.889   3.948   9.357 -5.5929 -0.4663 -3.4423
13706SOL     OW41695   3.903   9.042   5.013 -0.1178 -0.5491 -0.2382
13706SOL    HW141696   3.877   8.980   4.945  0.1509 -2.1110  1.0496
13706SOL    HW241697   3.828   9.045   5.072 -0.0092  0.1564 -0.1257
13707SOL     OW41698   2.595   5.322   0.947 -0.0270  0.0224  0.1414
13707SOL    HW141699   2.506   5.309   0.915 -0.8546 -1.0566  2.6422
13707SOL    HW241700   2.599   5.416   0.967 -0.2274  0.2721 -0.9065
13708SOL     OW41701   0.429   6.188   3.513  0.2812  0.3379 -0.3590
13708SOL    HW141702   0.421   6.095   3.493  3.2322 -0.3810  1.2749
13708SOL    HW241703   0.503   6.218   3.460  0.2902  1.3881  0.2175
13709SOL     OW41704   6.828   3.230   2.376 -0.1314  0.0689 -0.3494
13709SOL    HW141705   6.861   3.303   2.428 -0.0488 -0.6359  0.6132
13709SOL    HW241706   6.835   3.154   2.434 -0.4220 -0.6666 -1.2537
13710SOL     OW41707   8.822   1.749   6.815  0.3063 -0.0220 -0.3119
13710SOL    HW141708   8.770   1.784   6.742  0.7339  0.3991 -0.4191
13710SOL    HW241709   8.777   1.668   6.840  1.5286 -1.5640 -2.6899
13711SOL     OW41710   9.240   4.980   3.500 -0.2252 -0.2655 -0.7433
13711SOL    HW141711   9.155   4.949   3.469 -1.0230 -0.5655  1.5758
13711SOL    HW241712   9.302   4.947   3.435 -1.5867 -2.4351 -1.0511
13712SOL     OW41713   6.547   6.661   6.565  0.6011 -0.2237 -0.1423
13712SOL    HW141714   6.610   6.608   6.614  0.9318 -0.6184 -0.9596
13712SOL    HW241715   6.518   6.603   6.494 -1.5357 -0.4484  0.8308
13713SOL     OW41716   9.079   5.489   0.226 -0.1597  0.3023  0.6930
13713SOL    HW141717   9.152   5.552   0.228  0.4377 -0.3761  0.8181
13713SOL    HW241718   9.114   5.411   0.269 -0.1144 -0.9057 -1.3872
13714SOL     OW41719   5.107   5.743   2.581  0.0656  0.1834 -0.4855
13714SOL    HW141720   5.063   5.729   2.497 -0.6806  1.8808 -0.4171
13714SOL    HW241721   5.117   5.655   2.618 -0.4390 -0.5042 -1.9161
13715SOL     OW41722   0.764   4.912   8.333 -0.2759  0.4209 -0.6399
13715SOL    HW141723   0.693   4.964   8.370 -1.6880 -1.3771 -0.7152
13715SOL    HW241724   0.811   4.878   8.409 -0.3099  0.5124 -0.5776
13716SOL     OW41725   2.131   5.227   5.641  0.0492  0.2368 -0.0362
13716SOL    HW141726   2.050   5.231   5.590  1.3969 -0.1322 -2.3542
13716SOL    HW241727   2.192   5.180   5.584  2.1764  1.3455  1.2272
13717SOL     OW41728   9.871   2.648   0.078  0.0386 -0.1574  0.1901
13717SOL    HW141729   9.835   2.562   0.098 -1.2212  0.2737 -0.0821
13717SOL    HW241730   9.945   2.658   0.137  0.7218 -1.7461 -0.3352
13718SOL     OW41731   6.260   7.353   1.831  0.1259 -0.1050 -0.3909
13718SOL    HW141732   6.194   7.306   1.883 -0.7366  0.0380 -1.3231
13718SOL    HW241733   6.337   7.297   1.835  0.0153 -0.2073  0.8424
13719SOL     OW41734   4.273   4.352   6.542 -0.3656 -0.0258 -0.8842
13719SOL    HW141735   4.343   4.386   6.485  1.8056  0.1168  1.6577
13719SOL    HW241736   4.298   4.261   6.559 -0.8461 -0.0088 -0.0275
13720SOL     OW41737   3.857   3.257   2.111 -0.5304  0.1102 -0.3166
13720SOL    HW141738   3.834   3.267   2.203 -0.1942 -1.3916 -0.0459
13720SOL    HW241739   3.924   3.324   2.096 -0.6094  0.3910  0.5188
13721SOL     OW41740   8.241   9.704   6.240  0.3901  0.1969  0.1073
13721SOL    HW141741   8.295   9.673   6.313 -1.2935 -1.9682  0.5275
13721SOL    HW241742   8.277   9.659   6.163  1.6824  1.8944 -0.3344
13722SOL     OW41743   3.646   6.057   2.256  0.0193  0.6704  0.3740
13722SOL    HW141744   3.637   6.146   2.224 -0.3239  0.6901  0.5224
13722SOL    HW241745   3.662   6.067   2.350  1.3489  0.6272  0.1673
13723SOL     OW41746   8.291   3.045   0.451  0.2149  0.4825 -0.0309
13723SOL    HW141747   8.322   3.110   0.513 -1.3740  1.8849 -0.6312
13723SOL    HW241748   8.361   3.039   0.385  0.8040  0.8209  0.5557
13724SOL     OW41749   0.532   9.935   9.520  0.0464 -0.2507 -0.5302
13724SOL    HW141750   0.625   9.948   9.537 -0.0269 -0.9396  0.4579
13724SOL    HW241751   0.525   9.843   9.494 -0.5620 -0.6590  1.0119
13725SOL     OW41752   0.812   6.736   0.388 -0.5914 -0.3361  0.1125
13725SOL    HW141753   0.734   6.776   0.350 -0.4899  0.7270  0.9529
13725SOL    HW241754   0.781   6.656   0.430 -1.0922 -0.3050 -0.1856
13726SOL     OW41755   0.059   8.712   9.462  0.2882 -0.1637  0.4068
13726SOL    HW141756   0.012   8.760   9.531  1.2381 -1.0277  1.7048
13726SOL    HW241757   0.006   8.634   9.446 -0.6460  0.6929 -0.8666
13727SOL     OW41758   7.218   1.351   6.675  0.2003  0.2892 -0.5757
13727SOL    HW141759   7.313   1.357   6.672  0.3796 -1.7011 -0.4504
13727SOL    HW241760   7.193   1.318   6.589 -0.2689 -0.1951 -0.2610
13728SOL     OW41761   7.995   0.326   6.972  0.2701 -0.0289  0.2300
13728SOL    HW141762   7.908   0.359   6.952  0.5119 -0.2468 -1.2901
13728SOL    HW241763   7.999   0.326   7.068 -1.4034 -0.0670  0.3309
13729SOL     OW41764   7.776   5.557   4.994  0.3886  0.1335 -0.1917
13729SOL    HW141765   7.794   5.648   5.017  0.3429 -0.1269  0.9167
13729SOL    HW241766   7.691   5.538   5.033  0.8379 -0.6749  0.4228
13730SOL     OW41767   4.306   3.011   3.471  0.0246  0.6239 -0.3760
13730SOL    HW141768   4.311   2.936   3.412  1.6214 -0.5104  1.0900
13730SOL    HW241769   4.302   2.972   3.559 -0.5753  2.2581  0.3654
13731SOL     OW41770   3.208   2.220   6.717 -0.7219  0.1611  0.1388
13731SOL    HW141771   3.150   2.230   6.642 -0.1160 -2.1427 -0.7164
13731SOL    HW241772   3.162   2.161   6.776 -0.5410  0.7469  0.8814
13732SOL     OW41773   8.800   2.554   0.501 -0.6679  0.3335 -0.3515
13732SOL    HW141774   8.755   2.550   0.585  0.6761  1.5739  0.4827
13732SOL    HW241775   8.893   2.546   0.523 -0.2441  1.2986 -1.6272
13733SOL     OW41776   7.771   5.965   7.424  0.5423 -0.3760 -0.0372
13733SOL    HW141777   7.759   5.895   7.487 -3.3620  1.9644  2.2167
13733SOL    HW241778   7.734   5.931   7.343  1.1043 -1.7412  0.2506
13734SOL     OW41779   4.053   2.057   4.611  0.4826  0.3250  0.0905
13734SOL    HW141780   4.093   2.086   4.530  0.8291 -0.4434 -0.0201
13734SOL    HW241781   4.094   2.110   4.679  1.6079 -0.3612 -0.0390
13735SOL     OW41782   5.227   0.904   6.460  0.1577  0.0485 -0.3161
13735SOL    HW141783   5.214   0.822   6.509 -0.8280  0.8069  0.7193
13735SOL    HW241784   5.323   0.912   6.453  0.3391  0.0369  1.7079
13736SOL     OW41785   1.869   9.754   5.128  0.0513  0.1190  0.2643
13736SOL    HW141786   1.834   9.818   5.065  1.5687  0.0071 -0.7330
13736SOL    HW241787   1.897   9.807   5.203 -0.8946  0.3567  0.4598
13737SOL     OW41788   8.450   9.311   5.456 -0.5182 -0.7021 -0.1586
13737SOL    HW141789   8.507   9.236   5.442  1.9748  1.1392 -0.5246
13737SOL    HW241790   8.413   9.329   5.369 -0.3581 -0.9446 -0.2777
13738SOL     OW41791   1.533   4.325   2.459  0.0544  0.6920 -0.1735
13738SOL    HW141792   1.568   4.374   2.534 -0.9838  0.9727  0.1358
13738SOL    HW241793   1.578   4.241   2.462  1.1307  1.2421 -0.1264
13739SOL     OW41794   7.458   8.402   0.182  0.0622  0.7812  0.1304
13739SOL    HW141795   7.442   8.316   0.143 -1.4730  1.1564 -0.1230
13739SOL    HW241796   7.553   8.414   0.175  0.4100 -1.1697  0.7931
13740SOL     OW41797   2.033   9.758   9.543  0.1725 -0.1324  0.1071
13740SOL    HW141798   1.944   9.724   9.547 -0.3561  1.2153  0.4001
13740SOL    HW241799   2.024   9.852   9.558  1.7728 -0.1244  1.3947
13741SOL     OW41800   1.200   0.146   8.541 -0.0900  0.0658  0.2955
13741SOL    HW141801   1.220   0.236   8.516  0.4463 -0.0777  0.1919
13741SOL    HW241802   1.282   0.098   8.527  0.4888  0.1098  3.1076
13742SOL     OW41803   3.465   2.346   3.674  0.0175 -0.2530  0.2346
13742SOL    HW141804   3.385   2.296   3.657  0.1447 -0.7016  0.8965
13742SOL    HW241805   3.446   2.433   3.639  0.1872 -1.0180 -1.9089
13743SOL     OW41806   1.675   5.302   4.496  0.0926 -0.5694  0.4067
13743SOL    HW141807   1.608   5.368   4.517 -0.5340 -1.0791  0.0574
13743SOL    HW241808   1.669   5.238   4.567  0.1214 -0.6792  0.3113
13744SOL     OW41809   8.222   5.662   8.704  0.1486  0.7819 -0.2285
13744SOL    HW141810   8.170   5.733   8.667  0.8051  1.2103 -0.3308
13744SOL    HW241811   8.300   5.657   8.648 -0.1837 -0.4417 -0.6224
13745SOL     OW41812   1.331   9.047   6.473  0.2222  0.9357 -0.6878
13745SOL    HW141813   1.251   9.069   6.521  0.4676  0.1881  0.1072
13745SOL    HW241814   1.302   9.027   6.384 -0.5158  0.4043 -0.3335
13746SOL     OW41815   6.296   3.661   7.970 -0.0946  0.0698  0.3407
13746SOL    HW141816   6.378   3.620   7.943 -1.4531 -2.2893 -0.5305
13746SOL    HW241817   6.283   3.732   7.907  1.0829  0.2368  0.2718
13747SOL     OW41818   9.042   5.169   1.274 -0.1973  0.5656  0.2463
13747SOL    HW141819   9.073   5.221   1.200 -1.2620  1.8463  0.6666
13747SOL    HW241820   8.997   5.232   1.330  0.3653 -0.4153  1.8695
13748SOL     OW41821   3.413   9.643   4.690  0.3302  0.0999  0.3131
13748SOL    HW141822   3.356   9.567   4.680 -2.1052  1.8471  0.1162
13748SOL    HW241823   3.471   9.639   4.614 -0.0275 -1.3160  0.0819
13749SOL     OW41824   3.956   9.949   9.655  0.1175  0.4692  0.2180
13749SOL    HW141825   4.043   9.925   9.623 -0.3605 -0.7488 -0.2293
13749SOL    HW241826   3.919   9.867   9.688 -1.0707  0.8482 -0.1100
13750SOL     OW41827   4.818   3.010   9.604  0.6143 -0.2613 -0.6482
13750SOL    HW141828   4.770   2.956   9.542 -0.7200  1.2204 -0.9669
13750SOL    HW241829   4.776   3.096   9.600 -1.3991 -0.6516  4.2293
13751SOL     OW41830   3.345   6.992   2.293  0.9348  0.2228 -0.3235
13751SOL    HW141831   3.396   7.054   2.240  2.1361  0.9857  1.5982
13751SOL    HW241832   3.305   7.046   2.362 -0.9341 -0.6634 -0.6478
13752SOL     OW41833   8.608   7.573   0.606  0.2546  0.0915  0.1860
13752SOL    HW141834   8.547   7.515   0.651  0.0730 -0.8963 -1.2496
13752SOL    HW241835   8.692   7.557   0.649 -0.2020  0.3724  1.2128
13753SOL     OW41836   2.733   4.565   4.157  0.6287 -0.7889 -0.2854
13753SOL    HW141837   2.738   4.498   4.225  1.8609 -0.3622  0.0701
13753SOL    HW241838   2.740   4.516   4.075  0.7632 -1.1755 -0.0472
13754SOL     OW41839   8.020   9.192   7.822  0.4399 -0.4363 -0.7910
13754SOL    HW141840   8.034   9.193   7.727  2.6225  0.3687 -0.5083
13754SOL    HW241841   7.927   9.210   7.832  0.1556 -0.5172 -2.7716
13755SOL     OW41842   0.776   8.963   8.047 -0.0856  0.1187 -0.0412
13755SOL    HW141843   0.871   8.971   8.040  0.1835 -1.5964  1.1767
13755SOL    HW241844   0.743   9.012   7.971  1.7031  1.5144  0.0013
13756SOL     OW41845   3.283   7.948   1.324  0.4936 -0.0874  0.7955
13756SOL    HW141846   3.271   7.981   1.235  1.5235  0.5095  0.8626
13756SOL    HW241847   3.194   7.933   1.356  0.0598  0.9561  0.1372
13757SOL     OW41848   1.423   8.797   8.276 -0.4113  0.0791  0.2532
13757SOL    HW141849   1.498   8.772   8.223  0.4609  1.4332  0.7905
13757SOL    HW241850   1.350   8.747   8.240  0.7962 -1.5728 -0.0337
13758SOL     OW41851   7.332   8.289   6.459 -0.5131  0.0189  0.2381
13758SOL    HW141852   7.319   8.382   6.443 -0.8977 -0.0648  0.0409
13758SOL    HW241853   7.247   8.249   6.440 -0.6472 -0.2433  1.3113
13759SOL     OW41854   8.868   9.929   0.206 -0.4034  0.3488 -0.1395
13759SOL    HW141855   8.927   9.874   0.257  0.3540  3.5617  2.8667
13759SOL    HW241856   8.785   9.926   0.253 -0.7249  0.7351 -0.6721
13760SOL     OW41857   5.597   7.959   3.516  0.4356  0.1661 -0.2538
13760SOL    HW141858   5.535   7.957   3.589  0.1301  0.8036 -0.4914
13760SOL    HW241859   5.679   7.992   3.554  0.5458 -0.3749 -0.0095
13761SOL     OW41860   2.580   3.587   6.223  0.1051 -0.3931 -0.1605
13761SOL    HW141861   2.638   3.635   6.282  0.0230 -0.5869  0.0787
13761SOL    HW241862   2.611   3.497   6.227 -1.4986 -0.9359  1.6078
13762SOL     OW41863   1.480   8.231   4.310  0.4739  0.1231 -0.2920
13762SOL    HW141864   1.515   8.230   4.220 -0.9278 -0.2275 -0.8537
13762SOL    HW241865   1.505   8.318   4.343 -0.2812  0.8647 -1.5643
13763SOL     OW41866   3.855   1.917   4.044 -0.4008 -0.2647 -0.1356
13763SOL    HW141867   3.924   1.979   4.019 -1.4969  1.3601  0.6763
13763SOL    HW241868   3.895   1.864   4.113  0.5315 -0.4488 -0.7910
13764SOL     OW41869   4.584   3.765   4.321  0.6143  0.6131 -0.3639
13764SOL    HW141870   4.573   3.852   4.359  0.9975 -0.1576  1.6732
13764SOL    HW241871   4.611   3.710   4.395 -0.2107 -1.3744 -1.4571
13765SOL     OW41872   2.510   7.768   7.472 -0.0297  0.2807  0.6834
13765SOL    HW141873   2.467   7.701   7.420  0.0148  0.7859 -0.0128
13765SOL    HW241874   2.458   7.847   7.459  1.0110  0.8742 -0.0715
13766SOL     OW41875   3.211   6.254   7.621  0.2387  0.5035 -0.1859
13766SOL    HW141876   3.215   6.164   7.654 -1.1522  0.6091  0.3292
13766SOL    HW241877   3.298   6.289   7.639  0.4484 -0.3956  0.6508
13767SOL     OW41878   7.329   7.577   7.942 -0.6693 -0.2821 -0.5445
13767SOL    HW141879   7.345   7.508   7.878 -1.4949 -0.3318 -0.7056
13767SOL    HW241880   7.368   7.544   8.023 -2.5265 -1.7533 -0.1671
13768SOL     OW41881   9.520   1.888   7.135  0.4032  0.1350  0.0587
13768SOL    HW141882   9.435   1.918   7.102 -0.4234 -1.4090  0.6748
13768SOL    HW241883   9.524   1.796   7.109  0.0011 -1.0062  3.5691
13769SOL     OW41884   7.381   2.330   2.216  0.7964 -0.5936 -0.0845
13769SOL    HW141885   7.374   2.422   2.191  0.7154 -0.5993 -0.0831
13769SOL    HW241886   7.328   2.322   2.295  3.7568  0.1980  2.1945
13770SOL     OW41887   9.711   6.662   9.492 -0.6362 -0.4893 -0.7483
13770SOL    HW141888   9.617   6.671   9.504 -0.6537 -2.0037  0.6835
13770SOL    HW241889   9.737   6.597   9.557  1.8285  1.7195  0.6575
13771SOL     OW41890   1.178   8.341  -0.007  0.0617 -0.2355  0.1657
13771SOL    HW141891   1.243   8.341   0.063  1.1406  0.0394 -0.8039
13771SOL    HW241892   1.147   8.431  -0.011  0.4291 -0.1185 -0.0879
13772SOL     OW41893   7.780   5.537   6.488 -0.2095  0.6968 -0.3949
13772SOL    HW141894   7.869   5.548   6.455 -0.0745 -0.6020 -0.4996
13772SOL    HW241895   7.741   5.624   6.480  0.4054  0.8523 -2.2481
13773SOL     OW41896   4.251   9.614   4.467  0.5345  0.4595  0.1732
13773SOL    HW141897   4.227   9.574   4.551 -0.3825  0.1916 -0.2015
13773SOL    HW241898   4.337   9.576   4.447  0.0474 -0.7356  0.2234
13774SOL     OW41899   8.398   4.231   2.009  0.8657 -0.1218  0.1633
13774SOL    HW141900   8.492   4.234   2.029  1.1090 -1.8185 -0.5021
13774SOL    HW241901   8.358   4.191   2.085  0.7796 -0.0186  0.1719
13775SOL     OW41902   4.068   7.197   9.548  0.4076  0.0139 -0.4446
13775SOL    HW141903   4.010   7.233   9.481 -1.5673 -2.0114  0.0253
13775SOL    HW241904   4.099   7.273   9.597 -0.7251  1.2961 -1.6313
13776SOL     OW41905   3.779   0.522   4.819  0.3322  0.3519  0.4253
13776SOL    HW141906   3.720   0.451   4.844 -0.8183  0.9352 -0.5248
13776SOL    HW241907   3.843   0.527   4.890 -0.1482 -0.9794  0.9792
13777SOL     OW41908   4.445   7.531   2.198  0.1659  0.2211  0.1293
13777SOL    HW141909   4.411   7.483   2.273 -0.3516  0.4135  0.0224
13777SOL    HW241910   4.504   7.469   2.155  0.2310  0.0061  0.5194
13778SOL     OW41911   2.783   7.658   7.063 -0.5765  0.1648  0.8762
13778SOL    HW141912   2.823   7.611   7.136  2.0649 -1.5240 -1.4764
13778SOL    HW241913   2.832   7.740   7.057 -1.7435  0.9748  1.7672
13779SOL     OW41914   9.884   3.362   6.486  0.1793 -0.0829 -0.5590
13779SOL    HW141915   9.804   3.368   6.538 -0.0280 -0.5855 -0.8134
13779SOL    HW241916   9.854   3.335   6.399  0.6288 -0.2713 -0.6567
13780SOL     OW41917   7.969   3.055   3.618 -0.0034  0.6843  0.2558
13780SOL    HW141918   7.879   3.032   3.639 -0.0923 -0.6700 -1.4475
13780SOL    HW241919   8.012   3.063   3.704 -1.0448 -1.4728  1.0450
13781SOL     OW41920   9.903   1.816   2.793  0.0990 -0.2614  0.5557
13781SOL    HW141921   9.837   1.882   2.769 -2.0973 -2.0962  1.2404
13781SOL    HW241922   9.971   1.867   2.839 -1.2486  1.6047  0.6279
13782SOL     OW41923   2.010   5.758   6.077 -0.4386  0.4496  0.5509
13782SOL    HW141924   2.001   5.768   5.982 -2.4365  0.6629  0.7195
13782SOL    HW241925   2.046   5.842   6.107 -1.9551  1.2712  0.1882
13783SOL     OW41926   3.942   5.229   2.780  0.9235  0.1696 -0.0520
13783SOL    HW141927   3.898   5.160   2.829  0.1969  0.1179 -0.7494
13783SOL    HW241928   4.008   5.263   2.840 -1.4615  1.7232  1.9287
13784SOL     OW41929   6.712   4.475   3.325 -0.5201  0.0919  0.0817
13784SOL    HW141930   6.730   4.569   3.336 -0.2045 -0.0174  0.5330
13784SOL    HW241931   6.649   4.455   3.394 -1.0381  0.0904 -0.3806
13785SOL     OW41932   4.927   1.375   0.777  0.1360  0.3315 -0.1864
13785SOL    HW141933   5.023   1.381   0.772  0.1465  0.3823  0.0482
13785SOL    HW241934   4.897   1.465   0.771  0.2576  0.6615  2.6482
13786SOL     OW41935   6.379   5.398   8.698  0.7746 -0.2013 -0.1341
13786SOL    HW141936   6.442   5.466   8.722 -2.1836  3.1036 -0.8703
13786SOL    HW241937   6.347   5.364   8.781  1.0421  0.6492  0.3306
13787SOL     OW41938   3.687   4.926   0.566  0.4994  0.6263  0.1921
13787SOL    HW141939   3.718   4.955   0.652 -1.3293 -1.1900  1.5677
13787SOL    HW241940   3.669   5.007   0.519  1.4360  1.6847  1.5411
13788SOL     OW41941   9.095   0.029   9.744 -0.6643 -0.0466 -0.1712
13788SOL    HW141942   9.059   0.066   9.824  0.0516  0.4811 -0.0831
13788SOL    HW241943   9.130   0.104   9.697 -1.1209 -0.3471 -1.0095
13789SOL     OW41944   0.128   6.617   7.580 -0.3600 -0.1456 -0.0958
13789SOL    HW141945   0.192   6.593   7.514  1.2261 -1.1462  1.7090
13789SOL    HW241946   0.098   6.534   7.616  0.0093  0.3750  1.5060
13790SOL     OW41947   7.359   8.903   1.978  0.2414  0.1488 -0.4025
13790SOL    HW141948   7.445   8.924   1.940  0.7537 -1.2668 -0.0886
13790SOL    HW241949   7.378   8.879   2.068 -0.3887 -0.9035 -0.5388
13791SOL     OW41950   8.895   4.833   8.868 -0.5356  0.1692  0.5969
13791SOL    HW141951   8.962   4.847   8.801  0.0146  0.0431  1.1096
13791SOL    HW241952   8.825   4.895   8.846 -0.3105  0.2117 -0.0195
13792SOL     OW41953   2.966   3.683   9.619  0.2869  0.4604  0.2555
13792SOL    HW141954   3.029   3.732   9.672  1.3257 -0.3441 -0.1984
13792SOL    HW241955   3.007   3.597   9.606 -0.7697  0.0238 -0.3146
13793SOL     OW41956   6.540   5.384   8.972  0.1344 -0.0394  0.2238
13793SOL    HW141957   6.629   5.369   8.939  1.3330  0.4095  2.9925
13793SOL    HW241958   6.526   5.478   8.960 -0.1238 -0.1655 -0.5128
13794SOL     OW41959   2.932   0.354   3.637 -0.3946 -0.2314 -0.2273
13794SOL    HW141960   2.927   0.437   3.589 -0.4100  0.0757  0.2967
13794SOL    HW241961   3.020   0.355   3.676 -0.8229  0.0768  0.7421
13795SOL     OW41962   0.050   1.990   1.087 -0.2311  0.4972  0.3317
13795SOL    HW141963   0.118   1.931   1.052  0.0166  1.8754 -1.7077
13795SOL    HW241964   0.093   2.035   1.159  1.1722  1.4794 -1.0379
13796SOL     OW41965   7.359   9.145   8.348  0.2904  0.5792  0.1185
13796SOL    HW141966   7.368   9.159   8.253 -1.9978 -0.1768 -0.2729
13796SOL    HW241967   7.381   9.230   8.387  0.1877  1.2251 -1.1760
13797SOL     OW41968   4.202   3.268   4.924  0.3413  0.2276  0.3029
13797SOL    HW141969   4.245   3.202   4.978 -0.2824  0.7660  1.4886
13797SOL    HW241970   4.211   3.350   4.973 -1.8142  0.3992  0.4887
13798SOL     OW41971   9.280   6.813   2.728 -0.4054 -0.1720 -0.0184
13798SOL    HW141972   9.329   6.821   2.810 -1.7373 -1.0315  0.9084
13798SOL    HW241973   9.196   6.855   2.747  0.3184  2.3410 -1.9462
13799SOL     OW41974   2.540   0.721   7.964 -0.6225  0.7754 -0.1286
13799SOL    HW141975   2.510   0.812   7.973 -1.9989  0.2957  0.5113
13799SOL    HW241976   2.547   0.690   8.054  0.9237  0.5556 -0.3058
13800SOL     OW41977   2.545   1.907   8.857  0.5353  0.3722  0.5077
13800SOL    HW141978   2.564   1.968   8.785 -1.5108  0.1996 -0.2340
13800SOL    HW241979   2.497   1.960   8.921  0.7371  0.0832  0.8979
13801SOL     OW41980   9.545   9.409   2.578  0.3006 -0.2295 -0.6186
13801SOL    HW141981   9.510   9.355   2.649  1.0018  0.0645 -0.0294
13801SOL    HW241982   9.477   9.408   2.511 -0.3802 -0.5073  0.0608
13802SOL     OW41983   3.790   0.844   9.892  0.3560 -0.7672 -0.2309
13802SOL    HW141984   3.706   0.888   9.883  0.2354 -1.2801 -2.0000
13802SOL    HW241985   3.824   0.873   9.976 -1.1037  0.2795  0.0226
13803SOL     OW41986   6.003   4.565   9.104 -0.5717 -0.8658 -0.1103
13803SOL    HW141987   5.948   4.630   9.147  0.3350 -0.0678 -0.1166
13803SOL    HW241988   6.065   4.537   9.172  0.3542 -0.1827 -0.6375
13804SOL     OW41989   6.508   2.328   9.138 -0.0087 -0.1281  0.9109
13804SOL    HW141990   6.582   2.378   9.173  0.5172 -1.1276  1.2871
13804SOL    HW241991   6.525   2.324   9.044  1.4830 -1.9264  1.1875
13805SOL     OW41992   2.255   0.233   9.888 -0.3436 -0.4126 -0.2308
13805SOL    HW141993   2.196   0.308   9.885 -1.8722 -1.5321  0.3802
13805SOL    HW241994   2.245   0.192   9.802  1.5214  0.7650 -1.0832
13806SOL     OW41995   5.997   1.257   2.718 -0.0871 -0.1571  0.2861
13806SOL    HW141996   5.949   1.257   2.801  0.3757  1.3278  0.5729
13806SOL    HW241997   6.024   1.166   2.707 -0.4250 -0.4411  1.6017
13807SOL     OW41998   6.343   0.808   6.199 -0.1918 -0.5660  0.0851
13807SOL    HW141999   6.344   0.736   6.136  0.4515 -1.4829  1.1058
13807SOL    HW242000   6.411   0.785   6.262  0.7384  1.4314 -0.0934
13808SOL     OW42001   4.771   8.727   5.871 -0.0877  0.1735  0.1596
13808SOL    HW142002   4.774   8.663   5.799  1.7946  0.0231  0.3337
13808SOL    HW242003   4.846   8.705   5.926  0.8092  2.7404  0.0657
13809SOL     OW42004   5.151   6.590   1.473  0.1502  0.5340  0.6333
13809SOL    HW142005   5.182   6.587   1.563 -0.9556  1.5642  1.0761
13809SOL    HW242006   5.188   6.512   1.432 -0.9374 -1.0681  2.5021
13810SOL     OW42007   5.627   8.978   2.787 -0.3376 -0.0093  0.2718
13810SOL    HW142008   5.672   8.996   2.870  2.5285  1.2026 -1.4001
13810SOL    HW242009   5.599   8.886   2.794  1.0867 -0.3590  2.0210
13811SOL     OW42010   9.089   9.763   3.253  0.0424 -0.0228  0.0914
13811SOL    HW142011   9.051   9.747   3.167  0.6532  1.0189 -0.3906
13811SOL    HW242012   9.076   9.856   3.269  0.7164 -0.0205  0.7301
13812SOL     OW42013   9.628   1.460   4.179  0.1912  0.4244  0.0789
13812SOL    HW142014   9.582   1.431   4.258 -0.3194 -0.5635 -0.5637
13812SOL    HW242015   9.577   1.425   4.107  0.0822  2.1526 -0.7446
13813SOL     OW42016   0.885   6.190   5.901  0.5530  0.3235  0.4127
13813SOL    HW142017   0.950   6.149   5.957  1.2346  0.2958 -0.3772
13813SOL    HW242018   0.935   6.233   5.832 -0.2634 -0.1048 -0.4875
13814SOL     OW42019   9.668   0.619   5.714 -0.0470 -0.4382 -0.2838
13814SOL    HW142020   9.698   0.689   5.655  0.2734 -0.1126  0.2571
13814SOL    HW242021   9.572   0.624   5.708 -0.2458  2.5088  2.4495
13815SOL     OW42022   2.587   2.773   3.703 -0.1021 -0.9455 -0.7334
13815SOL    HW142023   2.619   2.694   3.660  0.4724 -0.7914 -0.6023
13815SOL    HW242024   2.527   2.742   3.771 -0.7238 -1.2063 -1.3908
13816SOL     OW42025   8.240   4.317   4.316  0.4986 -0.5394 -0.3455
13816SOL    HW142026   8.186   4.257   4.367 -0.4953 -1.0353 -1.9229
13816SOL    HW242027   8.308   4.346   4.378 -0.2095 -1.6723  1.0261
13817SOL     OW42028   6.131   2.621   8.196 -0.7927  0.0152  0.1457
13817SOL    HW142029   6.202   2.654   8.251 -0.1296 -1.6269  0.3231
13817SOL    HW242030   6.099   2.698   8.149  0.7485  0.8757  0.4532
13818SOL     OW42031   0.460   6.998   4.623  0.1645 -0.2244  0.8742
13818SOL    HW142032   0.395   7.017   4.690  3.0879  0.4912  3.7558
13818SOL    HW242033   0.518   7.074   4.623  1.6144 -1.2549 -0.7901
13819SOL     OW42034   8.184   8.207   7.465 -0.1050  0.8270 -0.0693
13819SOL    HW142035   8.265   8.225   7.416  1.9881  1.4491  3.3023
13819SOL    HW242036   8.130   8.285   7.450  0.2358  0.8098 -1.6395
13820SOL     OW42037   8.075   7.007   1.900  0.3168  0.2336  0.3376
13820SOL    HW142038   8.072   6.911   1.903 -0.8657  0.2413  0.0617
13820SOL    HW242039   7.998   7.031   1.848  1.5848  1.2633 -1.1549
13821SOL     OW42040   6.326   6.687   1.037  0.4695  0.3376  0.5391
13821SOL    HW142041   6.343   6.767   1.087 -0.3639  0.4475  0.6655
13821SOL    HW242042   6.411   6.660   1.004  0.8922  0.7815  1.2525
13822SOL     OW42043   3.978   9.700   4.858 -0.4125  0.4161  0.0499
13822SOL    HW142044   3.891   9.662   4.863 -0.3735  0.4634  1.5563
13822SOL    HW242045   4.037   9.625   4.858 -0.4117  0.4144  0.5800
13823SOL     OW42046   0.572   4.455   9.948 -0.1201 -0.3149 -0.1092
13823SOL    HW142047   0.639   4.509   9.989  1.7509 -2.5873  0.0457
13823SOL    HW242048   0.489   4.500   9.968  1.2226  1.9897  0.6614
13824SOL     OW42049   1.696   1.760   8.853 -0.5642  0.3457 -0.0196
13824SOL    HW142050   1.601   1.768   8.863 -0.5229  0.8433 -0.0028
13824SOL    HW242051   1.726   1.723   8.936 -0.7725 -0.0729 -0.1279
13825SOL     OW42052   8.157   9.951   5.015  0.9471  0.2120  0.3556
13825SOL    HW142053   8.110   9.890   5.072  0.5780  0.5739  0.4410
13825SOL    HW242054   8.192  10.017   5.074 -0.5442  1.3255  0.0628
13826SOL     OW42055   1.264   0.938   8.110  0.5993 -0.1604 -0.1283
13826SOL    HW142056   1.272   0.869   8.176  3.1879 -0.5884 -0.7789
13826SOL    HW242057   1.274   1.019   8.159 -0.6317 -0.3181  0.3993
13827SOL     OW42058   4.580   3.475   5.307  0.6474 -0.1290 -0.6961
13827SOL    HW142059   4.594   3.512   5.219  0.6918 -0.4356 -0.8205
13827SOL    HW242060   4.643   3.402   5.312  0.5622 -0.1852 -0.4530
13828SOL     OW42061   0.255   6.387   3.428  0.2361 -0.3131  0.0113
13828SOL    HW142062   0.202   6.333   3.369 -1.6901  1.3597  0.1104
13828SOL    HW242063   0.326   6.329   3.457 -0.9411 -2.3289 -0.9641
13829SOL     OW42064   5.893   8.789   6.290  0.0965  0.5032 -0.6788
13829SOL    HW142065   5.840   8.709   6.284 -0.8157  1.0780 -0.5285
13829SOL    HW242066   5.913   8.812   6.199  2.9466 -1.5170 -0.6892
13830SOL     OW42067   0.516   8.246   3.505 -0.1686 -0.0443 -0.5084
13830SOL    HW142068   0.555   8.169   3.464 -2.0607 -1.1249 -0.3724
13830SOL    HW242069   0.564   8.256   3.587  1.7460  0.4422 -1.6147
13831SOL     OW42070   0.228   4.514   1.262  0.4778  0.8778  0.4559
13831SOL    HW142071   0.179   4.575   1.316  0.6385  2.8107 -1.4535
13831SOL    HW242072   0.319   4.530   1.283  0.4770  0.1530  1.0673
13832SOL     OW42073   2.278   9.333   1.113 -0.7595  0.5250 -0.2218
13832SOL    HW142074   2.320   9.262   1.063  0.6385  1.4009 -0.3556
13832SOL    HW242075   2.236   9.288   1.186 -0.2503 -0.4872 -0.5207
13833SOL     OW42076   3.769   4.744   0.858  0.1366  0.1308 -0.5992
13833SOL    HW142077   3.683   4.705   0.846 -0.1252  0.5867 -0.1993
13833SOL    HW242078   3.798   4.713   0.944  0.9248 -1.0580 -1.2688
13834SOL     OW42079   4.317   8.915   0.431 -0.3171 -0.2706 -0.3336
13834SOL    HW142080   4.225   8.897   0.448 -0.7457  1.8896 -0.0849
13834SOL    HW242081   4.324   8.923   0.336 -0.0977 -1.6489 -0.4587
13835SOL     OW42082   5.903   2.819   1.682 -0.6247 -0.3591  0.6368
13835SOL    HW142083   5.887   2.733   1.722  1.9433 -0.4674  1.5816
13835SOL    HW242084   5.935   2.799   1.594 -5.3966 -0.1304 -1.4987
13836SOL     OW42085   0.770   9.378   1.955 -0.0779  0.1377 -0.1915
13836SOL    HW142086   0.716   9.329   2.017  0.0688  1.8103  1.3462
13836SOL    HW242087   0.786   9.462   1.998  0.9564  0.9625 -2.0552
13837SOL     OW42088   5.654   1.371   6.331  0.7458 -0.4284  0.1492
13837SOL    HW142089   5.648   1.466   6.337 -1.7325 -0.4694 -0.8067
13837SOL    HW242090   5.628   1.339   6.417  1.3363 -0.2696  0.3925
13838SOL     OW42091   2.452   2.999   0.928 -0.3495 -0.2945  0.1112
13838SOL    HW142092   2.365   3.018   0.895 -0.8408 -2.8711 -0.2890
13838SOL    HW242093   2.437   2.948   1.008  0.7910 -0.1351  0.4482
13839SOL     OW42094   2.109   4.699   7.849  0.4688 -0.2739  0.0191
13839SOL    HW142095   2.189   4.670   7.805  0.2751  2.5366 -2.4457
13839SOL    HW242096   2.079   4.773   7.798 -2.1682  0.5956  2.5795
13840SOL     OW42097   9.561   0.172   9.828 -0.5257 -0.5295 -0.3096
13840SOL    HW142098   9.555   0.158   9.922 -0.6631 -2.0698 -0.5205
13840SOL    HW242099   9.505   0.247   9.811  0.5345  0.6233  0.9882
13841SOL     OW42100   7.647   3.414   6.886 -0.6185  0.1452 -0.3666
13841SOL    HW142101   7.741   3.424   6.874 -0.4120  0.4847  1.2846
13841SOL    HW242102   7.636   3.329   6.928 -1.1107 -0.1492 -1.0682
13842SOL     OW42103   1.750   0.069   2.711  0.1648  0.3220 -0.8120
13842SOL    HW142104   1.714  -0.010   2.671  0.3264 -1.2345  1.8759
13842SOL    HW242105   1.828   0.039   2.757  0.2845  2.0774  0.2029
13843SOL     OW42106   5.386   7.618   4.907  0.1175 -0.3250  0.4707
13843SOL    HW142107   5.473   7.578   4.910  0.4985  0.4132 -0.4303
13843SOL    HW242108   5.402   7.710   4.930 -0.5873 -0.4100  1.3658
13844SOL     OW42109   3.190   5.191   0.957 -0.2924 -0.2340 -0.4295
13844SOL    HW142110   3.187   5.121   1.022 -0.1710 -0.2297 -0.4191
13844SOL    HW242111   3.104   5.187   0.914 -0.6705  0.2744  0.2592
13845SOL     OW42112   9.993   4.300   1.434 -0.0922 -0.2020  0.0971
13845SOL    HW142113   9.912   4.343   1.409  0.7717  1.5229  0.0741
13845SOL    HW242114  10.004   4.321   1.527 -0.1422 -1.2615  0.3626
13846SOL     OW42115   1.110   4.779   3.819  0.3092  0.1304  0.9540
13846SOL    HW142116   1.030   4.831   3.822 -0.2929 -0.7038  0.1747
13846SOL    HW242117   1.139   4.774   3.910 -1.5705 -1.0964  1.5586
13847SOL     OW42118   2.798   9.787   3.588  0.1139  0.2360 -0.2949
13847SOL    HW142119   2.785   9.880   3.607  1.5163  0.2829  0.5370
13847SOL    HW242120   2.882   9.765   3.629 -0.1534 -1.3802 -0.5398
13848SOL     OW42121   5.766   5.330   2.073 -0.2880  0.2887  0.1504
13848SOL    HW142122   5.847   5.377   2.092  0.7721 -2.0232  1.8574
13848SOL    HW242123   5.711   5.346   2.150 -0.9077  0.7230 -0.3772
13849SOL     OW42124   8.562   3.005   5.961 -0.2779  0.2065 -0.4077
13849SOL    HW142125   8.617   2.990   6.038 -0.0470  1.5195 -0.2897
13849SOL    HW242126   8.541   2.917   5.928 -0.3619 -0.3737  1.1302
13850SOL     OW42127   9.904   0.020   6.304 -0.3158  0.0472 -0.2117
13850SOL    HW142128   9.890  -0.016   6.216  1.7088  0.5639 -0.8026
13850SOL    HW242129   9.838   0.089   6.312 -0.3234  0.2107 -1.4631
13851SOL     OW42130   3.740   9.746   6.078 -0.0072  0.1274 -0.1640
13851SOL    HW142131   3.826   9.787   6.090 -0.4651  0.8280  0.8594
13851SOL    HW242132   3.726   9.697   6.159 -0.4588 -0.2053 -0.4430
13852SOL     OW42133   2.658   0.936   5.347  0.3336 -0.6377  0.3567
13852SOL    HW142134   2.691   1.015   5.390  3.1618 -1.6833  0.3308
13852SOL    HW242135   2.694   0.864   5.398  0.5292 -1.8956 -1.4680
13853SOL     OW42136   0.967   8.567   2.731  0.7674 -0.0734 -0.3411
13853SOL    HW142137   0.872   8.569   2.740  0.7390  0.1558 -0.6601
13853SOL    HW242138   0.997   8.511   2.802  0.2619 -1.7377 -1.3858
13854SOL     OW42139   7.519   3.513   1.833  0.2229  0.2154 -0.5687
13854SOL    HW142140   7.528   3.483   1.924 -0.1055 -0.1910 -0.6678
13854SOL    HW242141   7.446   3.462   1.798 -0.4157  1.1917 -0.7184
13855SOL     OW42142   9.049   6.780   9.359  0.1623 -0.1678 -0.0481
13855SOL    HW142143   9.038   6.873   9.340 -0.1851 -0.1945  0.0265
13855SOL    HW242144   8.971   6.756   9.409 -0.7835 -0.9903 -1.8399
13856SOL     OW42145   9.872   1.400   4.292  0.2536  0.0889 -0.2370
13856SOL    HW142146   9.803   1.405   4.226 -1.4032  1.2948  1.4483
13856SOL    HW242147   9.928   1.475   4.274  0.4144 -0.1829 -0.8889
13857SOL     OW42148   4.004   4.675   5.816  0.1707  0.2190 -0.2645
13857SOL    HW142149   4.027   4.588   5.784 -1.6482 -1.6708  3.1005
13857SOL    HW242150   3.924   4.663   5.866 -0.8948  4.1284 -0.6653
13858SOL     OW42151   2.934   8.573   0.806  0.0103  0.4938  0.2955
13858SOL    HW142152   2.880   8.617   0.740  1.0904 -0.1480 -1.0853
13858SOL    HW242153   3.011   8.629   0.815 -0.3816  0.8657  1.4632
13859SOL     OW42154   9.699   8.174   0.509 -0.0305 -0.2203 -0.0858
13859SOL    HW142155   9.652   8.118   0.571 -0.9316 -3.1738 -3.1961
13859SOL    HW242156   9.788   8.179   0.544 -1.0095  0.1994  2.5874
13860SOL     OW42157   5.807   9.418   2.926  0.1374 -0.2326 -0.2229
13860SOL    HW142158   5.812   9.368   2.844  1.5471 -1.6190  0.6437
13860SOL    HW242159   5.761   9.499   2.903 -0.7246 -1.1875 -2.0683
13861SOL     OW42160   4.485   9.156   3.959  0.4217 -0.4637  0.2404
13861SOL    HW142161   4.531   9.223   3.909  0.3608 -0.8393 -0.3320
13861SOL    HW242162   4.535   9.147   4.040  0.5809  0.0771  0.2067
13862SOL     OW42163   5.365   8.576   2.392 -0.2471  0.1678  0.6100
13862SOL    HW142164   5.329   8.555   2.478 -2.7468 -0.7573 -0.5641
13862SOL    HW242165   5.451   8.532   2.391 -0.5937 -0.6285  2.2583
13863SOL     OW42166   2.144   6.273   7.832  0.4542 -0.2460  0.2766
13863SOL    HW142167   2.189   6.279   7.916  0.1015 -1.7162  0.6065
13863SOL    HW242168   2.173   6.190   7.795 -1.9249 -1.2690  0.5158
13864SOL     OW42169   3.087   9.694   7.047  0.0556 -0.0705  0.5706
13864SOL    HW142170   3.133   9.777   7.062 -0.5965  0.3795  0.1361
13864SOL    HW242171   3.098   9.645   7.128 -1.4821  1.3765  1.7212
13865SOL     OW42172   4.669   4.947   1.610 -0.3183 -0.2087 -0.3931
13865SOL    HW142173   4.686   5.024   1.556 -1.2185  0.6229  0.4802
13865SOL    HW242174   4.652   4.982   1.697  0.4438 -1.4834  0.2949
13866SOL     OW42175   9.157   8.091   2.058 -0.8018  0.7551  0.3338
13866SOL    HW142176   9.248   8.117   2.050 -0.6561  0.7099  1.5286
13866SOL    HW242177   9.161   8.003   2.097 -1.3514  1.4516  2.0469
13867SOL     OW42178   3.197   6.357   8.208 -0.7156 -0.0853  0.5977
13867SOL    HW142179   3.170   6.448   8.194 -2.0146 -0.6512 -0.8767
13867SOL    HW242180   3.186   6.343   8.302 -0.8389  1.1762  0.7834
13868SOL     OW42181   4.499   9.089   6.487 -0.8181  0.3655 -0.0533
13868SOL    HW142182   4.517   9.127   6.401 -0.9102 -0.5035 -0.4742
13868SOL    HW242183   4.404   9.093   6.495 -0.7421  1.3550  0.4499
13869SOL     OW42184   5.377   9.891   7.297  0.0722  0.2894  0.2130
13869SOL    HW142185   5.397   9.882   7.204  1.4382  0.2250  0.4968
13869SOL    HW242186   5.462   9.905   7.339 -0.7122  2.5692  1.1965
13870SOL     OW42187   9.594   6.868   8.200  0.8518 -0.0421 -0.5829
13870SOL    HW142188   9.564   6.875   8.291  0.1029 -0.3452 -0.8035
13870SOL    HW242189   9.629   6.779   8.193 -0.3432 -0.4951 -0.9557
13871SOL     OW42190   1.881   0.453   0.629  0.4477 -0.1527  0.4876
13871SOL    HW142191   1.787   0.471   0.622  0.2612 -0.3646  2.2125
13871SOL    HW242192   1.890   0.399   0.707  2.0309 -0.0169  0.4303
13872SOL     OW42193   6.721   1.547   0.319 -0.2235 -0.1538  0.0042
13872SOL    HW142194   6.801   1.596   0.300 -0.1521  0.6189  2.1374
13872SOL    HW242195   6.751   1.457   0.332  0.0972 -0.1374 -0.5795
13873SOL     OW42196   4.483   1.772   7.207  0.2312  0.3066 -0.4748
13873SOL    HW142197   4.433   1.854   7.216  0.5904  0.9239 -3.0856
13873SOL    HW242198   4.566   1.789   7.250  0.5001  1.5498 -1.4268
13874SOL     OW42199   3.662   2.905   3.248 -0.0411 -0.1567 -0.1573
13874SOL    HW142200   3.667   2.810   3.258  1.1139 -0.1665 -0.6402
13874SOL    HW242201   3.729   2.939   3.307 -1.4448  0.4738  1.1529
13875SOL     OW42202   9.268   3.961   7.880  0.1278 -0.1606  0.5219
13875SOL    HW142203   9.301   3.894   7.820  0.5803  0.5855 -0.0873
13875SOL    HW242204   9.197   3.918   7.928 -1.1731 -0.4116 -1.4812
13876SOL     OW42205   7.366   7.003   2.698  0.0793 -0.4871 -0.0832
13876SOL    HW142206   7.292   7.063   2.688 -0.4523 -1.3817 -2.2105
13876SOL    HW242207   7.350   6.959   2.781 -2.2541 -1.1720 -0.8124
13877SOL     OW42208   2.918   0.159   6.357 -0.0139  0.2663  0.2816
13877SOL    HW142209   2.880   0.245   6.341  0.0112  0.2616  0.1944
13877SOL    HW242210   2.964   0.138   6.276 -1.0063 -0.3380 -0.1439
13878SOL     OW42211   7.313   2.208   3.030  0.3370  0.1062 -0.2180
13878SOL    HW142212   7.250   2.154   2.982  0.8390  0.1990 -1.0022
13878SOL    HW242213   7.343   2.152   3.101  1.0764 -0.7698 -1.1994
13879SOL     OW42214   4.567   9.293   8.086 -0.0484 -0.1348 -0.2839
13879SOL    HW142215   4.630   9.254   8.147 -0.2159 -0.0062 -0.0229
13879SOL    HW242216   4.555   9.228   8.017 -0.7587 -0.7876  0.4387
13880SOL     OW42217   8.083   3.951   8.620  0.2074  0.4088 -0.1543
13880SOL    HW142218   8.030   3.957   8.700 -0.5388 -1.1647 -0.4796
13880SOL    HW242219   8.051   4.021   8.564  0.5796  1.3874  0.8122
13881SOL     OW42220   6.437   6.305   1.559 -0.4715 -0.3343 -0.6449
13881SOL    HW142221   6.427   6.234   1.495  0.7651 -0.7729 -0.3761
13881SOL    HW242222   6.461   6.381   1.506 -0.4915 -0.4408 -0.8100
13882SOL     OW42223   2.258   9.231   0.431  0.5684  0.2029  0.0193
13882SOL    HW142224   2.313   9.267   0.362  1.9067  0.0060  0.9463
13882SOL    HW242225   2.200   9.169   0.386  2.8769 -1.5943 -0.7126
13883SOL     OW42226   7.469   3.498   6.674 -0.1045 -0.5000  0.1380
13883SOL    HW142227   7.498   3.474   6.762 -0.0253 -1.1302 -0.0531
13883SOL    HW242228   7.437   3.588   6.683  0.1214 -0.4740  0.7582
13884SOL     OW42229   9.406   7.915   7.786 -0.2563  0.2177 -0.3511
13884SOL    HW142230   9.444   8.002   7.775 -0.6364  0.2049 -2.1474
13884SOL    HW242231   9.482   7.857   7.791  0.0188  0.4228 -1.6795
13885SOL     OW42232   8.495   5.200   7.789 -0.3868 -0.3770  0.6351
13885SOL    HW142233   8.485   5.290   7.821  2.4886  0.2337  0.0704
13885SOL    HW242234   8.509   5.148   7.869  2.4101  0.4542  0.7755
13886SOL     OW42235   9.300   9.638   1.758  0.1915 -0.2057  0.7926
13886SOL    HW142236   9.374   9.642   1.819 -0.5714  1.1874  1.6997
13886SOL    HW242237   9.252   9.559   1.783  0.9209 -0.6809  0.7236
13887SOL     OW42238   7.996   9.580   3.701  0.0051  0.4119 -0.0480
13887SOL    HW142239   7.903   9.558   3.691  0.3310 -1.9203  1.3271
13887SOL    HW242240   8.032   9.572   3.612 -0.9672  0.5939 -0.4661
13888SOL     OW42241   4.067   2.214   7.371 -0.0022 -0.1779  0.1109
13888SOL    HW142242   4.093   2.124   7.353 -1.3254 -0.2798 -1.4957
13888SOL    HW242243   4.041   2.249   7.286 -2.3262  0.7822  1.1358
13889SOL     OW42244   2.388   6.743   7.539 -0.4779 -0.0152 -0.4761
13889SOL    HW142245   2.306   6.755   7.587  0.7281 -0.8904  1.9382
13889SOL    HW242246   2.441   6.819   7.563  1.0116 -1.6010  1.5896
13890SOL     OW42247   4.431   1.401   9.799  0.6155 -0.0741 -0.4028
13890SOL    HW142248   4.406   1.344   9.872 -0.0802  0.6081 -0.0983
13890SOL    HW242249   4.431   1.489   9.836 -1.3644  0.4900 -1.5894
13891SOL     OW42250   6.898   8.586   9.520 -0.3316 -0.6385 -0.4651
13891SOL    HW142251   6.987   8.574   9.487 -0.4765 -1.4751 -0.5756
13891SOL    HW242252   6.878   8.504   9.564 -0.9222 -0.3210 -0.1334
13892SOL     OW42253   8.396   0.217   0.596  0.1043  0.2575  0.5956
13892SOL    HW142254   8.364   0.156   0.529  0.1100  1.8132 -0.8931
13892SOL    HW242255   8.354   0.300   0.574 -0.5361  0.6602  3.0466
13893SOL     OW42256   3.068   8.043   0.456  0.6097 -0.0792  0.1797
13893SOL    HW142257   3.082   8.041   0.551  1.0909  1.2026  0.1597
13893SOL    HW242258   3.147   8.005   0.419  1.9065  2.3111  0.2396
13894SOL     OW42259   0.073   7.006   7.410  0.4199  1.2847  0.0303
13894SOL    HW142260   0.031   6.985   7.326 -0.3347 -0.1330  0.7157
13894SOL    HW242261   0.068   6.924   7.459  1.3060  1.9595  1.2740
13895SOL     OW42262   4.312   8.360   4.612 -0.0468  0.7128 -0.3306
13895SOL    HW142263   4.321   8.293   4.544  1.8280  1.1012 -0.5355
13895SOL    HW242264   4.222   8.392   4.604 -0.6540 -1.0575 -0.8931
13896SOL     OW42265   7.508   3.572   3.767 -0.1130 -0.1520 -0.3504
13896SOL    HW142266   7.560   3.652   3.767  0.1465 -0.3069  0.5838
13896SOL    HW242267   7.422   3.599   3.800 -0.5373  0.0304 -1.5370
13897SOL     OW42268   9.091   6.850   4.628 -0.7701  0.2843  0.2386
13897SOL    HW142269   9.124   6.828   4.541 -1.3938  1.1116 -0.2274
13897SOL    HW242270   9.151   6.806   4.688 -0.2509 -0.1979 -0.6025
13898SOL     OW42271   3.032   5.071   3.498  0.6707  0.2722  0.3257
13898SOL    HW142272   2.951   5.120   3.513 -0.3765 -0.7110 -1.7097
13898SOL    HW242273   3.097   5.138   3.475  0.2757  0.9981  1.2522
13899SOL     OW42274   4.174   1.845   6.284  0.4107  0.6499 -0.5032
13899SOL    HW142275   4.134   1.923   6.322 -0.4499  0.7646 -1.5912
13899SOL    HW242276   4.206   1.873   6.198  2.4484  0.4371  0.1369
13900SOL     OW42277   9.345   0.238   1.661  0.0335  0.0445  0.4703
13900SOL    HW142278   9.388   0.165   1.706  1.0500  1.0554  1.1822
13900SOL    HW242279   9.402   0.257   1.586 -0.5899 -0.3061 -0.1138
13901SOL     OW42280   4.029   3.768   0.922  0.7435  0.1193 -0.1214
13901SOL    HW142281   4.069   3.822   0.854  1.1308 -1.0695 -0.8598
13901SOL    HW242282   3.957   3.724   0.878 -0.6137  1.2592  0.8852
13902SOL     OW42283   9.645   3.622   8.396  0.1960 -0.3563  0.1181
13902SOL    HW142284   9.651   3.716   8.382 -0.5547 -0.1403  1.1369
13902SOL    HW242285   9.721   3.601   8.450 -0.4577 -0.0543  1.1821
13903SOL     OW42286   3.618   1.478   1.122 -0.4663  0.3463 -0.1660
13903SOL    HW142287   3.671   1.549   1.085  0.3470  0.1531  0.6067
13903SOL    HW242288   3.633   1.404   1.063 -1.8218  0.9677 -1.3436
13904SOL     OW42289   2.424   3.966   1.050 -0.2996 -0.2569 -0.1429
13904SOL    HW142290   2.348   3.908   1.054  1.1395 -2.4205 -1.9444
13904SOL    HW242291   2.487   3.926   1.109  0.1582  0.4129 -0.1742
13905SOL     OW42292   4.712   1.794   2.790  0.1398 -0.2990 -0.6895
13905SOL    HW142293   4.750   1.863   2.736  0.4952 -1.9152 -2.6168
13905SOL    HW242294   4.652   1.748   2.731 -0.5151 -1.3125  0.7040
13906SOL     OW42295   1.513   7.597   8.195  1.1097  0.4146 -0.2720
13906SOL    HW142296   1.424   7.601   8.231  1.7342 -0.2831  1.4873
13906SOL    HW242297   1.552   7.682   8.218  1.2368  0.3025 -0.0717
13907SOL     OW42298   0.775   2.946   7.324  0.1176  0.3207 -0.5849
13907SOL    HW142299   0.794   2.930   7.232 -0.2797  2.2395 -1.0492
13907SOL    HW242300   0.681   2.932   7.332  0.2791 -0.6667 -0.2541
13908SOL     OW42301   7.691   7.887   8.324  0.1000  0.1902 -0.3385
13908SOL    HW142302   7.632   7.908   8.395 -1.6059  2.7221 -2.3318
13908SOL    HW242303   7.634   7.875   8.248  1.9975  0.9348 -1.9808
13909SOL     OW42304   6.615   7.511   2.488 -0.3048  0.1792 -0.2695
13909SOL    HW142305   6.588   7.489   2.577 -0.0607 -2.1227 -0.6895
13909SOL    HW242306   6.561   7.586   2.465 -2.4922 -0.9227  0.8294
13910SOL     OW42307   7.833   8.227   4.913  0.0013  0.0116 -0.0311
13910SOL    HW142308   7.752   8.231   4.862  0.1426  0.1544 -0.2443
13910SOL    HW242309   7.848   8.318   4.941  0.7228  0.1994 -0.9876
13911SOL     OW42310   9.449   4.979   0.090  0.0172 -0.5781  0.1887
13911SOL    HW142311   9.401   5.059   0.069  2.4467  0.9730  0.1404
13911SOL    HW242312   9.427   4.960   0.180  0.8918  1.3611  0.8755
13912SOL     OW42313   8.271   2.519   9.046  0.1813  0.4328 -0.4959
13912SOL    HW142314   8.207   2.590   9.057  0.5260  0.7828 -0.7379
13912SOL    HW242315   8.223   2.452   8.998  0.3755  1.2444 -1.8807
13913SOL     OW42316   8.340   0.279   7.562 -0.4392  0.4287  0.3213
13913SOL    HW142317   8.306   0.293   7.473 -0.3882  1.1428  0.4055
13913SOL    HW242318   8.273   0.227   7.605 -0.2902 -0.2519 -0.2494
13914SOL     OW42319   3.838   9.749   3.400  0.4231 -0.2808 -0.5722
13914SOL    HW142320   3.803   9.703   3.477 -0.3488  1.3171  0.0796
13914SOL    HW242321   3.925   9.711   3.388  1.5514  0.9669  2.5342
13915SOL     OW42322   4.103   5.818   1.872  0.4241 -0.0337 -0.2369
13915SOL    HW142323   4.183   5.773   1.900  0.7173  0.9857  0.6490
13915SOL    HW242324   4.034   5.752   1.879  0.8025 -0.2957  1.2315
13916SOL     OW42325   6.400   3.263   9.094  0.1130 -0.4377 -0.0206
13916SOL    HW142326   6.361   3.189   9.141 -1.1409  0.1127 -0.1467
13916SOL    HW242327   6.452   3.308   9.161  0.1560 -0.9303  0.2819
13917SOL     OW42328   0.587   7.722   0.209  0.3960 -0.3392  0.3860
13917SOL    HW142329   0.657   7.745   0.269  0.8979 -1.3613  0.2034
13917SOL    HW242330   0.550   7.641   0.244 -0.1112 -0.2828 -0.0028
13918SOL     OW42331   2.978   5.497   9.961 -0.0608  0.0341  0.7631
13918SOL    HW142332   3.041   5.553   9.914 -0.3365 -0.4485 -0.2263
13918SOL    HW242333   2.971   5.419   9.906 -1.4808  0.0558  0.8891
13919SOL     OW42334   4.530   9.057   1.315 -0.5671 -1.2104  0.3665
13919SOL    HW142335   4.503   9.148   1.303  1.0895 -0.5822  1.0465
13919SOL    HW242336   4.456   9.005   1.283 -2.1490  0.3574  1.2996
13920SOL     OW42337   1.028   9.314   3.737 -0.4789  0.4131  0.1759
13920SOL    HW142338   0.995   9.311   3.826  3.9263 -0.6292  2.0644
13920SOL    HW242339   1.035   9.222   3.711  2.9733  0.2978  0.9824
13921SOL     OW42340   7.583   6.470   2.349  0.4246  0.1254 -0.2264
13921SOL    HW142341   7.603   6.541   2.288  0.6189  1.2531  1.1061
13921SOL    HW242342   7.668   6.431   2.370  0.1574 -2.0184 -2.6264
13922SOL     OW42343   2.403   2.069   9.118  0.0464  0.3013  0.0210
13922SOL    HW142344   2.468   2.038   9.181 -0.9335 -1.1462  0.3528
13922SOL    HW242345   2.356   2.139   9.164 -0.3838 -0.4648  0.7608
13923SOL     OW42346   2.472   6.037   3.574 -0.0864 -0.1605 -0.4521
13923SOL    HW142347   2.433   5.949   3.572  1.5048 -0.9087 -1.3100
13923SOL    HW242348   2.556   6.026   3.529  1.3095  1.2515  1.6612
13924SOL     OW42349   7.394   4.485   9.183  0.1138  0.4224 -0.2861
13924SOL    HW142350   7.331   4.558   9.186 -1.1340 -0.6045 -0.6208
13924SOL    HW242351   7.351   4.414   9.230  1.1784 -0.2090 -0.2325
13925SOL     OW42352   6.924   1.558   7.925 -0.3336 -0.0035 -0.0136
13925SOL    HW142353   6.997   1.509   7.964  0.5302  2.2306  1.3323
13925SOL    HW242354   6.846   1.517   7.961  0.3045 -1.0765  0.2036
13926SOL     OW42355   2.433   6.084   4.635  0.1714  0.2446  0.2211
13926SOL    HW142356   2.506   6.078   4.573 -0.8929 -1.1617 -0.9782
13926SOL    HW242357   2.408   6.176   4.633  1.2143  0.5384 -0.1896
13927SOL     OW42358   3.625   8.831   3.138 -0.2412 -0.1035 -0.1243
13927SOL    HW142359   3.609   8.897   3.205 -2.7919 -2.7949  2.1861
13927SOL    HW242360   3.700   8.781   3.170  0.6326  0.5441 -1.0507
13928SOL     OW42361   5.780   4.614   4.698  0.1051 -0.1098  0.2633
13928SOL    HW142362   5.704   4.671   4.705  0.9246  1.0100  0.2507
13928SOL    HW242363   5.745   4.531   4.665 -0.9677  0.6725 -0.6217
13929SOL     OW42364   9.762   8.416   2.887 -0.1751  0.0870  0.4109
13929SOL    HW142365   9.792   8.430   2.976  2.6269  0.1757 -0.4627
13929SOL    HW242366   9.750   8.504   2.851  0.9353  0.0964  0.0353
13930SOL     OW42367   4.587   8.527   0.948  1.0539  0.0500 -0.0115
13930SOL    HW142368   4.543   8.504   1.030  0.4266 -0.0458 -0.3651
13930SOL    HW242369   4.574   8.621   0.939  1.4630  0.1273  0.1933
13931SOL     OW42370  10.001   8.457   3.448  0.1674  0.5084  0.0841
13931SOL    HW142371   9.954   8.384   3.489 -1.7061  1.7271  0.2634
13931SOL    HW242372   9.959   8.535   3.484  1.0343  1.6572 -1.2984
13932SOL     OW42373   0.960   1.543   3.020 -0.2273 -0.4294 -0.4440
13932SOL    HW142374   0.903   1.514   3.091  0.9604  1.3888  1.3313
13932SOL    HW242375   1.047   1.509   3.043  0.0350 -0.5054 -1.4778
13933SOL     OW42376   8.853   9.441   3.447 -0.0513  0.0679  0.5653
13933SOL    HW142377   8.758   9.431   3.447 -0.1113  0.5144 -0.5197
13933SOL    HW242378   8.883   9.380   3.514 -0.8740 -2.5216 -1.2580
13934SOL     OW42379   3.874   4.305   2.643  1.0466 -0.6749  0.4898
13934SOL    HW142380   3.854   4.341   2.729 -0.2936  0.1254 -0.1323
13934SOL    HW242381   3.929   4.228   2.661 -1.7933 -2.4411  2.3116
13935SOL     OW42382   5.240   7.002   1.864 -0.1866  0.4976  0.3615
13935SOL    HW142383   5.244   7.097   1.865  0.3184  0.4803  0.9857
13935SOL    HW242384   5.289   6.975   1.942  0.8213 -0.3074 -0.5087
13936SOL     OW42385   8.359   2.750   2.896 -0.2646  0.0485 -0.3973
13936SOL    HW142386   8.440   2.704   2.919  0.2725  1.5893  0.9309
13936SOL    HW242387   8.289   2.690   2.922  0.4228 -0.4374  0.3731
13937SOL     OW42388   8.272   9.683   8.733 -0.3511  0.3087 -0.0585
13937SOL    HW142389   8.198   9.632   8.702  0.0382 -0.7368  0.7141
13937SOL    HW242390   8.316   9.712   8.653 -2.5187  2.4297 -0.6063
13938SOL     OW42391   5.590   8.729   4.602  0.3785 -0.5506  0.3105
13938SOL    HW142392   5.531   8.674   4.653 -0.0970 -0.4839 -0.1531
13938SOL    HW242393   5.585   8.815   4.644  1.0953 -0.8419  1.0124
13939SOL     OW42394   0.729   8.232   8.788 -0.2120 -0.4954  0.4525
13939SOL    HW142395   0.799   8.168   8.803 -0.1226 -1.0034 -1.8261
13939SOL    HW242396   0.772   8.317   8.802  0.7809 -0.8131 -0.5267
13940SOL     OW42397   3.870   6.618   2.019 -0.4901 -0.1218 -0.0969
13940SOL    HW142398   3.858   6.576   1.933 -0.2153  0.6350 -0.5127
13940SOL    HW242399   3.919   6.554   2.070  0.0992 -0.2394 -0.7916
13941SOL     OW42400   0.211   9.548   4.430  0.0882  0.0964 -0.3972
13941SOL    HW142401   0.228   9.640   4.410  2.3905 -0.3055 -0.5858
13941SOL    HW242402   0.162   9.516   4.355  1.0527  0.7168 -1.3318
13942SOL     OW42403   2.516   5.677   6.520  0.3951  0.0370  0.4798
13942SOL    HW142404   2.435   5.657   6.474  0.3252 -0.9357  1.0043
13942SOL    HW242405   2.538   5.766   6.492 -0.0470 -0.2427 -0.8212
13943SOL     OW42406   5.148   0.244   2.356  0.0906 -0.6005  0.0995
13943SOL    HW142407   5.208   0.311   2.390 -0.0459 -1.7996  3.0004
13943SOL    HW242408   5.177   0.163   2.398 -2.4915 -1.5296  0.2683
13944SOL     OW42409   3.120   7.629   2.086 -0.6909 -0.0698 -0.2519
13944SOL    HW142410   3.081   7.566   2.146  0.9461 -1.4964 -0.6204
13944SOL    HW242411   3.118   7.712   2.134  0.4044 -1.1261  1.7594
13945SOL     OW42412   8.048   0.795   6.136 -0.3181  0.4412 -0.3503
13945SOL    HW142413   8.075   0.886   6.149  2.8102 -0.5832  1.2903
13945SOL    HW242414   8.103   0.763   6.065 -0.7828 -0.4027 -0.3393
13946SOL     OW42415   1.391   6.342   8.208  0.4443 -0.0982 -0.4835
13946SOL    HW142416   1.309   6.392   8.201  1.3885  1.3105 -2.4340
13946SOL    HW242417   1.398   6.296   8.125  2.1018  0.6024 -0.7665
13947SOL     OW42418   8.030   6.244   1.247 -0.4151  0.1526  1.1197
13947SOL    HW142419   8.080   6.247   1.329 -0.7918  1.0384  1.3256
13947SOL    HW242420   8.078   6.303   1.188 -0.4173 -0.1071  0.8563
13948SOL     OW42421   9.590   7.121   1.880  0.2575  0.2444  0.5500
13948SOL    HW142422   9.676   7.102   1.916 -0.1613 -2.9241  0.2098
13948SOL    HW242423   9.529   7.081   1.942 -0.8552  0.7039 -0.2115
13949SOL     OW42424   6.612   8.501   8.816 -0.2000 -0.0937  0.0992
13949SOL    HW142425   6.637   8.417   8.852 -2.0412 -1.3426 -1.3728
13949SOL    HW242426   6.544   8.481   8.752  0.6316  2.2953 -1.7044
13950SOL     OW42427   5.294   1.988   5.102  0.3577 -0.3927  0.0315
13950SOL    HW142428   5.353   2.043   5.050  0.9857 -1.2225 -0.1594
13950SOL    HW242429   5.313   1.898   5.073  1.5336 -1.0180  2.4646
13951SOL     OW42430   6.337   8.208   5.198 -0.4113  0.1788  0.0726
13951SOL    HW142431   6.256   8.211   5.250 -0.7945  0.4723 -0.5313
13951SOL    HW242432   6.407   8.201   5.263 -0.9410 -0.4136  0.5928
13952SOL     OW42433   5.254   2.691   2.768  0.3232  0.0615 -0.2466
13952SOL    HW142434   5.342   2.721   2.791  0.2948 -0.1470  0.1290
13952SOL    HW242435   5.214   2.665   2.851 -1.2041  3.0190  0.0978
13953SOL     OW42436   7.131   2.903   0.749 -0.6756  0.7203 -0.1504
13953SOL    HW142437   7.190   2.938   0.682  1.1520  1.6343  1.8392
13953SOL    HW242438   7.162   2.941   0.831 -1.5717 -1.8989  1.5187
13954SOL     OW42439   2.274   6.727   6.923  0.3384 -0.6663  0.1685
13954SOL    HW142440   2.284   6.639   6.886 -1.7009 -0.9118  0.0457
13954SOL    HW242441   2.321   6.724   7.006  2.2839 -1.1117 -0.9051
13955SOL     OW42442   8.525   2.301   2.590  0.4155  0.5500  0.1880
13955SOL    HW142443   8.459   2.357   2.548  0.0653  0.1174  0.1572
13955SOL    HW242444   8.604   2.356   2.593 -0.2887  1.5419  1.3839
13956SOL     OW42445   4.536   6.108   0.823  1.0148 -0.2314  0.6774
13956SOL    HW142446   4.498   6.195   0.836  0.1029 -0.4706 -0.2016
13956SOL    HW242447   4.631   6.123   0.819  0.8873  0.6692  0.9014
13957SOL     OW42448   2.069   3.837   8.597  0.1616 -0.1982 -0.3838
13957SOL    HW142449   2.032   3.803   8.678 -0.2764  0.3079 -0.3700
13957SOL    HW242450   2.159   3.860   8.619  0.2252 -0.6185 -0.1958
13958SOL     OW42451   1.630   7.929   2.667 -0.7492 -0.1643 -0.3341
13958SOL    HW142452   1.655   7.873   2.741 -1.1363 -1.1166 -0.9030
13958SOL    HW242453   1.662   8.016   2.691  0.2587 -0.7072  0.3913
13959SOL     OW42454   4.949   8.031   2.815  0.3760 -0.1562 -0.2145
13959SOL    HW142455   5.029   7.979   2.809  1.4557  1.3413  0.4394
13959SOL    HW242456   4.978   8.115   2.850 -1.4145  0.6288 -0.5044
13960SOL     OW42457   1.000   7.439   9.905  0.2700 -0.9184  0.5419
13960SOL    HW142458   0.938   7.504   9.938  0.0380  0.6961 -2.6241
13960SOL    HW242459   1.061   7.425   9.976 -1.2848  0.6766  2.3076
13961SOL     OW42460   0.855   0.400   9.739 -0.5297 -0.2490 -0.4907
13961SOL    HW142461   0.785   0.399   9.805 -1.6788 -0.6028 -1.6603
13961SOL    HW242462   0.857   0.490   9.707  0.5989  0.1232  0.5912
13962SOL     OW42463   2.185   4.745   4.136 -0.0156 -0.5718  0.1007
13962SOL    HW142464   2.198   4.827   4.089  1.7958 -0.9371 -0.1491
13962SOL    HW242465   2.153   4.770   4.222  0.5212  0.4071  0.0249
13963SOL     OW42466   5.262   1.198   3.215  0.1310 -0.3456 -0.1140
13963SOL    HW142467   5.222   1.254   3.281 -0.5603 -2.3332  1.2581
13963SOL    HW242468   5.213   1.215   3.135  1.0030  2.1373 -0.1825
13964SOL     OW42469   6.106   7.362   9.962 -0.6610  0.6889 -0.1242
13964SOL    HW142470   6.173   7.315  10.012 -0.2903 -0.7998 -1.9113
13964SOL    HW242471   6.154   7.435   9.921 -0.5900  0.8709  0.2813
13965SOL     OW42472   1.883   5.750   5.799 -0.5121  0.2182 -0.2719
13965SOL    HW142473   1.975   5.736   5.776 -0.3689  0.4756  0.1348
13965SOL    HW242474   1.853   5.815   5.735 -0.9054 -1.1356 -1.5173
13966SOL     OW42475   7.532   9.111   2.592  0.1000  0.6390  0.0624
13966SOL    HW142476   7.558   9.173   2.660  0.0938  0.7976 -0.0801
13966SOL    HW242477   7.595   9.039   2.600 -1.2668 -0.4387  1.7497
13967SOL     OW42478   4.079   1.609   0.609  0.2513  0.3460  0.2280
13967SOL    HW142479   4.029   1.540   0.652  0.5410 -0.4797 -0.7210
13967SOL    HW242480   4.013   1.670   0.577  0.0210  0.8478  1.5793
13968SOL     OW42481   2.812   4.602   2.049 -0.4838  0.4183 -0.3074
13968SOL    HW142482   2.849   4.689   2.062  0.9189  0.1278 -2.0811
13968SOL    HW242483   2.879   4.542   2.080 -0.2044 -0.0635 -1.7475
13969SOL     OW42484   9.012   3.582   7.144  0.5131 -0.4038  0.6528
13969SOL    HW142485   8.971   3.584   7.230 -1.0285 -2.3942  0.0441
13969SOL    HW242486   8.986   3.498   7.106 -0.1831  1.0167 -2.3665
13970SOL     OW42487   1.763   1.322   3.823  0.0781 -0.1038 -0.4612
13970SOL    HW142488   1.711   1.242   3.820 -0.7070  0.4152 -1.2517
13970SOL    HW242489   1.729   1.370   3.898  1.4721 -1.1008  0.8420
13971SOL     OW42490   2.122   1.972   6.991  0.2071 -0.5909  0.6739
13971SOL    HW142491   2.046   2.014   6.950 -0.3415 -1.1797  1.0692
13971SOL    HW242492   2.122   1.884   6.956 -0.9987 -1.5219  2.7792
13972SOL     OW42493   3.213   6.788   0.090  0.3121  0.4437  0.0318
13972SOL    HW142494   3.120   6.766   0.085  0.2031  0.8002  0.4535
13972SOL    HW242495   3.248   6.761   0.005 -0.3650  1.1978 -0.5040
13973SOL     OW42496   9.413   1.352   9.978  0.2530  0.4092 -0.2211
13973SOL    HW142497   9.430   1.352   9.884  1.1545  2.2144 -0.0984
13973SOL    HW242498   9.488   1.306  10.017  0.0181 -0.0905 -0.3517
13974SOL     OW42499   0.190   6.317   9.240 -0.0836 -0.7907  0.1310
13974SOL    HW142500   0.134   6.252   9.280 -0.5939 -0.9022 -0.7411
13974SOL    HW242501   0.155   6.328   9.151  0.9569 -0.4958 -0.2614
13975SOL     OW42502   7.001   4.156   2.291 -0.0085 -0.3042  0.3394
13975SOL    HW142503   7.025   4.074   2.247  0.4919 -1.0680  1.9456
13975SOL    HW242504   7.084   4.202   2.304 -0.0814 -0.3180  0.8963
13976SOL     OW42505   7.661   3.470   8.744 -0.0282  0.8156 -0.0730
13976SOL    HW142506   7.721   3.410   8.788 -0.4414  0.4452 -0.0065
13976SOL    HW242507   7.588   3.480   8.805 -0.5956  0.3225 -0.6626
13977SOL     OW42508   2.324   8.505   2.246  0.6210 -0.5462 -0.0696
13977SOL    HW142509   2.285   8.512   2.333  0.5484  0.6950 -0.1896
13977SOL    HW242510   2.250   8.496   2.186  0.7079 -2.7635  0.0811
13978SOL     OW42511   6.433   8.793   3.308 -0.4391  0.2715  0.0018
13978SOL    HW142512   6.431   8.745   3.391 -1.7956 -0.7282 -0.5793
13978SOL    HW242513   6.417   8.726   3.242 -3.0226  1.5681 -0.8125
13979SOL     OW42514   0.134   0.742   7.509  0.2189 -0.3540 -0.5149
13979SOL    HW142515   0.211   0.686   7.509  0.2073 -0.3943 -1.8350
13979SOL    HW242516   0.162   0.821   7.556 -0.1693 -1.9314  2.5774
13980SOL     OW42517   8.709   1.213   3.370 -0.2016  0.4801  0.2926
13980SOL    HW142518   8.687   1.266   3.294  2.5195  1.1158 -0.1792
13980SOL    HW242519   8.752   1.135   3.334 -0.7227 -0.2038  1.1116
13981SOL     OW42520   9.461   8.401   0.637 -0.0368  0.2816 -0.6086
13981SOL    HW142521   9.520   8.383   0.563 -1.3883  0.9683 -1.9073
13981SOL    HW242522   9.519   8.421   0.710  1.3449  0.6030 -1.7583
13982SOL     OW42523   1.284   8.127   0.457 -0.1108 -0.3101 -0.0212
13982SOL    HW142524   1.304   8.211   0.499  3.3121 -0.8329 -0.3577
13982SOL    HW242525   1.231   8.080   0.521  0.7010  0.8496  1.5646
13983SOL     OW42526   2.215   8.305   3.438  0.0088 -0.2497 -0.4506
13983SOL    HW142527   2.286   8.296   3.502 -0.4551 -3.0561 -0.1843
13983SOL    HW242528   2.202   8.399   3.429  3.4360  0.3671 -0.1839
13984SOL     OW42529   3.980   9.254   2.563 -0.5144 -0.1147 -0.3965
13984SOL    HW142530   3.926   9.333   2.551 -0.7768 -0.1458  0.5538
13984SOL    HW242531   4.060   9.273   2.514 -0.7883  0.5247 -0.6183
13985SOL     OW42532   0.935   4.755   5.434 -0.3091 -0.2601  0.1554
13985SOL    HW142533   0.916   4.843   5.403 -1.9654 -1.4760 -2.5777
13985SOL    HW242534   1.030   4.755   5.448 -0.2119  1.8083 -0.1568
13986SOL     OW42535   8.356   6.148   1.215 -0.1822 -0.5485  0.2706
13986SOL    HW142536   8.438   6.188   1.244 -0.6132  0.8535 -0.3622
13986SOL    HW242537   8.329   6.202   1.140  0.1796 -3.1419 -1.8963
13987SOL     OW42538   4.765   7.104   8.504 -0.1861  0.1576  0.6231
13987SOL    HW142539   4.790   7.096   8.412  0.2252 -1.9987  0.8714
13987SOL    HW242540   4.831   7.162   8.542  0.6606 -0.3136 -0.0881
13988SOL     OW42541   6.725   8.641   4.787 -0.1228 -0.0732  0.0043
13988SOL    HW142542   6.635   8.625   4.815  0.3141 -0.7028  1.0839
13988SOL    HW242543   6.779   8.584   4.842  1.0290  1.0517  0.1027
13989SOL     OW42544   8.253   7.267   6.236  0.7238  0.4839 -0.4156
13989SOL    HW142545   8.248   7.293   6.328  3.5708  2.7749 -0.7550
13989SOL    HW242546   8.226   7.345   6.188 -0.2112 -0.5121 -1.5662
13990SOL     OW42547   8.249   3.790   4.765 -0.3530  0.3811 -0.5394
13990SOL    HW142548   8.168   3.746   4.736  0.1903 -0.0402 -1.4643
13990SOL    HW242549   8.272   3.848   4.692  1.5202 -1.3526 -1.4358
13991SOL     OW42550   3.616   9.257   2.543 -0.5279  0.4345  0.3347
13991SOL    HW142551   3.677   9.213   2.484 -1.8294  0.3483 -1.0085
13991SOL    HW242552   3.644   9.231   2.631  0.8059 -0.2996 -0.2818
13992SOL     OW42553   6.815   6.882   9.163 -0.1544  0.0753 -0.2150
13992SOL    HW142554   6.750   6.894   9.232 -0.6714 -2.3000 -0.2148
13992SOL    HW242555   6.892   6.931   9.193 -1.0343  0.7221  1.0578
13993SOL     OW42556   2.092   6.818   8.716  0.2017 -0.2270 -0.2624
13993SOL    HW142557   2.102   6.836   8.622  0.6937 -0.2142 -0.2115
13993SOL    HW242558   2.030   6.885   8.746 -1.2193 -1.2184 -0.8840
13994SOL     OW42559   3.550   7.300   0.390 -0.1422 -0.0294  0.6372
13994SOL    HW142560   3.459   7.306   0.419 -0.6637  2.5669 -1.2049
13994SOL    HW242561   3.600   7.338   0.462 -0.6315 -0.3276  1.1454
13995SOL     OW42562   2.650   5.144   9.986  0.4404  0.2976 -0.0319
13995SOL    HW142563   2.618   5.213  10.044 -0.8993 -0.1451 -0.2202
13995SOL    HW242564   2.637   5.179   9.898  2.0995  0.8038 -0.1218
13996SOL     OW42565   2.493   9.535   4.730  0.2117 -0.0316 -0.4037
13996SOL    HW142566   2.478   9.484   4.650 -0.0755 -0.1794 -0.2596
13996SOL    HW242567   2.529   9.471   4.792  1.5517  0.3502 -0.7803
13997SOL     OW42568   7.664   1.462   3.769 -0.3933 -0.2605 -0.3329
13997SOL    HW142569   7.607   1.473   3.845 -0.7152 -1.5368 -0.3684
13997SOL    HW242570   7.736   1.522   3.785 -0.5873 -0.3090  0.8635
13998SOL     OW42571   9.597   4.309   8.139 -0.0451 -0.2750  0.1745
13998SOL    HW142572   9.605   4.347   8.227  0.9624  1.4746 -0.6200
13998SOL    HW242573   9.612   4.216   8.152  1.6646  0.1476  1.6917
13999SOL     OW42574   1.107   7.671   3.301  0.1142  0.3662  0.6269
13999SOL    HW142575   1.135   7.749   3.254 -0.2261 -0.2781 -0.6777
13999SOL    HW242576   1.186   7.641   3.347  1.5667 -1.0815 -2.5034
14000SOL     OW42577   8.881   7.007   1.571  0.2738  0.3083  0.8901
14000SOL    HW142578   8.933   6.930   1.595  1.7709  1.2115  0.7135
14000SOL    HW242579   8.937   7.081   1.594 -0.2047  1.3052 -0.9725
14001SOL     OW42580   4.338   7.649   5.243  0.1406  0.3198 -0.2237
14001SOL    HW142581   4.321   7.739   5.215 -1.0161  0.2278  0.1535
14001SOL    HW242582   4.313   7.647   5.335 -0.3717 -0.5227 -0.3744
14002SOL     OW42583   5.928   2.740   9.050  0.3290  0.0528  0.0168
14002SOL    HW142584   5.861   2.795   9.011 -0.3786 -1.3356 -0.8095
14002SOL    HW242585   5.907   2.739   9.144 -0.7864 -0.3127 -0.2252
14003SOL     OW42586   6.755   7.923   8.292 -0.2357 -0.1769  0.2844
14003SOL    HW142587   6.711   7.858   8.237 -1.0409  0.2290  0.4420
14003SOL    HW242588   6.778   7.993   8.231  0.7477 -0.6493  0.0896
14004SOL     OW42589   4.763   1.131   4.670 -0.2529  0.1576  0.1287
14004SOL    HW142590   4.780   1.110   4.578  0.8076 -0.0736  0.3745
14004SOL    HW242591   4.678   1.090   4.688  1.4947 -3.6675  0.4743
14005SOL     OW42592   9.564   7.959   1.188 -0.1567 -0.2784 -0.3068
14005SOL    HW142593   9.478   7.994   1.162 -0.2365  0.3713  0.7879
14005SOL    HW242594   9.625   8.003   1.129 -0.4278  0.4389 -0.0630
14006SOL     OW42595   9.973   5.517   8.033  0.7565  0.3089 -0.3745
14006SOL    HW142596   9.977   5.590   8.095 -0.0303  1.1842 -1.3085
14006SOL    HW242597   9.976   5.559   7.947  0.6017 -0.7929 -0.9307
14007SOL     OW42598   4.505   3.231   4.159  0.3858  0.4200  0.9277
14007SOL    HW142599   4.499   3.242   4.064 -0.9894  1.8684  1.1297
14007SOL    HW242600   4.539   3.142   4.171 -1.1085 -0.4675 -0.9050
14008SOL     OW42601   1.336   9.054   0.051 -0.2721  0.2550 -0.5568
14008SOL    HW142602   1.416   9.001   0.043  0.8922  1.3525  2.3784
14008SOL    HW242603   1.358   9.138   0.011  0.3718  0.8141  0.9115
14009SOL     OW42604   8.100   5.971   7.167  0.3738 -0.5248  0.1670
14009SOL    HW142605   8.091   6.000   7.258 -0.1585 -0.9389  0.2496
14009SOL    HW242606   8.052   5.888   7.163  0.1413 -0.3661 -0.5566
14010SOL     OW42607   5.671   2.715   4.695  0.7091 -0.1642  0.4040
14010SOL    HW142608   5.717   2.697   4.613  1.1259  0.1500  0.5676
14010SOL    HW242609   5.586   2.672   4.684  1.0083 -0.6941  0.0724
14011SOL     OW42610   6.775   0.320   6.986  0.5243 -0.3917  0.1248
14011SOL    HW142611   6.762   0.398   7.040 -0.4483 -0.9202  0.6809
14011SOL    HW242612   6.739   0.344   6.900  1.3093  0.1604 -0.0668
14012SOL     OW42613   8.730   2.529   3.641 -0.1166  0.1984 -0.0631
14012SOL    HW142614   8.761   2.588   3.709  1.3759  0.4685 -0.9224
14012SOL    HW242615   8.719   2.444   3.685  1.5789  0.1767  0.3824
14013SOL     OW42616   2.541   2.423   6.179 -0.0800 -0.0772  0.2911
14013SOL    HW142617   2.476   2.365   6.219 -3.5665  1.2678 -2.8460
14013SOL    HW242618   2.533   2.406   6.085  0.2153  3.9304 -0.6218
14014SOL     OW42619   0.739   3.386   0.331  0.2029 -0.5299  0.1836
14014SOL    HW142620   0.758   3.451   0.264  0.4648  0.3715  1.0935
14014SOL    HW242621   0.783   3.307   0.303  0.0387 -0.2609 -0.8557
14015SOL     OW42622   4.071   7.446   3.923 -0.1073 -0.0702  0.0068
14015SOL    HW142623   4.130   7.430   3.849  1.5444  0.5409  1.1376
14015SOL    HW242624   4.099   7.531   3.958 -0.7531 -0.4195  1.4265
14016SOL     OW42625   0.044   9.272   0.645 -0.1184 -0.2653 -0.3106
14016SOL    HW142626  -0.023   9.251   0.710  1.2761 -0.0334  1.2673
14016SOL    HW242627   0.107   9.200   0.652  1.0372  0.7546 -0.0007
14017SOL     OW42628   0.037   4.425   6.540  0.3366 -0.0374 -0.6663
14017SOL    HW142629  -0.039   4.368   6.526  0.7265 -0.4207 -1.2523
14017SOL    HW242630   0.025   4.497   6.479 -0.9602  1.3664  1.1470
14018SOL     OW42631   9.977   5.324   8.327 -0.0793 -0.2265 -0.3292
14018SOL    HW142632  10.004   5.413   8.304 -0.3059  0.1691  0.8160
14018SOL    HW242633   9.917   5.337   8.401  0.7854 -1.3986  0.5995
14019SOL     OW42634   0.677   2.058   9.745  0.1872 -0.2092 -0.2352
14019SOL    HW142635   0.739   1.987   9.759  0.0193 -0.2350  0.4038
14019SOL    HW242636   0.623   2.029   9.671 -0.3155 -1.0476  0.4497
14020SOL     OW42637   6.225   4.304   3.417  0.1880 -0.0663 -0.7526
14020SOL    HW142638   6.150   4.332   3.366  1.3549  1.2748 -1.8060
14020SOL    HW242639   6.239   4.213   3.392 -1.2174 -0.4188 -0.3364
14021SOL     OW42640   2.522   7.825   0.886  0.3720 -0.0972 -0.2837
14021SOL    HW142641   2.470   7.874   0.950  1.4153  0.3787  0.2299
14021SOL    HW242642   2.605   7.807   0.931  0.7709 -0.5650 -1.1818
14022SOL     OW42643   7.454   4.130   0.786  0.2039 -0.3195  0.0509
14022SOL    HW142644   7.538   4.091   0.812  0.1498 -0.8564 -0.5505
14022SOL    HW242645   7.414   4.158   0.868  1.7015  1.4869  0.2261
14023SOL     OW42646   5.017   1.468   5.193 -0.2314 -0.4742  0.0501
14023SOL    HW142647   5.036   1.546   5.245 -0.7361 -0.3417  0.0379
14023SOL    HW242648   5.001   1.399   5.257  0.5595 -0.6592  0.0609
14024SOL     OW42649   2.781   1.194   6.757  0.0030  0.4791  0.0390
14024SOL    HW142650   2.739   1.162   6.677 -1.1769  0.4305  0.6512
14024SOL    HW242651   2.872   1.208   6.732 -0.3868  0.6818 -1.3746
14025SOL     OW42652   8.260   6.428   3.549  0.2294 -1.1210 -0.6223
14025SOL    HW142653   8.269   6.437   3.644  0.1131  2.0645 -0.7920
14025SOL    HW242654   8.348   6.405   3.519  0.8387  0.1494  0.1051
14026SOL     OW42655   4.270   9.036   7.087  0.5507 -0.4318 -0.1058
14026SOL    HW142656   4.321   9.052   7.166  0.5805 -1.2403  0.0383
14026SOL    HW242657   4.282   9.116   7.035  0.6589  0.0392  0.6258
14027SOL     OW42658   8.844   5.343   5.311  0.0877 -0.5473 -0.3049
14027SOL    HW142659   8.894   5.372   5.388 -0.3765  0.1913 -0.2699
14027SOL    HW242660   8.893   5.378   5.236  0.4820 -1.1783 -0.3483
14028SOL     OW42661   4.154   9.184   7.346 -0.1661 -0.4625  0.3895
14028SOL    HW142662   4.241   9.211   7.378 -0.5551  2.1086 -0.5337
14028SOL    HW242663   4.105   9.266   7.337 -2.1770 -1.7121 -0.6646
14029SOL     OW42664   0.387   8.132   3.826 -0.1963  0.2202  0.3772
14029SOL    HW142665   0.320   8.065   3.818  0.8811 -0.7888 -0.4922
14029SOL    HW242666   0.343   8.205   3.870 -1.7073 -0.6001  0.2830
14030SOL     OW42667   2.383   4.884   9.683  0.2436  0.4434  0.5275
14030SOL    HW142668   2.373   4.800   9.729 -2.4271 -0.1369 -0.8830
14030SOL    HW242669   2.396   4.859   9.591 -2.3134  1.4646 -0.2006
14031SOL     OW42670   0.144   7.061   3.311 -0.6358 -0.3838 -0.2211
14031SOL    HW142671   0.054   7.033   3.328 -0.5990 -0.3745 -0.0103
14031SOL    HW242672   0.139   7.157   3.311 -0.3477 -0.3386  1.3651
14032SOL     OW42673   5.002   4.454   0.770 -0.0572 -0.2816  0.6762
14032SOL    HW142674   4.954   4.531   0.801  0.9769  0.0840  1.4254
14032SOL    HW242675   5.041   4.483   0.687 -1.8208 -0.8729 -0.4265
14033SOL     OW42676   0.255   6.686   3.479 -0.3605  0.4128 -0.1290
14033SOL    HW142677   0.202   6.662   3.555  2.0061  2.0676  2.2352
14033SOL    HW242678   0.244   6.613   3.418 -2.5641 -0.8982  1.6857
14034SOL     OW42679   0.221   0.758   4.801  0.2080 -0.0072  0.3856
14034SOL    HW142680   0.285   0.806   4.852  0.0944  1.3196 -0.6728
14034SOL    HW242681   0.210   0.675   4.848  0.4004  0.9783  2.2659
14035SOL     OW42682   4.046   7.507   3.308  0.3384 -0.4023  0.0881
14035SOL    HW142683   3.963   7.474   3.273 -0.5042  0.5416  1.1300
14035SOL    HW242684   4.111   7.478   3.244 -0.9973  0.3052 -1.7184
14036SOL     OW42685   9.293   9.522   6.570 -0.5220 -0.2921  0.5013
14036SOL    HW142686   9.343   9.443   6.549  0.0816  0.3472 -0.5704
14036SOL    HW242687   9.224   9.491   6.629 -0.8305 -1.7878 -0.5633
14037SOL     OW42688   8.746   4.516   2.130 -0.2997  0.2074 -0.4604
14037SOL    HW142689   8.834   4.517   2.169 -0.8745  1.7938  0.8635
14037SOL    HW242690   8.748   4.586   2.065 -0.8529  0.8359  0.1965
14038SOL     OW42691   7.808   5.369   5.494  0.6424 -0.7345 -0.0820
14038SOL    HW142692   7.754   5.444   5.471  0.5580 -0.3424  1.2714
14038SOL    HW242693   7.871   5.361   5.423 -0.1523 -0.1706 -0.8654
14039SOL     OW42694   5.248   8.943   0.180 -0.0169 -0.2747 -0.7851
14039SOL    HW142695   5.305   8.889   0.125  0.6627  1.8372 -2.2800
14039SOL    HW242696   5.220   9.014   0.123 -3.7848 -0.8851  0.0440
14040SOL     OW42697   6.102   1.443   8.176 -0.1001  0.0312 -0.6316
14040SOL    HW142698   6.121   1.534   8.157 -1.7900  0.2241 -1.6175
14040SOL    HW242699   6.043   1.415   8.106 -3.0284 -0.5439  1.7949
14041SOL     OW42700   9.061   4.629   3.790  0.0110 -0.2547 -0.2572
14041SOL    HW142701   9.112   4.590   3.719 -0.4134 -1.0557 -0.1328
14041SOL    HW242702   8.984   4.573   3.797 -1.5950  1.6897 -1.3532
14042SOL     OW42703   6.910   5.450   2.349  0.0772 -0.2496 -0.1802
14042SOL    HW142704   6.949   5.396   2.280  2.8687 -1.1075  1.8601
14042SOL    HW242705   6.840   5.498   2.305  1.5308 -0.8820 -3.5293
14043SOL     OW42706   1.100   5.490   6.116  0.3615  0.3493  0.6543
14043SOL    HW142707   1.177   5.539   6.144  0.0573  1.4749 -0.3573
14043SOL    HW242708   1.087   5.517   6.025 -0.5356 -0.7219  0.4462
14044SOL     OW42709   3.914   4.178   4.056 -0.0651 -0.4989  0.0378
14044SOL    HW142710   3.947   4.228   4.130 -2.0551  1.1368 -0.1118
14044SOL    HW242711   3.980   4.109   4.043  1.4511  0.5029  1.8816
14045SOL     OW42712   3.531   6.595   7.541 -0.0047  0.1929  0.2639
14045SOL    HW142713   3.474   6.520   7.558 -0.2354  0.6732  1.8408
14045SOL    HW242714   3.593   6.595   7.614  0.9928  0.6341 -0.5526
14046SOL     OW42715   7.548   7.371   1.910 -0.3511 -0.0645  0.3379
14046SOL    HW142716   7.490   7.441   1.939 -0.0938  0.4438 -0.3209
14046SOL    HW242717   7.602   7.413   1.842 -0.5945 -1.0527 -0.4892
14047SOL     OW42718   2.744   8.068   6.956  0.1862 -0.1514  0.3923
14047SOL    HW142719   2.728   8.002   6.889  1.8976 -0.7437  0.5042
14047SOL    HW242720   2.742   8.019   7.039 -0.7501  0.3637  0.6889
14048SOL     OW42721   0.389   1.770   0.192  0.2237  0.1494 -0.7915
14048SOL    HW142722   0.330   1.844   0.176 -0.7463 -0.3544  0.2755
14048SOL    HW242723   0.381   1.715   0.114 -2.1054 -0.7764  0.0177
14049SOL     OW42724   5.218   4.698   7.346  0.4175 -0.0680 -0.1073
14049SOL    HW142725   5.237   4.655   7.262 -1.1561  0.5124 -0.8112
14049SOL    HW242726   5.276   4.774   7.348 -0.4013  0.6267 -1.3060
14050SOL     OW42727   1.609   4.239   1.937  0.0435  0.1093 -0.3752
14050SOL    HW142728   1.605   4.230   1.842 -2.4712 -2.0632 -0.1647
14050SOL    HW242729   1.600   4.150   1.971  0.2551  0.8846  1.9139
14051SOL     OW42730   0.532   1.433   6.649  0.0976  0.3525  0.0553
14051SOL    HW142731   0.540   1.340   6.671 -1.2200  0.1678 -0.1246
14051SOL    HW242732   0.613   1.473   6.679  0.1610 -0.6469  1.2640
14052SOL     OW42733   4.659   7.396   7.467 -0.5638  0.5481 -0.6894
14052SOL    HW142734   4.580   7.360   7.508 -0.3199  0.7007 -0.0658
14052SOL    HW242735   4.677   7.339   7.393 -0.5758 -0.2072 -0.1194
14053SOL     OW42736   7.583   4.010   1.006 -0.3589 -0.3022  0.2885
14053SOL    HW142737   7.561   4.071   1.077  0.2035 -1.7376  1.7505
14053SOL    HW242738   7.566   3.923   1.043  0.1601 -1.1039 -1.2713
14054SOL     OW42739   6.210   0.793   5.453 -0.0881 -0.4278 -0.3267
14054SOL    HW142740   6.151   0.820   5.383  1.0107  0.3349 -0.9963
14054SOL    HW242741   6.265   0.869   5.468  0.6452 -1.0782  0.3648
14055SOL     OW42742   7.930   1.234   5.812 -0.2057 -0.1136  0.4856
14055SOL    HW142743   7.982   1.263   5.737 -1.9055  0.7056 -0.4419
14055SOL    HW242744   7.891   1.151   5.785 -0.8622  0.2051  0.4270
14056SOL     OW42745   4.541   1.506   4.287  0.0484  0.0578  0.2425
14056SOL    HW142746   4.626   1.465   4.307 -0.5295 -1.2425  0.1258
14056SOL    HW242747   4.536   1.504   4.191  0.6245  1.7129  0.1564
14057SOL     OW42748   9.473   6.719   7.370  0.4165 -0.6871  0.4506
14057SOL    HW142749   9.518   6.642   7.406 -0.6860 -1.4286  0.2899
14057SOL    HW242750   9.422   6.685   7.297  0.9555  0.4444 -0.4768
14058SOL     OW42751   1.146   5.117   5.093  0.7603 -0.0531 -0.3554
14058SOL    HW142752   1.241   5.118   5.078  0.6697  0.3011 -0.9620
14058SOL    HW242753   1.115   5.044   5.039  0.9454 -1.7328  1.6776
14059SOL     OW42754   7.471   4.498   0.043  0.3042  0.0578 -0.4129
14059SOL    HW142755   7.541   4.562   0.032  1.8901 -1.3653  0.8162
14059SOL    HW242756   7.506   4.418   0.004 -1.3676 -0.2759 -1.3364
14060SOL     OW42757   8.173   3.707   5.196  0.4778 -0.1947  0.1171
14060SOL    HW142758   8.248   3.710   5.136 -0.0042  1.2455 -0.4469
14060SOL    HW242759   8.183   3.785   5.251  0.3950 -0.9945  1.3035
14061SOL     OW42760   3.424   1.342   3.314  0.2009  0.0387 -0.1422
14061SOL    HW142761   3.476   1.379   3.243 -0.3836 -0.5407 -0.9030
14061SOL    HW242762   3.470   1.262   3.339 -1.1338 -1.3961 -1.9786
14062SOL     OW42763   0.070   3.265   8.608  0.3319 -0.1502  0.5687
14062SOL    HW142764   0.093   3.224   8.524 -0.3636 -1.4461  0.9810
14062SOL    HW242765   0.119   3.216   8.673  0.6915  0.7059  0.9539
14063SOL     OW42766   5.795   3.123   2.674 -0.3901 -0.3434 -0.8004
14063SOL    HW142767   5.845   3.124   2.755 -0.0081 -1.8266 -0.9901
14063SOL    HW242768   5.806   3.211   2.638  0.0852  0.0841  0.3593
14064SOL     OW42769   2.464   7.383   6.249 -0.6315  0.2234 -0.8682
14064SOL    HW142770   2.475   7.474   6.277 -1.1125  0.3299 -1.0274
14064SOL    HW242771   2.460   7.387   6.154  0.4793 -0.0871 -0.9501
14065SOL     OW42772   6.020   1.814   2.228  0.4196 -0.4421 -0.1777
14065SOL    HW142773   6.090   1.873   2.253 -0.5819  1.5155 -1.6383
14065SOL    HW242774   5.947   1.872   2.206 -0.3004 -2.1333 -2.7290
14066SOL     OW42775   0.461   0.388   5.209  0.1681  0.0599 -0.3840
14066SOL    HW142776   0.479   0.477   5.238  0.0583  0.5528 -1.7352
14066SOL    HW242777   0.546   0.352   5.186  0.2703 -0.3727  0.6000
14067SOL     OW42778   3.051   9.022   5.002  0.3609  0.0191 -0.1755
14067SOL    HW142779   2.978   8.962   4.997  1.0296 -0.7422 -1.3095
14067SOL    HW242780   3.128   8.968   4.984  0.8135  1.4650 -3.2812
14068SOL     OW42781   7.729   2.192   7.503 -0.3576 -0.0095  0.4258
14068SOL    HW142782   7.788   2.260   7.469  3.2350 -0.8567  4.1395
14068SOL    HW242783   7.664   2.240   7.554  1.3776  0.8659  1.9508
14069SOL     OW42784   4.359   6.341   5.255 -0.2286  0.7107  0.1614
14069SOL    HW142785   4.404   6.299   5.328 -1.3523  0.2796  0.6248
14069SOL    HW242786   4.305   6.271   5.217 -0.2395  1.1255 -0.6138
14070SOL     OW42787   9.441   8.879   8.261  0.5833 -0.1132 -0.2159
14070SOL    HW142788   9.413   8.800   8.306  1.7703 -0.5170 -0.1443
14070SOL    HW242789   9.479   8.849   8.179  0.2869  0.4552 -0.5709
14071SOL     OW42790   0.665   6.528   5.611  0.0124  0.7192 -0.2753
14071SOL    HW142791   0.639   6.620   5.615 -1.0389  0.4000  0.6993
14071SOL    HW242792   0.635   6.499   5.525 -1.7524  0.7053  0.3172
14072SOL     OW42793   7.754   1.597   5.711  0.0424  0.1375  0.0888
14072SOL    HW142794   7.711   1.667   5.662  1.0830  1.0895  0.4749
14072SOL    HW242795   7.814   1.557   5.649 -0.1720 -0.0614  0.0102
14073SOL     OW42796   2.052   0.719   4.290  0.3970  0.1002  0.0587
14073SOL    HW142797   1.982   0.690   4.231  0.1587 -0.9010  0.8152
14073SOL    HW242798   2.007   0.770   4.357  1.0071  4.3981 -2.4189
14074SOL     OW42799   5.134   4.205   7.567 -0.2859  0.0526 -0.0670
14074SOL    HW142800   5.050   4.168   7.596 -0.9172  0.5840 -1.1697
14074SOL    HW242801   5.111   4.290   7.530  0.9673  0.9581  1.1161
14075SOL     OW42802   7.655   9.305   1.045 -0.2788  0.2301 -0.2999
14075SOL    HW142803   7.602   9.229   1.023  1.4164 -0.9129 -0.6710
14075SOL    HW242804   7.705   9.322   0.965  1.1783  0.1486  0.5634
14076SOL     OW42805   7.826   8.182   7.532 -0.0383  0.0814  0.4345
14076SOL    HW142806   7.733   8.191   7.552 -0.1604 -0.4097  0.0949
14076SOL    HW242807   7.870   8.220   7.608 -0.5173  0.8774  0.3327
14077SOL     OW42808   6.062   7.852   1.838  0.3431  0.4894 -0.0736
14077SOL    HW142809   6.093   7.940   1.816  0.8783  0.8231  1.8435
14077SOL    HW242810   6.141   7.799   1.844  0.2970  0.5391  1.4213
14078SOL     OW42811   0.676   4.011   5.001  0.3006 -0.4488 -0.1465
14078SOL    HW142812   0.679   4.106   5.010  0.2315 -0.4104 -0.5390
14078SOL    HW242813   0.624   3.995   4.922  2.0919 -0.7590 -1.3053
14079SOL     OW42814   9.432   5.598   8.690 -0.0691  0.0001 -0.3925
14079SOL    HW142815   9.347   5.559   8.672  1.0323 -1.6542 -2.4605
14079SOL    HW242816   9.426   5.686   8.654 -0.8522 -0.1447 -0.6413
14080SOL     OW42817   3.955   1.392   4.975 -0.2079 -0.3833  0.3845
14080SOL    HW142818   3.996   1.474   4.946  0.4797 -0.4753  1.0603
14080SOL    HW242819   3.975   1.329   4.906  0.5447 -0.3492  0.5648
14081SOL     OW42820   8.091   2.039   1.309  0.3029 -0.1004 -0.5096
14081SOL    HW142821   8.183   2.062   1.299  0.0187  0.2537 -2.5410
14081SOL    HW242822   8.044   2.120   1.293 -0.4085 -0.4400 -0.1644
14082SOL     OW42823   0.878   0.111   8.913 -0.0720  0.0970 -0.2014
14082SOL    HW142824   0.896   0.125   8.820 -1.0946 -0.8467 -0.5692
14082SOL    HW242825   0.851   0.019   8.918 -0.7847  0.3533  0.8996
14083SOL     OW42826   6.025   5.633   1.824  0.3873  0.2449  0.0839
14083SOL    HW142827   6.087   5.618   1.895 -0.1518  0.4634  0.6085
14083SOL    HW242828   5.947   5.583   1.850  0.8784 -1.3809 -1.3419
14084SOL     OW42829   6.767   6.375   3.309  0.0693 -0.5545  0.2624
14084SOL    HW142830   6.720   6.455   3.332 -0.3467 -1.3636  2.5458
14084SOL    HW242831   6.788   6.385   3.217 -2.4302  0.9595 -0.2546
14085SOL     OW42832   1.525   7.049   4.283  0.0838 -0.1089 -0.5541
14085SOL    HW142833   1.502   7.080   4.196  0.2562 -0.1092 -0.6001
14085SOL    HW242834   1.447   7.003   4.314  0.2997 -0.8389 -1.0431
14086SOL     OW42835   3.778   5.567   5.280 -0.0306  0.3505 -0.0823
14086SOL    HW142836   3.717   5.546   5.351 -1.4884  0.6882 -1.1885
14086SOL    HW242837   3.768   5.661   5.267  3.1432  1.1052  1.8243
14087SOL     OW42838   1.979   7.653   5.353 -0.2229  0.1798  0.2029
14087SOL    HW142839   1.884   7.664   5.353 -0.1622  0.7655 -0.2844
14087SOL    HW242840   2.008   7.691   5.437 -0.4644 -0.4790  0.5883
14088SOL     OW42841   2.463   4.387   2.120 -0.1630 -0.0105  0.1665
14088SOL    HW142842   2.457   4.410   2.027  0.5296  0.4943  0.2398
14088SOL    HW242843   2.379   4.413   2.157 -0.0585  0.7657 -0.1203
14089SOL     OW42844   5.685   7.931   4.410  0.1147  0.1646 -0.5722
14089SOL    HW142845   5.628   7.854   4.418  0.0144  0.3369  0.3693
14089SOL    HW242846   5.631   7.995   4.363  0.2501 -0.3708 -1.5023
14090SOL     OW42847   4.458   1.169   9.204 -0.1875 -0.0855  0.2992
14090SOL    HW142848   4.526   1.233   9.221 -0.4756  0.9639 -2.1260
14090SOL    HW242849   4.378   1.209   9.237 -0.0214 -0.2220  0.8742
14091SOL     OW42850   7.695   8.734   6.380 -0.4171 -0.3538  0.2845
14091SOL    HW142851   7.736   8.648   6.387 -1.1565 -0.7974 -0.7268
14091SOL    HW242852   7.627   8.734   6.447  0.0401 -0.2758  0.7627
14092SOL     OW42853   4.367   8.533   2.384 -0.4067 -0.4489  0.6150
14092SOL    HW142854   4.347   8.626   2.372  1.9309 -0.0330 -0.7810
14092SOL    HW242855   4.410   8.530   2.470  1.7629  0.2663 -0.3768
14093SOL     OW42856   4.181   4.760   6.295 -0.4252 -0.4246 -0.2696
14093SOL    HW142857   4.110   4.817   6.325  2.2867  2.4542  1.3345
14093SOL    HW242858   4.199   4.789   6.206  0.6106  1.0517  0.3682
14094SOL     OW42859   0.851   5.965   6.293  0.0801  0.5442  0.1720
14094SOL    HW142860   0.922   5.939   6.352 -0.8769 -1.4227  0.5210
14094SOL    HW242861   0.805   6.035   6.340  0.3278  0.1530  1.0067
14095SOL     OW42862   0.357   6.449   8.964  0.0844 -0.2098 -0.0258
14095SOL    HW142863   0.333   6.535   8.999 -0.5747  0.0212 -0.9827
14095SOL    HW242864   0.440   6.464   8.919 -0.0475 -0.0609 -0.2210
14096SOL     OW42865   5.805   1.871   4.212  0.2576  0.3788 -0.1417
14096SOL    HW142866   5.862   1.922   4.154 -0.0835  0.8203 -0.0946
14096SOL    HW242867   5.853   1.866   4.294 -0.2241  1.6845  0.2473
14097SOL     OW42868   4.938   6.218   7.119  0.1010 -0.2334 -0.3637
14097SOL    HW142869   4.983   6.215   7.034  1.5428 -1.2460  0.3743
14097SOL    HW242870   5.008   6.202   7.183 -1.2499 -1.4327  0.8833
14098SOL     OW42871   7.232   6.550   5.869 -0.0115  0.2370  0.1518
14098SOL    HW142872   7.319   6.516   5.892  0.0642  0.4830  0.2389
14098SOL    HW242873   7.190   6.565   5.953  0.7026  2.2599  0.1994
14099SOL     OW42874   2.651   2.335   2.632 -0.0027  0.6399  0.0659
14099SOL    HW142875   2.740   2.300   2.626  0.6213  2.3546 -1.6504
14099SOL    HW242876   2.608   2.305   2.552 -0.9259  0.0425  0.7582
14100SOL     OW42877   2.856   3.310   6.077  0.2620 -0.3992  0.2617
14100SOL    HW142878   2.893   3.339   6.161  0.2597  0.2540  0.0424
14100SOL    HW242879   2.873   3.382   6.017 -1.7267  0.1216  0.2437
14101SOL     OW42880   3.797   3.211   1.233  0.1949  0.4511  0.2772
14101SOL    HW142881   3.884   3.227   1.198  0.4275 -0.0106  0.6334
14101SOL    HW242882   3.810   3.149   1.305 -0.4479  0.1882  0.1829
14102SOL     OW42883   3.081   0.675   6.968 -0.2410  0.3963 -0.0459
14102SOL    HW142884   3.028   0.660   6.890 -0.4725  0.6347  0.0619
14102SOL    HW242885   3.052   0.761   7.000  1.0106  1.0560 -0.6235
14103SOL     OW42886   0.285   3.828   0.543 -0.1656  0.1654 -0.2350
14103SOL    HW142887   0.216   3.880   0.585 -0.7463  0.9136 -2.0230
14103SOL    HW242888   0.365   3.877   0.559 -0.4822  0.7980 -0.5571
14104SOL     OW42889   2.976   7.337   1.187  0.2488  0.2547  0.0594
14104SOL    HW142890   2.905   7.279   1.158 -1.5692  1.8174  1.1293
14104SOL    HW242891   3.033   7.281   1.239 -0.8114 -0.8544  0.0787
14105SOL     OW42892   6.339   2.927   5.616  0.1843  0.0245 -0.2615
14105SOL    HW142893   6.255   2.971   5.626  0.5025  1.1325 -1.9882
14105SOL    HW242894   6.402   2.986   5.659  0.0521 -1.1386  1.6494
14106SOL     OW42895   2.129   8.979   6.459  0.4337  0.0885 -0.3578
14106SOL    HW142896   2.154   8.947   6.372  1.3223 -0.7924  0.2047
14106SOL    HW242897   2.206   8.963   6.514  0.4806  2.0984  0.2461
14107SOL     OW42898   7.553   0.342   1.076 -0.5054  0.0408 -0.2101
14107SOL    HW142899   7.499   0.289   1.136 -1.3218  1.5179  0.4079
14107SOL    HW242900   7.561   0.288   0.998 -0.9638 -1.1732  0.5377
14108SOL     OW42901   6.131   3.733   7.350 -0.2316 -0.2136  0.4623
14108SOL    HW142902   6.141   3.815   7.399 -0.2260  0.1237 -0.0831
14108SOL    HW242903   6.037   3.726   7.334 -0.6904 -2.0618  3.3821
14109SOL     OW42904   2.207   3.967   2.550 -0.1368 -0.4703  0.4023
14109SOL    HW142905   2.182   4.010   2.468  1.4639 -0.1937  0.0198
14109SOL    HW242906   2.226   4.040   2.610  0.1680 -0.6631  0.5407
14110SOL     OW42907   9.147   2.209   5.374 -0.1491  0.2677 -0.2634
14110SOL    HW142908   9.226   2.263   5.366 -0.0665  0.2827  0.6018
14110SOL    HW242909   9.096   2.250   5.443 -0.2561 -0.5432  0.1517
14111SOL     OW42910   8.566   3.686   2.071 -0.1162 -0.3226 -0.0949
14111SOL    HW142911   8.511   3.613   2.042 -0.6502 -1.0494  2.4978
14111SOL    HW242912   8.626   3.701   1.998 -1.8459 -1.4471 -1.8384
14112SOL     OW42913   4.613   9.890   3.349 -0.1896  0.8937 -0.2117
14112SOL    HW142914   4.552   9.825   3.315 -0.2520  1.7981 -1.9246
14112SOL    HW242915   4.641   9.940   3.272  0.9046  2.0129  0.8634
14113SOL     OW42916   1.612   8.594   7.676 -0.3583 -0.5656 -0.3432
14113SOL    HW142917   1.677   8.642   7.625 -0.4831  0.9913  0.8585
14113SOL    HW242918   1.642   8.503   7.675  1.4712  0.0050 -0.3949
14114SOL     OW42919   6.635   5.429   2.628  0.0017  0.3386  0.1559
14114SOL    HW142920   6.631   5.357   2.565  1.2350 -0.5229  0.9916
14114SOL    HW242921   6.555   5.479   2.613 -1.4471 -1.8034  0.2200
14115SOL     OW42922   9.716   3.925   4.236 -1.0106  0.4849 -0.8190
14115SOL    HW142923   9.649   3.895   4.299 -0.2004  2.3244  1.0443
14115SOL    HW242924   9.778   3.852   4.231  0.1250  1.0546  2.4158
14116SOL     OW42925   8.537   0.169   9.663 -0.1781  0.5176  0.0235
14116SOL    HW142926   8.571   0.177   9.574  1.9440  1.7684  0.8552
14116SOL    HW242927   8.547   0.077   9.685  1.3966  0.5778 -0.3060
14117SOL     OW42928   5.309   9.623   8.846  0.4849  0.6043  0.4148
14117SOL    HW142929   5.295   9.694   8.783 -0.7668 -0.5978 -0.7433
14117SOL    HW242930   5.229   9.622   8.899  0.9632  0.7421  1.1568
14118SOL     OW42931   2.266   7.397   8.536  0.1197 -0.9381  0.3616
14118SOL    HW142932   2.242   7.310   8.568  1.6390 -1.2842  0.6468
14118SOL    HW242933   2.355   7.386   8.501  0.2014  0.4262  0.0859
14119SOL     OW42934   9.751   8.982   8.992 -0.6913 -0.0321  0.1884
14119SOL    HW142935   9.806   8.979   9.071 -0.9528  0.1475  0.3769
14119SOL    HW242936   9.775   9.064   8.949 -2.1078  0.9363  1.2106
14120SOL     OW42937   2.217   2.373   5.373  0.3782 -0.0246  0.0981
14120SOL    HW142938   2.249   2.304   5.430  0.9522  0.6287  0.5792
14120SOL    HW242939   2.230   2.453   5.423  0.4027  0.5059 -0.7423
14121SOL     OW42940   8.864   3.806   6.103 -0.8879  0.3211 -0.7567
14121SOL    HW142941   8.892   3.746   6.173  1.3688  1.9827 -0.1319
14121SOL    HW242942   8.921   3.785   6.030 -1.2151  0.6027 -1.0943
14122SOL     OW42943   1.016   2.570   5.510 -0.4015 -0.4568 -0.3301
14122SOL    HW142944   0.927   2.562   5.476 -0.0508 -1.5419 -1.0352
14122SOL    HW242945   1.066   2.505   5.462  0.2289 -1.7783  1.9783
14123SOL     OW42946   2.127   2.457   4.334  0.8642  0.5427 -0.3293
14123SOL    HW142947   2.182   2.428   4.261 -0.4878  0.1438 -1.2083
14123SOL    HW242948   2.056   2.506   4.294  1.8248  3.2010  0.9792
14124SOL     OW42949   4.081   6.705   9.000 -0.4607  0.1541 -0.4488
14124SOL    HW142950   4.119   6.618   9.011 -1.2071 -0.0933  0.2291
14124SOL    HW242951   4.139   6.763   9.049  0.1162  0.0637 -1.0158
14125SOL     OW42952   4.703   3.123   2.901 -0.3891 -0.5375 -0.4166
14125SOL    HW142953   4.677   3.213   2.921  1.3576 -0.4326  1.9303
14125SOL    HW242954   4.729   3.125   2.809 -0.3575  1.3814 -0.4091
14126SOL     OW42955   1.817   3.850   4.322 -0.2674  0.1294  0.2205
14126SOL    HW142956   1.754   3.922   4.332  0.2744  0.7518 -0.7178
14126SOL    HW242957   1.790   3.804   4.243 -1.1191 -1.2665  1.2672
14127SOL     OW42958   8.911   2.447   1.000 -0.0492 -0.1335 -0.5241
14127SOL    HW142959   8.939   2.378   0.941 -0.7283  0.1556 -1.2114
14127SOL    HW242960   8.948   2.527   0.962 -3.2864  0.5709 -2.6528
14128SOL     OW42961   3.402   8.647   1.489  0.6243  0.1249  0.0352
14128SOL    HW142962   3.379   8.730   1.448 -0.8547  0.3893  1.2858
14128SOL    HW242963   3.329   8.629   1.549  1.0186 -1.9555 -0.0234
14129SOL     OW42964   8.356   4.121   8.010 -0.6259  0.4440 -0.1051
14129SOL    HW142965   8.344   4.029   8.031  2.2542  0.3172  1.5816
14129SOL    HW242966   8.312   4.169   8.080 -0.2752  0.2857  0.2246
14130SOL     OW42967   3.353   6.236   6.905  0.0969  0.0412 -0.1491
14130SOL    HW142968   3.263   6.229   6.936 -0.3599  2.1809 -0.8377
14130SOL    HW242969   3.401   6.168   6.954 -1.5508 -0.0857  1.3848
14131SOL     OW42970   6.661   7.420   5.900 -0.4501  0.0867  0.4558
14131SOL    HW142971   6.700   7.428   5.813  0.6165 -1.7826  0.7074
14131SOL    HW242972   6.591   7.355   5.889 -0.3069 -0.1663  0.9797
14132SOL     OW42973   4.382   6.208   3.820  0.1845 -0.7468 -0.0613
14132SOL    HW142974   4.321   6.135   3.812  0.2659 -0.7547 -0.6709
14132SOL    HW242975   4.403   6.212   3.913 -1.4238 -0.1936  0.2995
14133SOL     OW42976   5.523   2.593   7.074  0.3901 -0.3567 -0.2099
14133SOL    HW142977   5.517   2.515   7.129  1.4006 -1.4775 -1.5896
14133SOL    HW242978   5.445   2.644   7.094  1.8370  0.5880  4.0542
14134SOL     OW42979   7.831   9.526   8.992 -0.0975 -0.2992 -0.3483
14134SOL    HW142980   7.920   9.496   8.974 -0.5036 -0.9365 -1.4483
14134SOL    HW242981   7.795   9.548   8.905 -1.2174 -0.6674  0.0011
14135SOL     OW42982   0.423   8.291   7.736 -0.1037 -0.1333  0.0297
14135SOL    HW142983   0.382   8.266   7.818 -0.2130  2.4387  0.8516
14135SOL    HW242984   0.354   8.280   7.670 -0.8344  0.2312  0.7204
14136SOL     OW42985   9.596   8.076   5.524  0.1830  0.0313 -0.0123
14136SOL    HW142986   9.555   8.064   5.610 -0.5729 -1.1040 -0.5086
14136SOL    HW242987   9.689   8.059   5.540  0.3522  1.6701  0.9320
14137SOL     OW42988   0.123   8.974   2.785 -0.9201 -0.2563  0.2936
14137SOL    HW142989   0.031   8.961   2.811 -0.4414 -2.6045  1.1005
14137SOL    HW242990   0.159   9.030   2.853 -1.9406  1.4815 -0.5374
14138SOL     OW42991   4.384   3.093   5.082 -0.0786 -0.3988  0.1828
14138SOL    HW142992   4.444   3.160   5.048  0.0693  0.3705  1.8792
14138SOL    HW242993   4.416   3.011   5.044 -0.1263  0.4150 -1.7654
14139SOL     OW42994   0.884   9.926   4.571 -0.3328  1.0406  0.1806
14139SOL    HW142995   0.852   9.881   4.649 -0.1494  0.2848 -0.1668
14139SOL    HW242996   0.836   9.886   4.499  2.1757 -1.0084 -0.4965
14140SOL     OW42997   9.110   8.396   3.921 -0.7137  0.2063 -0.2671
14140SOL    HW142998   9.124   8.462   3.989  1.4053  0.1059 -0.5535
14140SOL    HW242999   9.127   8.442   3.839 -0.8646 -0.2867 -0.5805
14141SOL     OW43000   9.584   9.715   3.317 -0.1768 -0.0765 -0.2169
14141SOL    HW143001   9.593   9.698   3.223  0.1278 -0.8124 -0.0554
14141SOL    HW243002   9.661   9.675   3.357  0.6901  1.8333  0.1679
14142SOL     OW43003   5.950   6.038   1.432  0.2004 -0.4182  0.1232
14142SOL    HW143004   6.033   6.077   1.405  0.0866  0.6619  1.2347
14142SOL    HW243005   5.926   5.980   1.360  2.2305 -1.2547  0.0291
14143SOL     OW43006   8.737   2.533   4.288 -0.7780  1.0755  0.1076
14143SOL    HW143007   8.802   2.603   4.282 -0.3899  0.8146  1.0743
14143SOL    HW243008   8.695   2.546   4.373  0.7273 -1.0581  1.2685
14144SOL     OW43009   7.623   1.557   2.267 -1.3037 -0.2227  0.4875
14144SOL    HW143010   7.543   1.580   2.315 -0.4740  0.3958  1.6471
14144SOL    HW243011   7.681   1.632   2.282 -0.5848 -0.5610 -0.5205
14145SOL     OW43012   7.825   4.654   2.045  0.0947 -0.2939  0.1599
14145SOL    HW143013   7.906   4.641   1.995 -0.6063 -2.2249 -0.5473
14145SOL    HW243014   7.832   4.744   2.077  2.2279 -0.1922 -0.3973
14146SOL     OW43015   9.768   6.493   3.894  0.2000  0.0069 -0.7356
14146SOL    HW143016   9.756   6.580   3.856 -0.4942 -0.3733 -1.4177
14146SOL    HW243017   9.850   6.499   3.944  0.7362  0.7318 -1.6808
14147SOL     OW43018   6.266   5.417   8.228  0.0730  0.1026 -0.1211
14147SOL    HW143019   6.283   5.508   8.202  0.9985 -0.5772 -2.0823
14147SOL    HW243020   6.171   5.414   8.240  0.0760  1.4342  0.5158
14148SOL     OW43021   2.895   1.928   2.653 -0.3053  0.2899 -0.1215
14148SOL    HW143022   2.813   1.908   2.608  1.5227 -1.1551 -3.2137
14148SOL    HW243023   2.917   1.848   2.700  0.5417 -0.3249 -1.4965
14149SOL     OW43024   6.653   3.292   8.729 -0.5944  0.2810  0.1778
14149SOL    HW143025   6.633   3.369   8.677 -0.5128  0.2933  0.1630
14149SOL    HW243026   6.748   3.283   8.722 -0.4993  0.6656  0.8631
14150SOL     OW43027   8.737   2.136   1.512  0.4191 -0.0842 -0.3997
14150SOL    HW143028   8.820   2.091   1.531 -0.4082 -1.1786  0.8044
14150SOL    HW243029   8.749   2.224   1.547  0.4715 -0.7803  1.4634
14151SOL     OW43030   1.065   9.611   6.753  0.1884  0.2470 -0.1126
14151SOL    HW143031   0.990   9.670   6.755 -3.0491 -3.4405 -0.3584
14151SOL    HW243032   1.115   9.640   6.677 -1.7505  2.0419 -0.8258
14152SOL     OW43033   3.287   1.608   3.058  0.0516 -0.5991  0.3579
14152SOL    HW143034   3.353   1.564   3.112 -0.1735 -1.0063  0.3088
14152SOL    HW243035   3.331   1.626   2.975  0.2597 -0.3879  0.5130
14153SOL     OW43036   5.248   6.287   8.797  0.0049  0.3513 -0.4428
14153SOL    HW143037   5.190   6.228   8.846  2.0288 -1.7651 -0.4286
14153SOL    HW243038   5.259   6.245   8.712  2.8189 -0.2907  0.1406
14154SOL     OW43039   8.467   9.815   0.667  0.6122  0.6028  0.1593
14154SOL    HW143040   8.545   9.869   0.676  1.4422 -0.4511 -0.4314
14154SOL    HW243041   8.496   9.740   0.615 -0.8363  0.2664 -0.2037
14155SOL     OW43042   0.620   7.171   0.897  0.2177 -0.0463  0.3640
14155SOL    HW143043   0.604   7.081   0.869 -0.8907  0.5881 -1.1396
14155SOL    HW243044   0.570   7.179   0.979  0.0373 -0.6807  0.3247
14156SOL     OW43045   8.872   7.489   6.548  0.3359 -0.0635 -0.4211
14156SOL    HW143046   8.832   7.560   6.598 -0.2490 -0.0035 -0.9582
14156SOL    HW243047   8.837   7.500   6.459 -0.2791 -1.3964 -0.3652
14157SOL     OW43048   4.370   6.503   5.016 -0.8023  0.2230  0.4255
14157SOL    HW143049   4.360   6.466   5.104  2.1854 -0.4883  0.5918
14157SOL    HW243050   4.374   6.598   5.030  1.6218  0.0521  1.4219
14158SOL     OW43051   1.103   6.465   2.870  0.2705  0.3420 -0.6344
14158SOL    HW143052   1.124   6.543   2.819 -2.4032  1.5119 -0.1372
14158SOL    HW243053   1.162   6.468   2.945 -0.4990  2.5988 -0.0359
14159SOL     OW43054   4.787   0.552   3.917 -0.0431 -0.1698  0.2695
14159SOL    HW143055   4.843   0.624   3.948  1.5329 -0.4647 -1.6725
14159SOL    HW243056   4.709   0.595   3.883 -0.9693  0.2799  2.7865
14160SOL     OW43057   2.813   3.595   1.786  0.1581  0.3632 -0.1696
14160SOL    HW143058   2.892   3.579   1.837  0.8581  0.1818 -1.2560
14160SOL    HW243059   2.742   3.566   1.841  0.9746 -0.9779  0.2270
14161SOL     OW43060   1.519   2.062   6.395 -0.6754 -0.4655  0.7885
14161SOL    HW143061   1.476   2.044   6.479 -0.5387 -1.1145  0.7198
14161SOL    HW243062   1.579   2.134   6.415 -1.1658 -0.1253  1.0797
14162SOL     OW43063   0.377   9.127   6.103  0.1307 -0.6507 -0.4603
14162SOL    HW143064   0.344   9.140   6.192 -1.0192 -0.2006 -0.9320
14162SOL    HW243065   0.448   9.064   6.113 -0.3360 -1.0196  0.7053
14163SOL     OW43066   9.416   1.765   9.971 -0.0594  0.0104 -0.4154
14163SOL    HW143067   9.414   1.713   9.891  1.1839 -2.0611  0.8094
14163SOL    HW243068   9.355   1.721  10.030  0.2374  0.5356  0.3062
14164SOL     OW43069   3.232   2.263   9.116 -0.1833 -0.5639 -0.3827
14164SOL    HW143070   3.326   2.279   9.126 -0.4109  0.2853  0.5592
14164SOL    HW243071   3.196   2.276   9.204 -1.2132 -0.7156 -0.7710
14165SOL     OW43072   7.613   0.554   1.728  0.6020 -0.7238  0.0617
14165SOL    HW143073   7.551   0.504   1.780  0.2456  0.2962  0.6409
14165SOL    HW243074   7.560   0.601   1.663  0.4539  1.6738  1.7663
14166SOL     OW43075   7.549   3.402   9.662 -0.0728  0.0808 -0.3946
14166SOL    HW143076   7.493   3.337   9.620  0.3666 -2.0022  2.0037
14166SOL    HW243077   7.488   3.463   9.703 -0.5502 -0.3647 -0.4300
14167SOL     OW43078   7.775   7.304   2.451 -0.1170  0.0222  0.0779
14167SOL    HW143079   7.811   7.319   2.539 -0.5269  0.6196  0.1505
14167SOL    HW243080   7.740   7.389   2.425 -0.1515 -0.1962 -0.5970
14168SOL     OW43081   6.296   0.803   0.650 -0.3742 -0.4808  0.2649
14168SOL    HW143082   6.282   0.886   0.697  1.4481  0.3079 -0.4941
14168SOL    HW243083   6.313   0.830   0.559  1.3957 -1.5869  0.2383
14169SOL     OW43084   3.698   6.762   0.718 -0.2863  0.1575  0.3683
14169SOL    HW143085   3.731   6.703   0.785 -0.3516 -0.3283 -0.0224
14169SOL    HW243086   3.611   6.787   0.749  0.2210  1.0298  1.1378
14170SOL     OW43087   6.415   1.020   3.412  0.0257 -0.0534 -0.1615
14170SOL    HW143088   6.430   1.112   3.390  0.0985  0.0817  0.4288
14170SOL    HW243089   6.394   0.978   3.328  0.3338  0.4304 -0.4835
14171SOL     OW43090   1.045   4.651   0.969 -0.3787  0.4808 -0.2432
14171SOL    HW143091   1.123   4.672   1.021 -0.8685  3.9398 -0.6293
14171SOL    HW243092   1.079   4.627   0.883  0.3080  1.2643 -0.2041
14172SOL     OW43093   2.258   4.992   9.377 -0.1972 -0.0833 -0.2035
14172SOL    HW143094   2.331   5.055   9.378  0.3732 -0.7113 -1.0983
14172SOL    HW243095   2.300   4.907   9.387 -0.8124 -0.4504 -0.7227
14173SOL     OW43096   3.914   9.321   3.395  0.4036  0.9241  0.6286
14173SOL    HW143097   3.949   9.296   3.480 -0.7599  0.2353  0.9238
14173SOL    HW243098   3.924   9.243   3.340  0.3208  1.0674  0.4054
14174SOL     OW43099   4.384   7.117   6.168  0.1009  0.2697 -0.3190
14174SOL    HW143100   4.432   7.042   6.132 -0.2424  0.1324 -0.4959
14174SOL    HW243101   4.449   7.186   6.175 -0.1771  0.9510 -3.0919
14175SOL     OW43102   1.970   0.990   3.090 -0.4670 -0.2621  0.3409
14175SOL    HW143103   1.968   0.912   3.144 -1.7517 -0.0932  0.5807
14175SOL    HW243104   2.054   1.032   3.110 -0.7159 -0.4362  1.8682
14176SOL     OW43105   6.494   1.445   6.874 -0.6371 -0.3705  0.1338
14176SOL    HW143106   6.414   1.424   6.826 -1.7039  1.8860  0.7808
14176SOL    HW243107   6.541   1.506   6.816  0.7851 -1.8239 -0.3321
14177SOL     OW43108   3.574   9.864   3.943  0.1174  0.0336 -0.3665
14177SOL    HW143109   3.635   9.927   3.904  0.2554  0.0028 -0.2050
14177SOL    HW243110   3.509   9.919   3.988 -0.0464  0.0689 -0.6481
14178SOL     OW43111   5.149   7.641   6.730 -0.2430 -0.1345  0.1484
14178SOL    HW143112   5.091   7.714   6.706 -0.8726 -0.1218  1.5680
14178SOL    HW243113   5.105   7.563   6.695  1.3435  0.2265 -3.0021
14179SOL     OW43114   2.496   5.545   1.810  0.2000 -0.4720 -0.0160
14179SOL    HW143115   2.553   5.553   1.734 -0.0096  0.0793 -0.1193
14179SOL    HW243116   2.412   5.517   1.775  0.2032 -0.5647  0.0504
14180SOL     OW43117   7.880   2.472   1.839  0.3231  0.4148 -0.3187
14180SOL    HW143118   7.959   2.515   1.805  0.0448  0.7450 -0.5497
14180SOL    HW243119   7.862   2.402   1.777  0.1764  0.6220 -0.5092
14181SOL     OW43120   5.877   7.584   1.598  0.2893  0.1250 -0.2887
14181SOL    HW143121   5.901   7.624   1.514  1.5035  0.3393  0.1427
14181SOL    HW243122   5.868   7.491   1.578  0.6027  0.1675 -0.6548
14182SOL     OW43123   5.703   8.104   5.343 -0.1310  0.6426  0.2826
14182SOL    HW143124   5.761   8.081   5.416  1.1253 -0.8842 -1.0881
14182SOL    HW243125   5.625   8.050   5.357 -0.3821  1.2004  1.0780
14183SOL     OW43126   6.679   2.078   7.825 -0.0668  0.4781  0.2422
14183SOL    HW143127   6.721   2.164   7.817  0.3202  0.1515 -1.7800
14183SOL    HW243128   6.740   2.017   7.784 -2.2065 -0.0700 -2.3951
14184SOL     OW43129   8.370   4.272   2.900 -0.1102 -0.5923 -0.1785
14184SOL    HW143130   8.377   4.332   2.826  1.8638  0.0486  0.4755
14184SOL    HW243131   8.432   4.202   2.880  3.2501  1.3763  2.3937
14185SOL     OW43132   8.288   3.357   7.557 -0.3812  0.3745  0.0607
14185SOL    HW143133   8.359   3.418   7.579  0.3768 -0.2331 -0.6366
14185SOL    HW243134   8.273   3.307   7.638  1.3128 -0.7844 -0.2792
14186SOL     OW43135   0.119   5.334   1.116 -0.1597 -0.6164 -0.1711
14186SOL    HW143136   0.029   5.315   1.091 -0.7265  1.8885 -0.2651
14186SOL    HW243137   0.172   5.277   1.060 -1.5830  0.0332 -2.2823
14187SOL     OW43138   9.008   6.855   0.063  0.2787  0.2686  0.2655
14187SOL    HW143139   9.011   6.943   0.101 -0.9345  1.1229 -1.4417
14187SOL    HW243140   8.983   6.798   0.135  0.7922  1.3763  1.3511
14188SOL     OW43141   6.424   7.228   6.641  0.4259 -0.0649  0.0162
14188SOL    HW143142   6.492   7.201   6.703  1.0194  0.6071 -0.3299
14188SOL    HW243143   6.352   7.167   6.657  0.1220  0.7715  2.1279
14189SOL     OW43144   3.804   4.917   5.525  0.0225 -0.4796  0.1020
14189SOL    HW143145   3.727   4.937   5.472 -0.0447  0.8154  0.6595
14189SOL    HW243146   3.874   4.970   5.488  0.4165 -0.9213  0.2012
14190SOL     OW43147   6.010   9.545   2.055 -0.0271 -0.0654  0.1271
14190SOL    HW143148   5.961   9.562   2.135  0.7117  0.8186  0.4131
14190SOL    HW243149   5.955   9.485   2.005 -1.9713  1.8423 -0.1262
14191SOL     OW43150   3.419   7.263   2.895 -0.5315  0.1255 -0.2035
14191SOL    HW143151   3.454   7.196   2.955  0.0553  0.0480 -0.6271
14191SOL    HW243152   3.451   7.237   2.809 -0.0423  1.1144 -0.3338
14192SOL     OW43153   3.557   0.745   7.139  0.1999 -0.4448 -0.1403
14192SOL    HW143154   3.574   0.663   7.185  0.9922 -0.6939 -0.8622
14192SOL    HW243155   3.531   0.806   7.208  0.2577 -1.1174  0.4860
14193SOL     OW43156   0.654   7.439   2.878 -0.1491  0.2823  0.2111
14193SOL    HW143157   0.663   7.345   2.892 -1.2226  0.2596  0.8449
14193SOL    HW243158   0.729   7.477   2.923  0.3664 -0.2679 -0.1643
14194SOL     OW43159   2.320   0.467   2.655 -0.3058 -0.3225  0.2458
14194SOL    HW143160   2.405   0.507   2.674  0.4468 -1.3413 -0.7909
14194SOL    HW243161   2.288   0.514   2.578 -0.1663 -0.6531 -0.0162
14195SOL     OW43162   7.811   8.462   8.792  0.3553  0.5768  0.4254
14195SOL    HW143163   7.784   8.443   8.882 -0.2256  0.1363  0.1619
14195SOL    HW243164   7.755   8.533   8.763 -0.1409  0.0599  0.0829
14196SOL     OW43165   2.120   0.972   5.004  0.6039  0.4124  0.2965
14196SOL    HW143166   2.188   0.956   5.070 -0.2202 -1.2065  0.8373
14196SOL    HW243167   2.155   0.934   4.923  0.2311 -0.8032  0.6724
14197SOL     OW43168   8.254   8.563   1.267 -0.2931 -0.6237 -0.4462
14197SOL    HW143169   8.331   8.512   1.243 -0.9703 -1.2181 -1.4941
14197SOL    HW243170   8.278   8.654   1.247  0.2548 -0.7636 -0.4405
14198SOL     OW43171   8.642   0.225   7.055 -0.1293  0.5737  0.3564
14198SOL    HW143172   8.737   0.239   7.059 -0.1822  0.8774  0.7309
14198SOL    HW243173   8.625   0.161   7.124 -0.4117  1.8732  1.5368
14199SOL     OW43174   9.793   3.818   1.587 -0.0370 -0.7810 -0.1432
14199SOL    HW143175   9.803   3.839   1.680 -0.8241 -1.0210  0.0076
14199SOL    HW243176   9.837   3.889   1.541  2.2107 -1.7152  0.4242
14200SOL     OW43177   5.328   6.342   5.595 -0.1840  0.1387 -0.0273
14200SOL    HW143178   5.272   6.268   5.618 -1.8230  1.9925  2.4275
14200SOL    HW243179   5.312   6.356   5.501 -1.6866 -1.1001  0.0048
14201SOL     OW43180   0.701   0.771   7.056  0.1552  0.2113  0.8296
14201SOL    HW143181   0.676   0.683   7.083  0.3047  0.1435  0.7483
14201SOL    HW243182   0.623   0.805   7.013  0.2276 -0.0334  0.4971
14202SOL     OW43183   4.926   9.390   7.142  0.3093 -0.5065 -0.0421
14202SOL    HW143184   4.920   9.401   7.047 -2.1395 -1.2248 -0.0581
14202SOL    HW243185   4.898   9.300   7.158  0.3756 -0.3075  1.3844
14203SOL     OW43186   9.452   4.441   4.523  0.3259 -0.1720 -0.2359
14203SOL    HW143187   9.428   4.417   4.433 -0.5819  0.0049 -0.0488
14203SOL    HW243188   9.502   4.522   4.513 -0.9347  0.5952 -0.4930
14204SOL     OW43189   4.863   2.407   3.823  0.1652  0.4145 -0.0518
14204SOL    HW143190   4.911   2.451   3.753 -2.1586  1.6970 -0.9682
14204SOL    HW243191   4.811   2.340   3.778 -1.3024  1.2032  0.3750
14205SOL     OW43192   7.919   0.281   4.424 -0.1623 -0.1377 -0.3135
14205SOL    HW143193   7.882   0.202   4.465 -1.1475 -0.1039 -1.0971
14205SOL    HW243194   7.844   0.339   4.412  0.6109  1.1063  0.6122
14206SOL     OW43195   5.761   4.401   4.377  0.5549  0.0490 -0.3405
14206SOL    HW143196   5.731   4.314   4.401  2.1077 -1.0951 -2.2218
14206SOL    HW243197   5.846   4.410   4.421  0.4126  0.6396 -0.1689
14207SOL     OW43198   6.691   0.368   9.664 -0.0136 -0.0904  0.1602
14207SOL    HW143199   6.633   0.432   9.704  0.2048  0.4729 -0.3944
14207SOL    HW243200   6.766   0.420   9.633 -0.7890 -0.2359 -2.1993
14208SOL     OW43201   1.597   9.080   9.111 -0.3518  0.1343  0.2658
14208SOL    HW143202   1.578   9.112   9.023 -2.6307  0.2033  0.7284
14208SOL    HW243203   1.585   8.985   9.105 -0.8328  0.1756  0.5823
14209SOL     OW43204   6.434   9.186   8.631  0.8941 -0.1319  0.2626
14209SOL    HW143205   6.465   9.170   8.542 -0.5838  1.1590 -0.5286
14209SOL    HW243206   6.488   9.258   8.663  1.3241 -0.4994  0.3894
14210SOL     OW43207   4.509   6.805   4.323 -0.2410  0.9033 -0.2160
14210SOL    HW143208   4.523   6.866   4.250  0.1599  2.3230  0.9867
14210SOL    HW243209   4.418   6.818   4.348 -0.6774 -0.3275 -1.0747
14211SOL     OW43210   2.889   8.998   4.671  0.1328 -0.2570  0.2094
14211SOL    HW143211   2.908   8.973   4.762  0.3449  0.6890  0.4386
14211SOL    HW243212   2.929   9.085   4.662  2.5027 -1.4116 -1.5996
14212SOL     OW43213   4.109   5.341   0.177  0.6893 -0.7787  0.3655
14212SOL    HW143214   4.202   5.355   0.161  0.3569  0.8627 -0.3873
14212SOL    HW243215   4.069   5.345   0.089 -0.4771  2.2427  0.9142
14213SOL     OW43216   4.558   5.605   2.890  0.6029 -0.5136 -0.2909
14213SOL    HW143217   4.545   5.700   2.894  1.4900 -0.4093  2.6773
14213SOL    HW243218   4.644   5.591   2.930 -0.2145 -2.6499  0.9150
14214SOL     OW43219   3.260   6.950   7.642  0.2514  0.2223 -0.1275
14214SOL    HW143220   3.303   6.892   7.579  0.1460  0.7841 -0.7208
14214SOL    HW243221   3.189   6.898   7.679  0.5695 -0.2449 -0.1654
14215SOL     OW43222   9.117   2.518   1.767  0.0577 -0.3124  0.1647
14215SOL    HW143223   9.198   2.538   1.814 -0.4926  1.8052  0.3032
14215SOL    HW243224   9.099   2.596   1.715 -2.9701  0.1265  1.6814
14216SOL     OW43225   2.032   1.993   4.584  0.3378  0.1715 -0.5157
14216SOL    HW143226   2.079   2.070   4.552  1.0034 -0.1256 -0.2876
14216SOL    HW243227   2.034   2.001   4.680 -1.3003  0.8558 -0.5164
14217SOL     OW43228   0.069   7.932   8.714  0.2309 -0.0561 -0.7333
14217SOL    HW143229   0.082   7.989   8.790  0.1592 -1.3269  0.2640
14217SOL    HW243230   0.147   7.947   8.660 -0.6095  2.3161 -1.4414
14218SOL     OW43231   6.782   2.012   4.011 -0.6681  0.5068 -0.5598
14218SOL    HW143232   6.835   1.941   3.975  0.7010  0.8574  0.6643
14218SOL    HW243233   6.704   2.014   3.956  0.8238  0.3293 -2.7946
14219SOL     OW43234   9.152   6.180   9.578 -0.5639  0.5938  0.7350
14219SOL    HW143235   9.106   6.259   9.608 -0.5589  1.1703 -0.6947
14219SOL    HW243236   9.092   6.141   9.515 -1.0333 -1.1623  2.2006
14220SOL     OW43237   4.956   0.594   0.081  0.4119 -0.5189  0.2980
14220SOL    HW143238   5.020   0.639   0.136 -0.3299  1.5112 -0.4176
14220SOL    HW243239   5.004   0.520   0.044  1.8055 -0.0942  1.1829
14221SOL     OW43240   6.216   7.206   4.101 -0.7469  0.3438 -0.5144
14221SOL    HW143241   6.146   7.220   4.165 -0.2146  0.4536  0.0597
14221SOL    HW243242   6.174   7.159   4.029 -1.4579  0.6040 -0.2797
14222SOL     OW43243   9.093   5.869   4.452  0.1545  0.0064  0.3135
14222SOL    HW143244   9.156   5.848   4.521 -0.5013  0.3231  1.0257
14222SOL    HW243245   9.010   5.834   4.485 -0.9199  3.1781  1.3544
14223SOL     OW43246   4.774   2.355   3.160  0.4681  0.4610  0.0575
14223SOL    HW143247   4.736   2.364   3.073 -0.0945  0.9878  0.3435
14223SOL    HW243248   4.735   2.275   3.195 -0.4713  1.0265  0.3719
14224SOL     OW43249   4.656   5.369   0.897 -0.8192  0.0062  0.3058
14224SOL    HW143250   4.717   5.432   0.858 -0.8832 -0.2679 -0.2541
14224SOL    HW243251   4.619   5.322   0.822 -0.9267 -0.5559  0.7060
14225SOL     OW43252   3.564   3.621   8.913 -1.0400  0.6021  0.3773
14225SOL    HW143253   3.524   3.550   8.963  0.1146  0.3299  0.9512
14225SOL    HW243254   3.606   3.677   8.978  0.3871  0.3137 -0.2368
14226SOL     OW43255   0.700   7.745   0.965  0.1748  0.2602  0.2314
14226SOL    HW143256   0.611   7.777   0.977 -0.6038 -0.4762 -2.7787
14226SOL    HW243257   0.755   7.807   1.014 -1.8867  0.9942  1.7704
14227SOL     OW43258   0.839   8.223   1.899 -0.2740  0.5844 -0.6499
14227SOL    HW143259   0.850   8.270   1.982 -2.2196  1.1598 -0.6728
14227SOL    HW243260   0.753   8.182   1.906  0.2430 -0.7440 -1.7404
14228SOL     OW43261   1.034   8.625   5.633  0.5141  0.1319  0.0164
14228SOL    HW143262   1.099   8.557   5.618  2.2521  1.7141  0.0758
14228SOL    HW243263   1.001   8.610   5.721 -0.2679 -1.5077 -0.5212
14229SOL     OW43264   7.864   2.763   6.803 -0.1875 -0.3702 -0.0580
14229SOL    HW143265   7.875   2.763   6.708 -1.5625 -0.7295 -0.2362
14229SOL    HW243266   7.883   2.673   6.830 -2.9989 -1.1646 -0.4465
14230SOL     OW43267   9.356   8.029   0.433  0.0250  0.3771  0.1857
14230SOL    HW143268   9.344   8.120   0.462  0.6015 -0.0891  1.9894
14230SOL    HW243269   9.298   8.021   0.357  3.7106  3.7327 -3.4530
14231SOL     OW43270   4.345   5.038   6.075  0.5143  0.1269  0.1130
14231SOL    HW143271   4.373   5.006   6.161 -2.0105 -0.6061  0.7576
14231SOL    HW243272   4.378   4.973   6.013  0.1786 -0.7548  0.8353
14232SOL     OW43273   4.180   4.015   1.112  0.2708  0.2405 -0.0144
14232SOL    HW143274   4.170   3.939   1.169 -0.1984 -0.3451 -0.8589
14232SOL    HW243275   4.255   3.994   1.056 -1.1927 -0.6492 -1.7818
14233SOL     OW43276   5.185   2.181   8.470  0.2993 -0.1974  0.3612
14233SOL    HW143277   5.172   2.190   8.376  2.2459 -2.2917 -0.2268
14233SOL    HW243278   5.231   2.261   8.496 -1.8822  1.2450 -0.0349
14234SOL     OW43279   0.408   4.102   3.528  0.2390 -0.3045  0.0765
14234SOL    HW143280   0.503   4.096   3.539  0.1844  0.4849  1.1754
14234SOL    HW243281   0.395   4.130   3.438  1.0827  0.4934  0.1955
14235SOL     OW43282   0.693   9.238   5.192 -0.2719  0.2244 -0.0269
14235SOL    HW143283   0.712   9.202   5.279 -0.2150  0.4792  0.0664
14235SOL    HW243284   0.599   9.254   5.192 -0.1455  1.0012  0.2844
14236SOL     OW43285   8.500   7.879   0.966 -0.8922  0.7727 -0.0366
14236SOL    HW143286   8.471   7.905   0.879  0.4753 -0.8399 -1.0482
14236SOL    HW243287   8.430   7.823   0.999 -1.2504  1.0905 -0.2469
14237SOL     OW43288   3.731   7.764   6.294 -0.0503  0.4776 -1.0889
14237SOL    HW143289   3.683   7.786   6.374 -0.2499  1.5480 -1.4867
14237SOL    HW243290   3.776   7.682   6.315  0.9730  1.4115  0.5944
14238SOL     OW43291   7.129   8.566   6.268  0.2102 -0.4225 -0.0111
14238SOL    HW143292   7.110   8.472   6.267  0.4127 -0.4641 -0.0488
14238SOL    HW243293   7.044   8.608   6.255  0.0325 -0.5863  0.5833
14239SOL     OW43294   0.221   8.512   8.574 -0.1663 -0.2647 -0.4277
14239SOL    HW143295   0.197   8.595   8.534 -1.4311 -1.0773 -1.4099
14239SOL    HW243296   0.152   8.451   8.548  1.1511 -1.8351 -0.4299
14240SOL     OW43297   2.753   3.249   3.311  0.2055 -0.0710  0.4426
14240SOL    HW143298   2.687   3.235   3.379 -2.0297  1.7135 -1.2197
14240SOL    HW243299   2.836   3.250   3.359 -0.7732 -3.2785  2.5115
14241SOL     OW43300   9.455   0.875   9.787 -0.3665 -0.2813  0.5196
14241SOL    HW143301   9.533   0.874   9.843 -1.2218  1.5084  1.8629
14241SOL    HW243302   9.443   0.784   9.760  1.0418 -0.9233  1.9043
14242SOL     OW43303   0.436   9.258   1.630  0.4979  0.6761  0.5068
14242SOL    HW143304   0.513   9.305   1.662  0.5295 -0.6276  2.4916
14242SOL    HW243305   0.363   9.318   1.647  1.0138  1.9570 -1.4670
14243SOL     OW43306   3.003   7.505   4.277 -0.4608 -0.3631  0.0186
14243SOL    HW143307   3.090   7.482   4.309  0.0741 -1.8419 -2.2770
14243SOL    HW243308   3.010   7.598   4.254  0.3491 -0.3392  0.3170
14244SOL     OW43309   5.479   0.566   0.233  0.3124  0.4271  0.3188
14244SOL    HW143310   5.469   0.596   0.323  1.3565  0.0493  0.5806
14244SOL    HW243311   5.470   0.471   0.238  1.6099  0.2785  0.2471
14245SOL     OW43312   3.811   4.707   4.145  0.8732  0.1473  0.1968
14245SOL    HW143313   3.857   4.654   4.209  0.9693  0.2578  0.2184
14245SOL    HW243314   3.718   4.691   4.163  0.8997  0.3343  0.4912
14246SOL     OW43315   4.759   3.094   4.434  0.2802  0.1790  0.4995
14246SOL    HW143316   4.754   3.113   4.528 -1.5461 -1.3476  0.7721
14246SOL    HW243317   4.750   2.999   4.428  3.4488 -0.1667 -1.0953
14247SOL     OW43318   5.699   8.536   5.311 -0.7675 -0.3092 -0.5040
14247SOL    HW143319   5.632   8.483   5.355  0.1983 -0.5343  0.7378
14247SOL    HW243320   5.771   8.475   5.296 -0.2453  0.2943 -0.4474
14248SOL     OW43321   4.776   6.126   9.527 -0.3375  0.0226  0.3564
14248SOL    HW143322   4.688   6.129   9.488  0.6614 -1.2524 -2.1969
14248SOL    HW243323   4.827   6.189   9.477  0.6163 -0.4467  0.7114
14249SOL     OW43324   4.147   0.102   7.675  0.3037 -0.1740  0.2352
14249SOL    HW143325   4.097   0.053   7.740 -2.1847  0.9107 -0.7103
14249SOL    HW243326   4.118   0.193   7.686  1.8506  0.4729 -0.6274
14250SOL     OW43327   8.727   5.830   4.268  0.1596  0.0879 -0.0026
14250SOL    HW143328   8.638   5.806   4.244  0.2147 -0.1369  0.0173
14250SOL    HW243329   8.758   5.758   4.324  0.1512  0.4437  0.4692
14251SOL     OW43330   7.085   6.782   2.884  0.4464  0.3512 -0.4891
14251SOL    HW143331   7.021   6.753   2.949  1.3528  1.3329  0.8792
14251SOL    HW243332   7.035   6.787   2.802 -0.7239 -0.8512  0.1231
14252SOL     OW43333   6.252   6.060   3.518  0.4722 -0.0390  0.0037
14252SOL    HW143334   6.263   6.149   3.552 -1.6399  0.4835 -0.5459
14252SOL    HW243335   6.181   6.067   3.454  0.9541 -1.9468 -0.8146
14253SOL     OW43336   1.059   6.896   4.316  0.1802 -0.3086  0.2189
14253SOL    HW143337   1.013   6.979   4.303 -1.3546 -1.3236 -1.1341
14253SOL    HW243338   1.048   6.878   4.409  0.7956  1.1254  0.6035
14254SOL     OW43339   6.545   1.993   4.959  0.6185 -1.0736  0.5772
14254SOL    HW143340   6.533   2.050   5.035 -0.9815 -0.2412 -0.2585
14254SOL    HW243341   6.457   1.962   4.938  0.5913  0.6756 -2.3955
14255SOL     OW43342   8.903   1.770   5.447 -0.4677 -0.2333 -0.0861
14255SOL    HW143343   8.883   1.842   5.506 -0.3509 -0.5197  0.3084
14255SOL    HW243344   8.995   1.783   5.423  0.1641 -1.3262  1.5431
14256SOL     OW43345   3.887   2.723   3.028 -0.8221 -0.1781  0.7563
14256SOL    HW143346   3.870   2.629   3.039 -2.4592  0.0992  0.8229
14256SOL    HW243347   3.916   2.753   3.114  0.6549 -0.7840  0.4965
14257SOL     OW43348   3.825   4.817   3.882 -0.2944 -0.2710 -0.1490
14257SOL    HW143349   3.835   4.786   3.972  2.2708 -1.3549 -0.7080
14257SOL    HW243350   3.736   4.793   3.858 -1.2863  0.6837  2.3007
14258SOL     OW43351   0.847   4.474   4.138 -0.1566  0.7977  0.1220
14258SOL    HW143352   0.854   4.401   4.076  1.3683  0.0632  1.0893
14258SOL    HW243353   0.840   4.552   4.083 -0.4884  0.0351 -0.9512
14259SOL     OW43354   5.659   1.838   4.781  0.4938  0.7191  0.5256
14259SOL    HW143355   5.686   1.906   4.720 -0.6816  0.3954 -0.3694
14259SOL    HW243356   5.683   1.873   4.867  0.8214  1.8164  0.0061
14260SOL     OW43357   1.876   5.995   0.657 -0.2310 -0.1494  0.4444
14260SOL    HW143358   1.948   5.990   0.720 -0.5304 -2.0613  0.6942
14260SOL    HW243359   1.875   5.909   0.615 -0.6912  0.7376 -1.4769
14261SOL     OW43360   1.847   8.479   3.955  0.1810 -0.2136 -0.1365
14261SOL    HW143361   1.942   8.481   3.952  0.1843  2.4416 -2.6454
14261SOL    HW243362   1.820   8.468   3.864 -1.9196 -0.5168  0.4657
14262SOL     OW43363   4.448   0.727   2.574  0.2901 -0.0905  0.1355
14262SOL    HW143364   4.406   0.650   2.613 -1.2502  1.9573  2.8096
14262SOL    HW243365   4.519   0.749   2.634  1.8571 -0.3337 -1.5245
14263SOL     OW43366   7.331   0.959   2.259  0.1542 -0.6503  0.3271
14263SOL    HW143367   7.266   0.907   2.307  1.1860 -1.0940  1.3073
14263SOL    HW243368   7.346   0.910   2.178 -0.4883 -0.7078  0.2356
14264SOL     OW43369   9.665   6.449   1.405 -0.1593  0.1813  0.1168
14264SOL    HW143370   9.653   6.355   1.419  2.9621 -0.7906 -2.4714
14264SOL    HW243371   9.731   6.475   1.469  0.2224  0.1829 -0.2725
14265SOL     OW43372   6.273   2.096   6.321 -0.5974  0.1869  0.4754
14265SOL    HW143373   6.233   2.017   6.357  1.6414 -0.0953  2.6264
14265SOL    HW243374   6.332   2.127   6.390  0.0944  2.6349 -1.0686
14266SOL     OW43375   2.235   0.678   8.674  0.4330  0.0999 -0.3996
14266SOL    HW143376   2.194   0.761   8.645  1.0708  0.1154 -1.3044
14266SOL    HW243377   2.254   0.632   8.592  1.5762 -0.2199  0.0420
14267SOL     OW43378   5.375   9.864   4.189  0.6660 -0.1231 -0.2031
14267SOL    HW143379   5.379   9.834   4.280  0.4808 -0.6387 -0.3606
14267SOL    HW243380   5.466   9.881   4.165  0.6301  0.9009  0.3654
14268SOL     OW43381   3.383   2.629   6.575 -0.5958 -0.0005  0.3827
14268SOL    HW143382   3.410   2.687   6.503 -0.9910 -1.4339 -0.9676
14268SOL    HW243383   3.400   2.541   6.542 -1.3789 -0.7177  1.8274
14269SOL     OW43384   5.967   7.636   3.234 -0.1375  0.6455 -0.2381
14269SOL    HW143385   5.951   7.615   3.326  0.8012  1.0021  0.0128
14269SOL    HW243386   5.952   7.553   3.188 -2.1968  0.8231  0.0090
14270SOL     OW43387   0.004   4.559   6.853 -0.5259  0.2355 -0.2408
14270SOL    HW143388   0.014   4.654   6.865 -1.2548  0.3646 -0.6377
14270SOL    HW243389   0.044   4.541   6.768  0.5092  0.0230  0.2745
14271SOL     OW43390   4.137   0.087   8.903 -0.0386 -0.6457 -0.0559
14271SOL    HW143391   4.136   0.026   8.829 -0.2512 -0.0244 -0.5754
14271SOL    HW243392   4.192   0.160   8.874 -0.5087 -0.1731  0.2076
14272SOL     OW43393   4.361   5.550   4.336  0.0363  0.1727 -0.1560
14272SOL    HW143394   4.388   5.567   4.245 -0.3932  0.3660 -0.2549
14272SOL    HW243395   4.440   5.562   4.388  0.0267  1.2971 -0.3700
14273SOL     OW43396   9.163   2.388   4.531 -0.3776 -0.2187 -0.1775
14273SOL    HW143397   9.196   2.476   4.551  0.2736 -0.2833 -0.9019
14273SOL    HW243398   9.072   2.389   4.560 -0.1108  0.4000  0.6537
14274SOL     OW43399   0.218   2.341   6.206 -0.2891  0.0340  0.4337
14274SOL    HW143400   0.284   2.368   6.270 -1.0107 -0.3800  1.3837
14274SOL    HW243401   0.199   2.420   6.155  2.0504 -0.1833 -0.9257
14275SOL     OW43402   4.024   8.710   2.314 -0.7713 -0.1266  0.7656
14275SOL    HW143403   3.995   8.643   2.252  1.3763 -1.3373  0.9634
14275SOL    HW243404   3.995   8.793   2.275 -0.8948 -0.9659 -1.0440
14276SOL     OW43405   9.014   4.499   2.254  0.5486 -0.1225 -0.2166
14276SOL    HW143406   9.058   4.535   2.177 -0.0582 -0.4325 -0.7163
14276SOL    HW243407   9.063   4.419   2.274  0.3826 -0.3227 -0.6044
14277SOL     OW43408   4.920   1.792   8.062 -0.2274  0.3799 -0.1938
14277SOL    HW143409   4.935   1.720   8.123 -2.1683  0.7833  0.8387
14277SOL    HW243410   4.981   1.861   8.090  0.4596 -0.2312 -0.1462
14278SOL     OW43411   1.327   5.001   1.751 -0.1123  0.6693 -0.1405
14278SOL    HW143412   1.344   5.064   1.681 -0.2920  0.6643 -0.1900
14278SOL    HW243413   1.413   4.962   1.770 -0.3325 -0.5608 -1.5360
14279SOL     OW43414   0.342   7.747   3.525 -0.2119  0.8920 -0.1625
14279SOL    HW143415   0.428   7.755   3.484 -0.2249  2.5128  0.0553
14279SOL    HW243416   0.340   7.658   3.560  1.0851  0.5873 -0.8071
14280SOL     OW43417   2.566   0.403   9.638  0.6568 -0.0261 -0.3361
14280SOL    HW143418   2.553   0.313   9.668  0.3116 -0.3752 -1.5012
14280SOL    HW243419   2.660   0.418   9.647  0.4529  0.2780  1.9561
14281SOL     OW43420   2.410   5.487   4.048 -0.7624 -0.2661  0.2777
14281SOL    HW143421   2.323   5.449   4.036 -0.0626 -2.1438  0.6771
14281SOL    HW243422   2.453   5.427   4.109 -0.0213  2.0135  2.1658
14282SOL     OW43423   0.337   4.461   9.403  0.6597  0.1821  0.5277
14282SOL    HW143424   0.374   4.542   9.371 -0.0281  0.9938  1.6950
14282SOL    HW243425   0.412   4.411   9.436  0.8551  1.5768  2.3852
14283SOL     OW43426   2.764   3.632   0.053 -0.0243  0.1055 -0.2188
14283SOL    HW143427   2.739   3.702  -0.008 -0.3769  0.3133  0.1661
14283SOL    HW243428   2.686   3.615   0.105 -0.5454 -1.8376 -1.4989
14284SOL     OW43429   3.413   6.004   3.882  0.5954 -0.2785 -0.1615
14284SOL    HW143430   3.331   6.033   3.922  1.9027  1.3072  1.5445
14284SOL    HW243431   3.414   5.909   3.896 -0.8125 -0.2922 -0.0132
14285SOL     OW43432   3.392   4.895   6.707  0.2950  0.3299  0.5935
14285SOL    HW143433   3.472   4.867   6.751 -0.3213 -0.2800  1.3479
14285SOL    HW243434   3.416   4.896   6.614  0.7106 -1.5304  0.6437
14286SOL     OW43435   4.770   3.369   1.492 -0.3993 -0.4025 -0.1540
14286SOL    HW143436   4.863   3.352   1.500 -0.0796 -0.1045 -2.5007
14286SOL    HW243437   4.763   3.459   1.460 -1.4398 -0.6948 -0.8216
14287SOL     OW43438   7.060   5.034   9.306 -0.4747 -0.0079  0.3628
14287SOL    HW143439   6.973   5.049   9.268  0.4102  1.4998 -1.2572
14287SOL    HW243440   7.050   4.957   9.361 -2.6147 -0.4381 -0.5344
14288SOL     OW43441   9.950   9.839   3.456 -0.5219  0.1473 -0.5417
14288SOL    HW143442   9.893   9.762   3.459 -1.9291  1.1064 -1.3680
14288SOL    HW243443   9.976   9.846   3.364  0.6225 -0.0283 -0.2507
14289SOL     OW43444   6.313   0.316   5.208  0.7672 -0.1395  0.0943
14289SOL    HW143445   6.236   0.264   5.231  1.0735 -0.8587 -0.4453
14289SOL    HW243446   6.284   0.371   5.135 -0.2438  2.2388  2.1181
14290SOL     OW43447   2.340   4.548   9.002 -0.0679  0.2647 -0.6975
14290SOL    HW143448   2.302   4.587   9.081  0.5903 -0.8715  0.2099
14290SOL    HW243449   2.295   4.465   8.992 -1.8414  1.3778 -2.9208
14291SOL     OW43450   4.689   1.367   5.743 -0.0533 -0.6609 -0.2650
14291SOL    HW143451   4.615   1.412   5.702  0.2579 -0.3470 -0.4899
14291SOL    HW243452   4.649   1.295   5.793 -0.4272 -1.1187 -1.2105
14292SOL     OW43453   1.648   5.025   4.356  0.2409 -0.2223 -0.0771
14292SOL    HW143454   1.736   5.013   4.319  0.0397  2.6466 -1.7730
14292SOL    HW243455   1.653   5.108   4.403 -1.6960  0.3508 -0.7846
14293SOL     OW43456   0.106   7.005   5.177 -0.2354  0.1044 -0.0940
14293SOL    HW143457   0.156   7.071   5.129  0.3369  0.2767  0.7240
14293SOL    HW243458   0.125   6.923   5.130 -0.7042  0.4614 -0.9243
14294SOL     OW43459   3.269   4.298   5.796  0.2193 -0.0961  0.2599
14294SOL    HW143460   3.192   4.297   5.853 -0.8054  2.8158 -0.9047
14294SOL    HW243461   3.342   4.316   5.855 -0.1691 -1.3625  1.1693
14295SOL     OW43462   9.667   0.300   7.868  0.4038  0.2723 -0.1146
14295SOL    HW143463   9.741   0.302   7.807 -0.2559 -0.7473 -0.9691
14295SOL    HW243464   9.697   0.246   7.940  0.9200  0.8730  0.1339
14296SOL     OW43465   6.958   1.987   6.292 -0.0644 -0.3792 -0.1986
14296SOL    HW143466   6.925   2.065   6.248 -0.9435 -1.0563 -0.7947
14296SOL    HW243467   6.895   1.971   6.362  0.2751 -0.3865  0.1063
14297SOL     OW43468   8.596   6.664   2.475  0.0447 -0.4181 -0.1618
14297SOL    HW143469   8.539   6.591   2.453 -2.3388  1.5235 -0.8744
14297SOL    HW243470   8.586   6.675   2.569 -0.4564 -0.3264 -0.2249
14298SOL     OW43471   3.539   3.349   0.659  0.3540 -0.1524 -0.2280
14298SOL    HW143472   3.490   3.270   0.681  1.3450 -0.8224 -0.3711
14298SOL    HW243473   3.589   3.326   0.581 -0.3073  1.0302 -1.0313
14299SOL     OW43474   4.889   1.207   9.469 -0.1287 -0.3893  0.1196
14299SOL    HW143475   4.814   1.238   9.521  1.3060 -0.0757  2.1116
14299SOL    HW243476   4.897   1.272   9.399 -2.0362 -0.7471 -0.5122
14300SOL     OW43477   5.666   3.106   4.472 -0.5828  0.2678  0.2062
14300SOL    HW143478   5.761   3.117   4.461 -0.8368  1.1295 -1.5802
14300SOL    HW243479   5.656   3.072   4.560  1.4821 -1.1660 -0.0436
14301SOL     OW43480   5.158   2.278   5.649  0.1793 -0.7381 -0.5699
14301SOL    HW143481   5.248   2.251   5.636  0.5463  0.1348  0.0420
14301SOL    HW243482   5.119   2.208   5.702  1.0126 -0.2811  0.6885
14302SOL     OW43483   9.204   7.942   0.849 -0.1060 -0.2618 -0.1255
14302SOL    HW143484   9.258   8.021   0.841  0.1296 -0.5531 -1.9888
14302SOL    HW243485   9.122   7.973   0.886  0.4779  0.6151  0.4852
14303SOL     OW43486   8.817   0.675   9.930 -0.3141 -0.2527  0.1619
14303SOL    HW143487   8.725   0.664   9.953 -0.5110 -0.3112 -0.6279
14303SOL    HW243488   8.819   0.675   9.834  0.5896 -1.0102  0.1565
14304SOL     OW43489   3.964   6.381   9.888  0.5371  0.1555 -0.2525
14304SOL    HW143490   3.995   6.294   9.863  2.4687  0.4742  0.8912
14304SOL    HW243491   4.015   6.404   9.965 -0.8542  1.7918  0.2485
14305SOL     OW43492   0.471   7.359   4.726  0.1195  0.4239 -0.0136
14305SOL    HW143493   0.414   7.293   4.765 -0.7786  0.6117 -0.9600
14305SOL    HW243494   0.467   7.433   4.787 -1.2066  0.6813 -0.3733
14306SOL     OW43495   5.663   6.822   0.412  0.1167  0.1702  0.1591
14306SOL    HW143496   5.604   6.755   0.376 -0.9279  1.0003  0.2691
14306SOL    HW243497   5.726   6.773   0.465  0.5078 -0.8950 -1.2218
14307SOL     OW43498   1.110   8.892   7.715 -0.2138 -0.1901  0.0458
14307SOL    HW143499   1.075   8.876   7.627 -0.5355 -1.0920  0.3250
14307SOL    HW243500   1.183   8.831   7.723  1.2592  1.4223 -0.3939
14308SOL     OW43501   1.097   8.967   1.667 -0.5357  0.3285 -0.3572
14308SOL    HW143502   1.151   9.045   1.672 -1.7606  1.2775 -1.2267
14308SOL    HW243503   1.109   8.934   1.578 -0.2553 -0.3150 -0.0901
14309SOL     OW43504   1.044   1.835   8.940  0.1511  0.4223  0.6070
14309SOL    HW143505   1.096   1.872   9.011  0.8581 -0.2612  0.4579
14309SOL    HW243506   0.962   1.885   8.942  1.4335  2.6939 -0.2650
14310SOL     OW43507   1.491   0.504   5.865 -0.0670 -0.0899  0.2530
14310SOL    HW143508   1.429   0.566   5.904  1.8821  0.9636  1.9087
14310SOL    HW243509   1.523   0.549   5.786 -0.4594 -0.0849  0.0928
14311SOL     OW43510   7.270   3.781   3.282  0.3113 -0.0661  0.1508
14311SOL    HW143511   7.237   3.701   3.323 -0.9026 -1.1514 -2.6681
14311SOL    HW243512   7.340   3.752   3.224 -0.5571  0.7728 -1.3907
14312SOL     OW43513   6.059   6.340   8.852  0.1771 -0.2053  0.3939
14312SOL    HW143514   5.975   6.341   8.806  0.2953 -1.4087  0.1211
14312SOL    HW243515   6.047   6.399   8.926 -1.7792 -2.2930  1.8745
14313SOL     OW43516   0.742   5.723   5.490  0.2529  0.3238  0.1802
14313SOL    HW143517   0.758   5.633   5.519 -0.7731 -0.0441 -0.3407
14313SOL    HW243518   0.647   5.731   5.489  0.3360  1.3374 -0.0256
14314SOL     OW43519   3.347   9.641   0.870 -0.3768  0.2509 -0.2636
14314SOL    HW143520   3.293   9.682   0.938 -0.7475 -1.9294  0.8547
14314SOL    HW243521   3.286   9.585   0.822  0.9760 -3.7394  2.2075
14315SOL     OW43522   5.140   1.788   0.321  0.1088  0.2603  0.1290
14315SOL    HW143523   5.182   1.865   0.282  1.8051 -0.5689  0.2270
14315SOL    HW243524   5.125   1.811   0.412  1.1426  0.2837  0.2993
14316SOL     OW43525   8.551   1.602   5.896  0.0316  0.1789  0.2720
14316SOL    HW143526   8.599   1.571   5.973  2.0183 -1.1980 -1.3950
14316SOL    HW243527   8.515   1.687   5.922  3.0171  1.1090  1.8754
14317SOL     OW43528   4.567   7.395   3.426 -0.6072  0.6200  0.5316
14317SOL    HW143529   4.649   7.445   3.427  1.2498 -2.1565 -0.4676
14317SOL    HW243530   4.518   7.433   3.353  0.9114  0.7556 -0.4839
14318SOL     OW43531   1.628   0.342   8.185 -0.7072 -0.5937  0.1916
14318SOL    HW143532   1.562   0.291   8.138 -0.7340  1.4353 -2.2327
14318SOL    HW243533   1.710   0.321   8.140 -0.3763 -0.1455  0.5843
14319SOL     OW43534   7.280   6.837   3.500 -0.3440  0.0983 -0.0756
14319SOL    HW143535   7.371   6.841   3.471 -0.2258 -3.2968 -0.5999
14319SOL    HW243536   7.230   6.816   3.421 -1.3993  0.4826  0.4632
14320SOL     OW43537   6.909   7.204   4.358 -0.3440  0.6958 -0.0567
14320SOL    HW143538   6.840   7.147   4.322 -2.0131  3.1323 -0.9395
14320SOL    HW243539   6.869   7.244   4.435  1.5711 -0.8634  1.8637
14321SOL     OW43540   0.036   0.561   7.060 -0.6265  0.1242  0.6958
14321SOL    HW143541   0.042   0.644   7.013 -1.4866 -0.8468 -1.2304
14321SOL    HW243542  -0.058   0.543   7.066 -0.4219 -1.8766 -1.1470
14322SOL     OW43543   0.139   5.037   9.686 -0.5942  0.2011 -0.2160
14322SOL    HW143544   0.104   5.054   9.598 -1.1910  1.4321  0.2348
14322SOL    HW243545   0.063   5.012   9.737 -0.7982  2.3716  0.6455
14323SOL     OW43546   6.410   0.815   7.959 -0.8669  0.6336  0.2790
14323SOL    HW143547   6.463   0.737   7.978 -4.0170 -1.5627  0.8219
14323SOL    HW243548   6.334   0.781   7.911 -3.2251  3.0943  1.9951
14324SOL     OW43549   6.953   7.748   0.183  0.3382  0.2900  0.5564
14324SOL    HW143550   7.038   7.791   0.183  1.0875 -1.1184  0.6779
14324SOL    HW243551   6.906   7.788   0.110  2.9564 -2.2769 -2.8937
14325SOL     OW43552   5.241   4.554   7.116  0.1688  0.0887  0.0705
14325SOL    HW143553   5.319   4.498   7.115 -0.5470 -1.1170  2.5000
14325SOL    HW243554   5.230   4.582   7.025  3.4511  0.3900 -0.3607
14326SOL     OW43555   2.921   0.094   3.550 -0.6775 -0.0333  0.1364
14326SOL    HW143556   2.851   0.114   3.488  0.2712 -0.8553 -1.2586
14326SOL    HW243557   2.963   0.179   3.568 -1.4874  0.3327  0.3284
14327SOL     OW43558   5.384   8.770   0.831  0.0425  0.1025 -0.3188
14327SOL    HW143559   5.461   8.755   0.776 -0.3882 -0.8579 -0.6818
14327SOL    HW243560   5.310   8.759   0.772 -0.3884  0.8297  0.0701
14328SOL     OW43561   8.810   5.647   1.885 -0.1460  0.2583  0.3419
14328SOL    HW143562   8.726   5.628   1.843 -0.5523  1.5024  0.5504
14328SOL    HW243563   8.793   5.724   1.939  0.6513 -0.5764  1.8711
14329SOL     OW43564   3.190   9.090   6.808 -0.0766  0.4489  0.3307
14329SOL    HW143565   3.175   9.124   6.897  3.9230  1.6816  0.7253
14329SOL    HW243566   3.249   9.016   6.820 -1.8530 -1.3244 -1.2119
14330SOL     OW43567   0.219   6.769   8.631  0.4783 -0.9457  0.7663
14330SOL    HW143568   0.261   6.831   8.572 -1.1517 -2.9230 -2.8026
14330SOL    HW243569   0.151   6.820   8.674  0.4173  0.2064 -0.5984
14331SOL     OW43570   9.643   4.174   2.572  0.2735  0.6123 -0.7970
14331SOL    HW143571   9.610   4.084   2.576 -0.4769  0.9100  0.5827
14331SOL    HW243572   9.653   4.192   2.479  0.3208 -0.8543 -1.1031
14332SOL     OW43573   7.951   3.135   1.267 -0.0085 -0.7791 -0.3869
14332SOL    HW143574   7.924   3.147   1.358 -0.0058 -2.2172 -0.1729
14332SOL    HW243575   7.916   3.211   1.221  1.3644  0.8289  1.0795
14333SOL     OW43576   8.594   7.196   1.197  0.2396 -0.1084  0.1288
14333SOL    HW143577   8.545   7.276   1.215 -1.8726 -1.2914 -0.0393
14333SOL    HW243578   8.619   7.164   1.283 -1.7864 -0.9198  0.4844
14334SOL     OW43579   6.887   5.100   0.080  0.3414  0.0833 -0.0269
14334SOL    HW143580   6.902   5.007   0.062 -0.5081 -0.5711  2.2602
14334SOL    HW243581   6.808   5.101   0.133  0.2496  2.1466 -0.1404
14335SOL     OW43582   1.827   2.507   4.654 -0.1077 -0.2697 -0.3247
14335SOL    HW143583   1.848   2.460   4.574 -0.6758  0.4853 -0.9301
14335SOL    HW243584   1.897   2.483   4.715  0.5161 -0.5796 -1.1516
14336SOL     OW43585   7.423   8.560   1.967  0.3347  0.5908 -0.9792
14336SOL    HW143586   7.350   8.560   2.029  0.6555  0.9308 -0.5930
14336SOL    HW243587   7.441   8.467   1.951 -0.1193  0.5070 -1.0026
14337SOL     OW43588   3.170   8.414   5.877 -0.0870 -0.4846 -0.4554
14337SOL    HW143589   3.163   8.505   5.849 -1.3242 -0.5227 -0.2948
14337SOL    HW243590   3.215   8.370   5.804  0.6570  0.2685 -0.4603
14338SOL     OW43591   2.179   2.851   2.784 -0.0988 -0.6359 -1.2092
14338SOL    HW143592   2.270   2.865   2.756  0.0377 -2.8325 -2.0971
14338SOL    HW243593   2.130   2.851   2.702 -0.9118  0.4073 -0.7397
14339SOL     OW43594   0.607   6.263   8.107  0.6112 -0.0543 -0.2150
14339SOL    HW143595   0.514   6.266   8.132  0.9288  0.6677  0.9802
14339SOL    HW243596   0.606   6.266   8.011 -0.5864  0.5515 -0.2119
14340SOL     OW43597   0.869   2.623   4.032  0.0358 -0.8311 -0.3856
14340SOL    HW143598   0.776   2.599   4.036 -0.6091  1.4896  0.5170
14340SOL    HW243599   0.868   2.719   4.023  2.3621 -0.8140 -1.1184
14341SOL     OW43600   2.746   1.637   8.529 -0.8228 -0.0805  0.4914
14341SOL    HW143601   2.740   1.676   8.442  1.9216 -0.9679 -0.2252
14341SOL    HW243602   2.664   1.588   8.539 -0.6197 -1.2054 -2.2988
14342SOL     OW43603   9.358   4.684   3.096 -1.3131  0.1565 -0.0257
14342SOL    HW143604   9.332   4.594   3.076 -0.4227 -0.3911  1.1327
14342SOL    HW243605   9.454   4.682   3.096 -1.2773  1.1566 -0.1457
14343SOL     OW43606   8.240   7.465   3.499 -0.0506 -0.4713  0.1418
14343SOL    HW143607   8.333   7.478   3.481 -0.5801 -0.5273 -3.1934
14343SOL    HW243608   8.218   7.382   3.457 -1.5444 -0.7126  1.2893
14344SOL     OW43609   8.939   0.038   9.489 -0.2073 -0.0485  0.1473
14344SOL    HW143610   9.001   0.074   9.426 -0.7183 -0.0424 -0.3641
14344SOL    HW243611   8.992   0.012   9.564  0.4946 -0.5748 -0.5148
14345SOL     OW43612   6.291   5.508   7.422  0.5488 -0.5014 -0.5439
14345SOL    HW143613   6.240   5.458   7.485 -0.1981 -0.7565 -1.3345
14345SOL    HW243614   6.320   5.444   7.357 -1.0336  0.1158 -1.9758
14346SOL     OW43615   3.179   2.252   5.011  0.2776  0.5169 -0.3322
14346SOL    HW143616   3.210   2.335   5.048  0.5023  1.0034 -1.5759
14346SOL    HW243617   3.123   2.278   4.938 -1.8279 -0.3732  0.8851
14347SOL     OW43618   4.063   6.693   6.785 -0.2265  0.7090 -0.1246
14347SOL    HW143619   4.018   6.745   6.852 -0.4958 -1.1737  1.2211
14347SOL    HW243620   4.115   6.629   6.834 -1.5394 -1.6871 -1.6669
14348SOL     OW43621   9.967   5.111   2.976 -0.1076  0.0718  0.1114
14348SOL    HW143622   9.994   5.019   2.967  0.0855  0.0125  1.1394
14348SOL    HW243623   9.972   5.146   2.888  0.9078 -0.6165 -0.1302
14349SOL     OW43624   8.082   8.431   0.095 -0.0335 -0.1167  0.0603
14349SOL    HW143625   8.106   8.360   0.036 -1.5387 -0.5531 -0.0617
14349SOL    HW243626   8.017   8.393   0.154 -1.1111  1.2314 -0.2055
14350SOL     OW43627   3.965   9.867   6.071  0.4448  0.0787  0.1987
14350SOL    HW143628   3.974   9.957   6.103 -0.1832 -0.1350  1.0129
14350SOL    HW243629   4.028   9.817   6.124  1.4513  0.1602 -0.8687
14351SOL     OW43630   9.293   3.466   3.441  0.8426 -0.0656  0.1827
14351SOL    HW143631   9.245   3.494   3.363  1.2137  0.5114  0.1556
14351SOL    HW243632   9.236   3.400   3.482 -0.7878  1.8069  1.0749
14352SOL     OW43633   6.378   0.116   5.944  0.3461  0.5847 -0.4479
14352SOL    HW143634   6.369   0.190   5.884  2.2796  1.4121  0.2086
14352SOL    HW243635   6.472   0.095   5.943  0.2569 -0.1077  1.4145
14353SOL     OW43636   0.947   9.663   5.060  0.2771 -0.5707 -0.0291
14353SOL    HW143637   0.992   9.579   5.051  0.5776 -0.3887 -0.2625
14353SOL    HW243638   0.854   9.643   5.046  0.4286 -0.7481 -0.8392
14354SOL     OW43639   2.609   6.667   1.650 -0.3183 -0.2996  0.2610
14354SOL    HW143640   2.653   6.683   1.567 -2.1009  0.8272 -0.5335
14354SOL    HW243641   2.568   6.582   1.640  1.5176 -1.3216  0.9787
14355SOL     OW43642   8.888   3.538   9.453 -0.3503 -0.1825  0.1159
14355SOL    HW143643   8.973   3.558   9.414 -0.6525  1.3517  0.2084
14355SOL    HW243644   8.904   3.538   9.548 -0.1307 -1.5371  0.1068
14356SOL     OW43645   0.686   5.476   7.981 -0.2785 -0.2257 -0.0157
14356SOL    HW143646   0.747   5.451   8.050 -0.8845 -0.6585  0.3729
14356SOL    HW243647   0.736   5.536   7.925 -0.0978  0.9052  1.3298
14357SOL     OW43648   4.674   0.925   3.995  0.0987 -0.0548  0.5476
14357SOL    HW143649   4.635   0.861   3.935  0.4171  0.8574 -0.6701
14357SOL    HW243650   4.755   0.884   4.025  1.2845  0.4793 -1.7129
14358SOL     OW43651   2.949   7.940   2.414  0.2654  0.4305  0.4318
14358SOL    HW143652   3.023   7.984   2.371  0.2199 -0.3766 -0.5193
14358SOL    HW243653   2.871   7.981   2.378  0.2356  0.3063  0.3532
14359SOL     OW43654   0.551   7.507   8.967  0.1974 -0.4191 -0.1127
14359SOL    HW143655   0.624   7.454   8.999 -0.3346 -1.1986 -0.1533
14359SOL    HW243656   0.516   7.550   9.045  1.0726  0.4454 -0.1839
14360SOL     OW43657   5.532   4.504   9.171  0.4145  0.3700 -0.6367
14360SOL    HW143658   5.531   4.493   9.266  1.3218  2.0742 -0.3951
14360SOL    HW243659   5.441   4.493   9.144 -0.5074  3.3104  0.8984
14361SOL     OW43660   0.078   4.502   1.056 -0.1243  0.3825 -0.5721
14361SOL    HW143661   0.056   4.414   1.026 -0.1202  0.6436 -1.3741
14361SOL    HW243662   0.146   4.488   1.122 -0.8116 -0.2645  0.0121
14362SOL     OW43663   9.579   0.727   0.051  0.4732 -0.7782  0.1606
14362SOL    HW143664   9.614   0.644   0.020 -0.5361 -0.5027 -1.9163
14362SOL    HW243665   9.640   0.793   0.018  1.7945 -0.6878  2.6062
14363SOL     OW43666   9.992   4.577   4.672 -0.4461 -0.9163  0.0457
14363SOL    HW143667   9.955   4.612   4.753 -1.9325  0.3813 -1.1295
14363SOL    HW243668   9.936   4.502   4.651  0.1582 -1.4672  0.4072
14364SOL     OW43669   4.821   6.288   3.889  0.1022 -0.4441 -0.2635
14364SOL    HW143670   4.907   6.286   3.847  0.3832  1.2190  0.1658
14364SOL    HW243671   4.759   6.285   3.817  0.4921 -1.6314 -0.5809
14365SOL     OW43672   1.820   3.932   0.755  0.0386  0.1486  0.5058
14365SOL    HW143673   1.912   3.905   0.765 -0.2235 -1.3764 -0.9020
14365SOL    HW243674   1.784   3.927   0.844  1.1155  0.0489  0.9525
14366SOL     OW43675   9.993   4.800   9.377 -0.0458  0.1730 -0.3307
14366SOL    HW143676   9.954   4.728   9.327  0.3169 -0.4004  0.1808
14366SOL    HW243677   9.966   4.879   9.332 -0.5586 -0.2850 -0.8397
14367SOL     OW43678   7.520   0.470   3.937  0.1584  0.2949  0.6000
14367SOL    HW143679   7.547   0.378   3.938  0.6856  0.4458  0.9244
14367SOL    HW243680   7.488   0.484   3.848 -0.4495 -0.3459  0.7120
14368SOL     OW43681   3.451   2.227   6.594  0.3254 -0.4947 -0.5701
14368SOL    HW143682   3.502   2.254   6.670 -0.2688 -0.5125 -0.1623
14368SOL    HW243683   3.363   2.212   6.628  0.5939 -2.9092 -0.7569
14369SOL     OW43684   2.901   2.109   4.514 -0.1779  0.2953 -0.3299
14369SOL    HW143685   2.978   2.157   4.484 -0.0697  0.3395  0.0131
14369SOL    HW243686   2.852   2.090   4.434  0.5721 -0.3916 -0.6441
14370SOL     OW43687   6.379   0.017   1.631 -0.0269  0.4507  0.1067
14370SOL    HW143688   6.333   0.088   1.585  0.8836  0.2840 -1.1050
14370SOL    HW243689   6.321  -0.058   1.621  0.1069  0.4447 -0.6971
14371SOL     OW43690   6.826   4.486   5.780  0.3406  0.1737  0.6897
14371SOL    HW143691   6.811   4.565   5.728  2.6881  1.2072  1.4268
14371SOL    HW243692   6.822   4.414   5.717 -0.2233  1.0353 -0.2868
14372SOL     OW43693   7.744   0.417   6.038 -0.0974 -0.1040 -0.6504
14372SOL    HW143694   7.680   0.383   5.976  0.8128 -1.5388 -0.8458
14372SOL    HW243695   7.767   0.342   6.092  2.7205 -0.1168 -1.7018
14373SOL     OW43696   1.336   5.792   5.963 -0.0395  0.0037 -0.1556
14373SOL    HW143697   1.301   5.716   5.916  3.5817 -0.7748 -1.9323
14373SOL    HW243698   1.346   5.761   6.053 -1.7929 -0.3975 -0.0579
14374SOL     OW43699   5.349   3.730   8.849 -0.0494  0.6989  0.2710
14374SOL    HW143700   5.277   3.666   8.851  0.8443 -0.3530  2.0139
14374SOL    HW243701   5.422   3.683   8.809  0.2253  1.0743  0.3289
14375SOL     OW43702   4.179   5.111   6.334  0.0799 -0.0022 -0.1805
14375SOL    HW143703   4.146   5.106   6.244  1.6793 -1.3772 -0.7412
14375SOL    HW243704   4.255   5.053   6.335  0.4589  0.4498  1.9206
14376SOL     OW43705   3.626   0.601   7.787  0.3845  0.9079  0.3868
14376SOL    HW143706   3.692   0.567   7.847 -1.4887 -0.6838  1.6790
14376SOL    HW243707   3.598   0.684   7.827 -1.8390 -0.7865  2.6664
14377SOL     OW43708   6.610   3.225   2.621 -0.2491 -0.2009 -0.5865
14377SOL    HW143709   6.634   3.305   2.575 -2.0256 -0.6559 -2.4535
14377SOL    HW243710   6.667   3.157   2.585  0.4848 -0.0036  0.1789
14378SOL     OW43711   8.822   7.977   9.141  0.0477 -0.3921  0.6291
14378SOL    HW143712   8.735   8.013   9.157  0.0949 -0.2063  0.4832
14378SOL    HW243713   8.810   7.882   9.140 -0.6007 -0.3481 -1.8280
14379SOL     OW43714   3.129   0.813   0.256  0.0205  0.3971 -0.3632
14379SOL    HW143715   3.188   0.747   0.294  0.8932  0.8436 -0.9061
14379SOL    HW243716   3.074   0.841   0.329  0.5882  0.0808  0.1957
14380SOL     OW43717   3.475   5.279   9.476  0.3130 -0.5289 -0.1534
14380SOL    HW143718   3.447   5.192   9.447  0.7000 -0.4129 -0.9067
14380SOL    HW243719   3.448   5.337   9.405 -0.4884  0.0625  0.6209
14381SOL     OW43720   3.976   4.056   7.616  0.7019 -0.1019 -0.6824
14381SOL    HW143721   4.045   4.089   7.674  1.4880 -1.8053 -0.5889
14381SOL    HW243722   4.011   4.069   7.527 -0.0844  1.6069 -0.7690
14382SOL     OW43723   6.982   0.673   1.476  0.4681 -0.5646 -0.4739
14382SOL    HW143724   7.035   0.596   1.496  0.5861  0.2535  2.8231
14382SOL    HW243725   7.045   0.738   1.446  0.8004 -0.7759 -0.2398
14383SOL     OW43726   7.548   8.750   0.831  0.3158  0.3695  0.5281
14383SOL    HW143727   7.485   8.805   0.877 -0.4219 -0.6290  0.7321
14383SOL    HW243728   7.631   8.798   0.837 -0.4709  1.8599 -0.0251
14384SOL     OW43729   0.333   2.172   3.208 -0.1505 -0.1334 -0.3128
14384SOL    HW143730   0.313   2.103   3.270 -2.0155 -1.8506 -2.6289
14384SOL    HW243731   0.428   2.167   3.196 -0.0496 -1.2217  0.7663
14385SOL     OW43732   4.625   2.945   0.102 -0.1143  0.0333 -0.3689
14385SOL    HW143733   4.688   2.921   0.035 -0.3033  0.5988 -0.7591
14385SOL    HW243734   4.566   3.007   0.059  0.0366  0.7679  0.4444
14386SOL     OW43735   6.446   0.847   3.800 -0.2620  0.6046  0.2687
14386SOL    HW143736   6.455   0.822   3.708 -0.7787 -0.1546  0.4160
14386SOL    HW243737   6.534   0.873   3.827  0.1752 -0.4980 -0.0530
14387SOL     OW43738   8.430   4.509   7.971 -0.5410 -0.2324 -0.2923
14387SOL    HW143739   8.461   4.486   8.059 -0.6934  0.5907 -0.0142
14387SOL    HW243740   8.502   4.558   7.932 -1.3749  1.5555  0.3007
14388SOL     OW43741   2.838   9.798   9.229 -0.0842  0.4866 -0.0262
14388SOL    HW143742   2.874   9.759   9.309 -1.2813  1.9702  1.3006
14388SOL    HW243743   2.880   9.884   9.223  0.7014  0.0440 -1.5647
14389SOL     OW43744   7.561   7.287   2.749 -0.1205  0.2507  0.1672
14389SOL    HW143745   7.525   7.210   2.703 -0.6580  0.4971  0.1701
14389SOL    HW243746   7.582   7.254   2.837 -2.1615  0.5478  0.8086
14390SOL     OW43747   9.570   6.366   9.471  0.0604  0.0282  0.1959
14390SOL    HW143748   9.541   6.279   9.498  1.4063 -0.7518 -0.7455
14390SOL    HW243749   9.612   6.403   9.549  0.9712 -0.8553  0.1430
14391SOL     OW43750   1.598   5.254   5.926  0.2819 -0.6864 -0.0134
14391SOL    HW143751   1.690   5.274   5.944  0.0430 -0.3502  0.8730
14391SOL    HW243752   1.566   5.213   6.006 -0.4543 -0.4152 -0.1648
14392SOL     OW43753   4.083   3.247   4.638 -0.2617 -0.1562 -0.0606
14392SOL    HW143754   4.065   3.315   4.574 -1.8157  1.0922  1.5946
14392SOL    HW243755   4.143   3.288   4.700  1.1695 -1.3207 -0.6294
14393SOL     OW43756   6.982   4.024   4.561  0.5061 -0.0562 -0.0495
14393SOL    HW143757   7.007   4.110   4.594 -0.5660 -0.1038  0.9343
14393SOL    HW243758   6.962   4.039   4.468 -1.3055  1.1387  0.4792
14394SOL     OW43759   7.008   4.722   4.546 -0.2912  0.1242  0.1390
14394SOL    HW143760   7.097   4.704   4.576  0.7490  1.4852 -1.8843
14394SOL    HW243761   7.007   4.694   4.454 -1.3339  1.8354 -0.4275
14395SOL     OW43762   3.807   4.486   1.675 -0.7304  0.0345 -0.3977
14395SOL    HW143763   3.890   4.510   1.633 -0.6089 -1.5361 -1.1281
14395SOL    HW243764   3.813   4.524   1.763 -0.7094  2.8388 -1.4937
14396SOL     OW43765   8.737   5.741   0.820 -0.0091 -0.1204 -0.4496
14396SOL    HW143766   8.721   5.832   0.796  2.1263  0.7734  1.2312
14396SOL    HW243767   8.798   5.709   0.753 -0.0174 -0.0176 -0.5065
14397SOL     OW43768   4.437   0.376   9.527 -0.5159  0.3455 -0.6928
14397SOL    HW143769   4.420   0.451   9.470 -0.4892  0.6251 -0.3354
14397SOL    HW243770   4.380   0.307   9.494 -0.8031  0.6345 -0.8017
14398SOL     OW43771   8.254   9.649   9.480 -0.5059  0.4116  0.2113
14398SOL    HW143772   8.335   9.691   9.511  0.4684 -0.5331 -0.9653
14398SOL    HW243773   8.196   9.723   9.459 -0.0731  1.1000  1.3370
14399SOL     OW43774   3.730   1.158   4.354 -0.4528  0.3184  0.3925
14399SOL    HW143775   3.660   1.220   4.372 -0.7837 -0.0901  0.5416
14399SOL    HW243776   3.789   1.204   4.294 -0.7841  0.7068  0.3624
14400SOL     OW43777   7.015   8.133   6.421 -0.5122 -0.3362  0.3905
14400SOL    HW143778   7.044   8.143   6.512  0.3191 -0.0371  0.1011
14400SOL    HW243779   6.963   8.052   6.422  0.9284 -1.3064  0.8054
14401SOL     OW43780   4.168   3.580   9.545  0.1654 -0.1211 -0.6192
14401SOL    HW143781   4.139   3.493   9.574 -0.0927  0.5943  1.3892
14401SOL    HW243782   4.240   3.562   9.485  0.3021 -1.7216 -0.0274
14402SOL     OW43783   5.679   2.506   4.113 -0.0358  0.5169  0.1546
14402SOL    HW143784   5.674   2.411   4.118  0.0586  0.4158 -1.4063
14402SOL    HW243785   5.752   2.523   4.054 -0.4564  1.5583 -0.0820
14403SOL     OW43786   4.122   8.276   8.751 -0.3044  0.0795  0.3114
14403SOL    HW143787   4.070   8.249   8.827  0.1842 -0.3253  0.5063
14403SOL    HW243788   4.212   8.255   8.775 -0.1524 -0.1198 -0.4125
14404SOL     OW43789   4.665   9.521   9.288 -0.0261  0.4956 -0.5107
14404SOL    HW143790   4.630   9.572   9.215  0.7544  1.0921 -0.4871
14404SOL    HW243791   4.606   9.447   9.297 -0.8010  1.0414 -0.9931
14405SOL     OW43792   5.622   4.167   4.512  0.2263  0.0548  0.0343
14405SOL    HW143793   5.589   4.162   4.422  0.0902  0.9151  0.0270
14405SOL    HW243794   5.683   4.094   4.520  2.7772  1.8395 -1.7970
14406SOL     OW43795   2.539   4.570   8.739 -0.2295  0.5997  0.2559
14406SOL    HW143796   2.592   4.611   8.807 -0.1830 -1.4931  1.5903
14406SOL    HW243797   2.451   4.605   8.753 -0.2644  0.0458  1.5748
14407SOL     OW43798   3.264   1.751   6.440 -0.3614  0.0714 -0.0966
14407SOL    HW143799   3.245   1.816   6.373 -0.9121  1.0760  1.0008
14407SOL    HW243800   3.270   1.801   6.521  0.3344 -1.1050  0.6132
14408SOL     OW43801   4.810   9.815   9.958  0.3283 -0.5683  0.2096
14408SOL    HW143802   4.769   9.899   9.939  0.6723 -0.3869  0.2558
14408SOL    HW243803   4.864   9.832  10.035  2.6843 -0.0741 -1.4388
14409SOL     OW43804   3.811   5.766   6.548 -0.0197 -0.1618 -0.2073
14409SOL    HW143805   3.889   5.799   6.593  0.0715 -0.1466 -0.3764
14409SOL    HW243806   3.816   5.804   6.460  0.4675 -1.1957 -0.6484
14410SOL     OW43807   8.474   2.393   2.174 -0.0059  0.6772  0.0466
14410SOL    HW143808   8.540   2.442   2.125 -0.3473  0.8911 -0.2063
14410SOL    HW243809   8.470   2.308   2.130  0.2750  0.5746  0.2158
14411SOL     OW43810   6.474   5.044   3.784 -0.4897 -0.2205  0.0315
14411SOL    HW143811   6.440   4.979   3.844  0.2316 -0.4255  0.2224
14411SOL    HW243812   6.567   5.025   3.778 -0.2231  0.9439  0.2806
14412SOL     OW43813   3.458   7.299   8.362 -0.4539  0.2592 -0.2869
14412SOL    HW143814   3.463   7.218   8.413 -1.2912  0.7610  0.6454
14412SOL    HW243815   3.408   7.358   8.418  1.7253  2.0631 -0.1214
14413SOL     OW43816   0.480   9.898   2.156  0.0360  0.4233 -0.1300
14413SOL    HW143817   0.460   9.967   2.219 -0.3807 -0.3482  0.5947
14413SOL    HW243818   0.398   9.850   2.145  0.4237 -0.2111 -0.3191
14414SOL     OW43819   7.769   0.626   0.272 -0.1676 -0.2735 -0.0994
14414SOL    HW143820   7.712   0.556   0.240 -2.3202  1.6099 -0.6301
14414SOL    HW243821   7.755   0.628   0.367 -1.1698  0.2937 -0.2481
14415SOL     OW43822   3.511   0.887   0.593 -1.2729  0.3385  0.5113
14415SOL    HW143823   3.491   0.864   0.684  0.5455 -2.5492  0.3111
14415SOL    HW243824   3.592   0.937   0.598  0.5567 -2.4061  0.4449
14416SOL     OW43825   1.550   1.218   4.539 -0.1392  0.1555  0.3639
14416SOL    HW143826   1.588   1.244   4.455  3.4844 -1.4535  1.3420
14416SOL    HW243827   1.548   1.299   4.591  2.4691  0.2610  0.3922
14417SOL     OW43828   7.248   9.713   8.073 -0.3137 -0.1405  0.0344
14417SOL    HW143829   7.164   9.687   8.033 -1.1057  0.4899  1.2376
14417SOL    HW243830   7.297   9.631   8.081 -0.4567 -0.4052 -1.4365
14418SOL     OW43831   8.802   7.151   8.549 -0.0766  0.3376 -0.3412
14418SOL    HW143832   8.709   7.129   8.547  0.2938 -1.3122 -1.0347
14418SOL    HW243833   8.844   7.076   8.592  0.7990  1.7462  1.4084
14419SOL     OW43834   3.282   1.382   8.242 -0.3329 -0.2225  0.0945
14419SOL    HW143835   3.325   1.459   8.206 -2.2166  0.7793 -0.1117
14419SOL    HW243836   3.231   1.347   8.169 -1.0253 -0.5284  0.7199
14420SOL     OW43837   9.532   3.694   2.682 -0.3594 -1.1909 -0.5930
14420SOL    HW143838   9.498   3.630   2.745 -1.4392  0.1170  0.2159
14420SOL    HW243839   9.522   3.778   2.726  0.8868 -0.4386 -1.6891
14421SOL     OW43840   3.854   9.522   2.555  0.2914 -0.0770  0.1519
14421SOL    HW143841   3.786   9.531   2.621  0.6977  2.2463  0.3497
14421SOL    HW243842   3.823   9.575   2.481  1.6165  0.6567  0.0792
14422SOL     OW43843   0.160   1.874   0.371 -0.0971 -0.2404 -0.1475
14422SOL    HW143844   0.233   1.935   0.388 -0.5945  1.2522 -2.7925
14422SOL    HW243845   0.109   1.876   0.452  0.9595  1.3781  0.5546
14423SOL     OW43846   2.088   3.802   0.703 -0.2175  0.0503  0.5215
14423SOL    HW143847   2.165   3.856   0.683  0.1632 -0.4555  0.5957
14423SOL    HW243848   2.123   3.728   0.752 -0.6165 -0.6626 -0.2376
14424SOL     OW43849   4.764   2.858   3.653  0.0767 -0.4118 -0.0701
14424SOL    HW143850   4.832   2.808   3.609  0.1576 -0.8027  0.4987
14424SOL    HW243851   4.688   2.852   3.594  1.2179  2.1841 -2.0271
14425SOL     OW43852   7.301   2.683  -0.019 -0.1285 -0.0067 -0.3134
14425SOL    HW143853   7.339   2.645   0.061 -0.3414 -0.3678 -0.3794
14425SOL    HW243854   7.236   2.746   0.013  0.9482  1.0792 -0.1943
14426SOL     OW43855   3.706   7.295   9.644 -0.3007 -0.0361  0.8352
14426SOL    HW143856   3.773   7.285   9.712  1.4306  0.9577 -0.6364
14426SOL    HW243857   3.692   7.390   9.639  0.5680  0.0353 -1.0151
14427SOL     OW43858   1.650   2.037   2.716 -0.1203  0.0053  0.3983
14427SOL    HW143859   1.732   2.069   2.678 -0.7112 -0.4142 -1.3111
14427SOL    HW243860   1.582   2.069   2.657 -0.9499 -1.9832  0.1981
14428SOL     OW43861   3.583   2.792   4.298  0.2815 -0.1242  0.3804
14428SOL    HW143862   3.588   2.887   4.284 -1.4293 -0.0042  0.3289
14428SOL    HW243863   3.673   2.765   4.314  0.7201  1.6288  1.1279
14429SOL     OW43864   1.842   7.211   1.333  0.1330 -0.2456  0.0466
14429SOL    HW143865   1.836   7.306   1.347  1.1554  0.0406 -1.2572
14429SOL    HW243866   1.880   7.203   1.245  0.8936 -1.8677  0.5027
14430SOL     OW43867   0.223   0.291   8.931 -0.1436  0.2626 -0.0652
14430SOL    HW143868   0.298   0.264   8.985 -0.8713  1.6932  1.7614
14430SOL    HW243869   0.261   0.349   8.865  0.8786 -2.1176 -1.7285
14431SOL     OW43870   3.620   1.991   7.806 -0.0282 -0.0355 -0.8999
14431SOL    HW143871   3.595   2.061   7.745 -0.7738  1.0154  0.5586
14431SOL    HW243872   3.540   1.941   7.819 -0.3457  0.7938  0.5214
14432SOL     OW43873   2.395   2.633   3.913 -0.7871  0.1668 -0.3515
14432SOL    HW143874   2.318   2.677   3.950 -0.8656 -0.2268 -0.0483
14432SOL    HW243875   2.437   2.591   3.988 -1.3901 -1.3165 -0.8054
14433SOL     OW43876   4.500   4.422   8.351 -0.4138 -0.0244  0.1041
14433SOL    HW143877   4.422   4.424   8.407 -1.2017 -0.8129 -0.9358
14433SOL    HW243878   4.471   4.380   8.270  0.8831  0.4363 -0.6357
14434SOL     OW43879   1.051   4.408   3.436  0.1699  0.2210  0.2643
14434SOL    HW143880   1.058   4.500   3.409 -0.1483 -0.3589 -1.9558
14434SOL    HW243881   0.980   4.372   3.382  1.8290 -1.8918 -0.6579
14435SOL     OW43882   8.744   2.928   8.397 -0.1017  0.8930 -0.6038
14435SOL    HW143883   8.785   3.000   8.349 -0.6749  0.3036 -2.0253
14435SOL    HW243884   8.660   2.964   8.426  0.5106  1.4514  0.5568
14436SOL     OW43885   5.182   3.307   8.117  0.7004 -0.2090 -0.0948
14436SOL    HW143886   5.268   3.291   8.080  1.5133  1.6264  0.8695
14436SOL    HW243887   5.196   3.307   8.212 -0.0520  1.4747  0.0603
14437SOL     OW43888   4.248   8.282   6.033 -0.2027  0.3349 -0.0199
14437SOL    HW143889   4.199   8.238   6.103 -0.5665 -0.2426 -0.6266
14437SOL    HW243890   4.339   8.282   6.064 -0.0439 -1.6324 -0.3661
14438SOL     OW43891   8.487   0.432   7.743  0.3808  0.3787 -0.3836
14438SOL    HW143892   8.426   0.360   7.728 -0.1661  0.3656  1.6430
14438SOL    HW243893   8.520   0.454   7.655 -0.6692 -1.2261 -1.2340
14439SOL     OW43894   3.709   3.428   4.440 -0.5085  0.4352  0.6236
14439SOL    HW143895   3.774   3.359   4.453 -1.2614 -0.1912  1.0688
14439SOL    HW243896   3.624   3.385   4.451 -0.9873  1.5418  1.5036
14440SOL     OW43897   9.167   7.647   8.867  0.3244 -0.0850  0.4005
14440SOL    HW143898   9.169   7.729   8.916  3.1321  0.3736 -0.3162
14440SOL    HW243899   9.075   7.635   8.844 -0.3464  2.1898  1.5879
14441SOL     OW43900   0.521   8.432   6.180  0.2317  0.5512  0.2872
14441SOL    HW143901   0.532   8.344   6.216  0.8408  0.3619 -0.3458
14441SOL    HW243902   0.597   8.445   6.124 -0.6515  0.8635 -0.8836
14442SOL     OW43903   6.828   7.522   3.469 -0.1067  0.6819  0.3468
14442SOL    HW143904   6.780   7.560   3.542 -0.5963 -0.3934  0.6008
14442SOL    HW243905   6.834   7.593   3.404  0.0155  1.5298  1.2619
14443SOL     OW43906   6.343   2.807   7.494  0.2364 -0.1052  0.5484
14443SOL    HW143907   6.314   2.718   7.511 -0.9877 -0.3488 -2.2123
14443SOL    HW243908   6.266   2.861   7.511  0.4442  0.2053  0.5215
14444SOL     OW43909   5.421   3.631   7.753  0.3257  0.5737 -0.1100
14444SOL    HW143910   5.352   3.569   7.731 -0.0328  1.3540 -1.2446
14444SOL    HW243911   5.473   3.586   7.820 -0.9195 -0.2529  0.3248
14445SOL     OW43912   4.386   0.567   5.865 -0.3930  0.3745  0.5875
14445SOL    HW143913   4.408   0.660   5.869 -0.4234  0.3863  0.4561
14445SOL    HW243914   4.303   0.563   5.818  0.0723  0.2037 -0.2219
14446SOL     OW43915   7.029   9.832   2.406 -0.0021 -0.4280 -0.5149
14446SOL    HW143916   6.970   9.870   2.472  0.4115  1.0925 -0.9818
14446SOL    HW243917   7.044   9.742   2.436  2.2854  0.8997  3.0207
14447SOL     OW43918   4.626   6.294   0.042 -0.6027  0.4560  0.3739
14447SOL    HW143919   4.534   6.273   0.024 -0.4543  0.5282 -0.5128
14447SOL    HW243920   4.648   6.240   0.118 -1.0602 -0.4471 -0.1069
14448SOL     OW43921   0.650   9.608   2.620  0.5365  0.0866 -0.2053
14448SOL    HW143922   0.707   9.633   2.547 -0.1780  2.4203 -0.0667
14448SOL    HW243923   0.578   9.561   2.579 -0.0320  1.6677 -1.1146
14449SOL     OW43924   7.284   3.966   2.218 -0.2864  0.3267 -0.5741
14449SOL    HW143925   7.345   4.028   2.259 -1.2746  0.6301  0.4974
14449SOL    HW243926   7.313   3.881   2.250 -0.5994  0.4979  0.2060
14450SOL     OW43927   3.230   9.415   3.605 -0.3229  0.1306  0.4725
14450SOL    HW143928   3.251   9.469   3.681 -1.1422 -1.5467  1.9750
14450SOL    HW243929   3.266   9.463   3.531  0.1346  2.0562  1.8493
14451SOL     OW43930   0.603   1.776   0.630 -0.2785  0.1715  0.3756
14451SOL    HW143931   0.565   1.854   0.669 -0.6124 -0.7765  2.0595
14451SOL    HW243932   0.532   1.737   0.580 -0.2202  0.7258 -0.1512
14452SOL     OW43933   9.790   8.821   7.485  0.3614  0.4792 -0.7583
14452SOL    HW143934   9.807   8.912   7.459  1.8318  0.3076 -0.4576
14452SOL    HW243935   9.773   8.826   7.579 -1.3742  0.6377 -1.0359
14453SOL     OW43936   1.702   3.794   7.050  0.3614  0.4751  0.1738
14453SOL    HW143937   1.780   3.807   6.996 -0.4470 -0.4223 -1.2811
14453SOL    HW243938   1.710   3.859   7.119  0.7579  2.6784 -1.8044
14454SOL     OW43939   3.878   1.483   9.463 -0.2989 -0.1844  0.3296
14454SOL    HW143940   3.805   1.513   9.409 -2.0505 -1.5748  1.7999
14454SOL    HW243941   3.881   1.546   9.535  0.8315  0.5911 -0.3535
14455SOL     OW43942   5.710   2.042   8.580 -0.6027 -0.8238  0.0895
14455SOL    HW143943   5.792   2.042   8.530 -0.9035  0.6509 -0.4657
14455SOL    HW243944   5.729   2.098   8.655 -1.5471  0.9178 -0.9044
14456SOL     OW43945   9.868   2.604   2.005 -0.1567  0.0863 -0.7400
14456SOL    HW143946   9.899   2.519   2.038 -0.4416 -0.4753 -1.8473
14456SOL    HW243947   9.917   2.669   2.055 -0.4593 -0.7206  0.6374
14457SOL     OW43948   2.061   8.817   9.923  0.2434 -0.5908 -0.8716
14457SOL    HW143949   2.098   8.743   9.972 -0.4657  0.2813  1.0724
14457SOL    HW243950   2.137   8.871   9.900  0.4386  0.6363  2.1478
14458SOL     OW43951   5.551   7.327   0.561 -0.2351  0.2862 -0.3309
14458SOL    HW143952   5.601   7.390   0.508 -2.3186  0.7002 -1.9167
14458SOL    HW243953   5.593   7.243   0.544  2.5953  1.0806  1.8113
14459SOL     OW43954   1.950   8.598   4.545  0.0006 -0.1486  0.0276
14459SOL    HW143955   1.890   8.656   4.498  0.7393  1.8146  1.3900
14459SOL    HW243956   1.904   8.574   4.625 -0.0554 -0.9591 -0.2402
14460SOL     OW43957   8.002   1.861   0.285  0.0426  0.0379  0.4783
14460SOL    HW143958   8.048   1.856   0.369  0.4317  1.4736  0.3654
14460SOL    HW243959   7.941   1.934   0.296  1.0261  1.1129 -0.9180
14461SOL     OW43960   2.882   6.377   2.922  0.0632  0.3762 -0.5833
14461SOL    HW143961   2.881   6.428   3.003 -0.6377 -1.2698  0.4969
14461SOL    HW243962   2.959   6.321   2.931  0.8915  1.2830 -1.8090
14462SOL     OW43963   8.801   8.347   4.755 -0.1705  0.2169  0.2079
14462SOL    HW143964   8.823   8.289   4.828 -1.7009 -1.5218 -0.6243
14462SOL    HW243965   8.742   8.413   4.793 -0.8404 -0.5868  0.5919
14463SOL     OW43966   6.731   6.127   1.301 -0.3022 -0.2308 -0.0971
14463SOL    HW143967   6.730   6.050   1.244  0.9671 -1.5201  1.5280
14463SOL    HW243968   6.804   6.112   1.361  0.3296  2.5197 -0.0458
14464SOL     OW43969   3.189   2.505   2.950 -0.4086  0.4435 -0.5707
14464SOL    HW143970   3.228   2.592   2.957  0.9562 -0.1524 -0.4167
14464SOL    HW243971   3.176   2.491   2.856  0.3572  0.4061 -0.6739
14465SOL     OW43972   5.919   8.394   5.239  0.2276 -0.0355 -0.3182
14465SOL    HW143973   5.988   8.438   5.189 -0.2710  0.7840 -0.3130
14465SOL    HW243974   5.868   8.347   5.174  0.0144  0.4340 -0.4965
14466SOL     OW43975   3.958   1.411   1.962 -0.1981 -0.5193 -0.3841
14466SOL    HW143976   3.867   1.382   1.961 -0.0638 -0.9561 -1.9728
14466SOL    HW243977   3.953   1.505   1.946 -0.3135 -0.8276 -2.3791
14467SOL     OW43978   3.397   9.805   4.342 -0.2690  0.0386  0.5180
14467SOL    HW143979   3.433   9.716   4.339 -0.8274 -0.1952  0.6483
14467SOL    HW243980   3.441   9.845   4.417 -0.6043 -0.3941  0.9533
14468SOL     OW43981   9.542   3.809   9.123  0.1379  0.0490  0.1385
14468SOL    HW143982   9.532   3.731   9.069  0.8629 -0.4576  0.7119
14468SOL    HW243983   9.637   3.818   9.133  0.0104 -0.1228  1.6831
14469SOL     OW43984   7.325   3.875   2.585  0.1647 -0.6919 -0.3268
14469SOL    HW143985   7.311   3.969   2.588  1.3299 -0.5134 -0.1858
14469SOL    HW243986   7.317   3.853   2.492  0.7475 -0.3174 -0.4647
14470SOL     OW43987   6.807   5.512   0.186 -0.2469  0.0244 -0.3638
14470SOL    HW143988   6.774   5.424   0.166  2.2790 -0.6497 -2.1055
14470SOL    HW243989   6.868   5.532   0.114  0.1134  2.7548  0.5650
14471SOL     OW43990   2.497   1.127   4.781  0.2169  0.2505 -0.5391
14471SOL    HW143991   2.573   1.186   4.788  0.0769  0.2880  1.0953
14471SOL    HW243992   2.512   1.061   4.848 -0.8151 -0.2114 -0.7469
14472SOL     OW43993   5.894   2.641   5.052 -0.3359 -0.3182  0.1867
14472SOL    HW143994   5.934   2.728   5.045  0.7856 -0.9485 -2.0569
14472SOL    HW243995   5.800   2.657   5.047 -0.1104  0.7142 -1.2887
14473SOL     OW43996   0.479   2.889   7.564 -0.2881 -0.1880  0.1871
14473SOL    HW143997   0.429   2.813   7.536  0.3375 -0.1221 -1.2020
14473SOL    HW243998   0.477   2.886   7.660 -1.1447 -1.3546  0.1464
14474SOL     OW43999   8.871   8.707   7.016  0.5127 -0.0691  0.0200
14474SOL    HW144000   8.870   8.763   6.938  1.5611  0.7242  0.5528
14474SOL    HW244001   8.956   8.723   7.056  0.1058 -0.6889  1.1775
14475SOL     OW44002   3.357   1.299   6.887 -0.3652  0.3186  0.2789
14475SOL    HW144003   3.310   1.383   6.891  1.2661  1.3009  0.0732
14475SOL    HW244004   3.444   1.322   6.854 -0.2502 -1.6607 -0.9518
14476SOL     OW44005   4.649   9.118   4.163  0.2490  0.7016  0.0155
14476SOL    HW144006   4.708   9.054   4.203 -0.4766  1.2845  2.1446
14476SOL    HW244007   4.706   9.191   4.140  0.7401  0.2010 -0.4041
14477SOL     OW44008   8.194   0.723   5.928  0.5614  0.1536  0.6031
14477SOL    HW144009   8.289   0.718   5.920  0.8291  1.9922  1.9620
14477SOL    HW244010   8.161   0.694   5.843  2.3672  0.4288 -0.2383
14478SOL     OW44011   0.798   4.593   3.643 -0.3202 -0.5853  0.1247
14478SOL    HW144012   0.739   4.668   3.638  0.1983 -0.2204 -1.2261
14478SOL    HW244013   0.877   4.622   3.597 -0.3548 -2.1662 -1.0270
14479SOL     OW44014   5.369   0.228   8.310  0.2587  0.1680  0.4996
14479SOL    HW144015   5.364   0.139   8.347  1.1947  0.2185  0.7706
14479SOL    HW244016   5.373   0.285   8.387 -0.2326  0.4526  0.3233
14480SOL     OW44017   1.053   3.615   1.651  0.0479  0.0547 -0.2813
14480SOL    HW144018   1.110   3.587   1.722  0.3708  0.7381 -0.2675
14480SOL    HW244019   1.107   3.673   1.598 -0.6436  0.7579 -0.2360
14481SOL     OW44020   8.370   5.355   9.113  0.0133 -0.7906  0.1197
14481SOL    HW144021   8.377   5.270   9.156 -0.3806 -0.3581  1.0576
14481SOL    HW244022   8.451   5.363   9.063  0.8505 -0.9847  1.3961
14482SOL     OW44023   9.070   0.137   9.289 -0.5236 -0.1643 -0.3027
14482SOL    HW144024   9.055   0.122   9.195 -1.8586 -0.6089 -0.0422
14482SOL    HW244025   9.072   0.232   9.297  3.1629 -0.0233 -1.2583
14483SOL     OW44026   3.967   5.635   3.634  0.6705  0.1385 -0.7246
14483SOL    HW144027   3.997   5.704   3.576 -0.8110  0.9523 -0.5574
14483SOL    HW244028   3.998   5.554   3.593  0.3568  0.7485 -2.2055
14484SOL     OW44029   1.429   3.824   1.723 -0.5201 -0.1781  0.2142
14484SOL    HW144030   1.338   3.850   1.738 -0.2412  0.5728  0.6517
14484SOL    HW244031   1.453   3.774   1.801  0.5172  2.6198  1.8706
14485SOL     OW44032   4.834   2.300   3.444 -0.3750 -0.0480  0.7621
14485SOL    HW144033   4.813   2.307   3.350 -0.2731  1.8432  0.8418
14485SOL    HW244034   4.889   2.222   3.450 -0.1390 -0.0474 -0.8007
14486SOL     OW44035   9.169   7.529   5.210  0.1786  0.2640 -0.1984
14486SOL    HW144036   9.195   7.517   5.119  1.3925 -0.7147  0.2376
14486SOL    HW244037   9.229   7.595   5.244  0.6104 -0.3251  0.2157
14487SOL     OW44038   4.936   8.467   7.784 -0.0520 -0.1164 -0.4352
14487SOL    HW144039   4.988   8.391   7.758 -1.3092 -1.1377 -0.0541
14487SOL    HW244040   4.924   8.516   7.702  3.0814  1.2395 -0.2450
14488SOL     OW44041   9.054   0.802   5.873 -0.3513  0.3369  0.2057
14488SOL    HW144042   9.124   0.866   5.862 -0.1532  0.1346  0.2732
14488SOL    HW244043   9.082   0.728   5.819 -0.4321  0.1907  0.3650
14489SOL     OW44044   1.080   4.394   9.685 -0.5000 -0.2470 -0.0111
14489SOL    HW144045   1.012   4.393   9.618  0.0802 -2.2753 -0.6357
14489SOL    HW244046   1.041   4.441   9.759 -1.3532  1.5484 -1.5096
14490SOL     OW44047   1.158   9.749   9.244 -0.0087 -0.0461 -0.0871
14490SOL    HW144048   1.170   9.656   9.261  0.6596  0.1852  0.8275
14490SOL    HW244049   1.150   9.756   9.149  0.1040 -1.0191 -0.1713
14491SOL     OW44050   3.058   7.146   5.736  1.0005 -0.1842  0.3264
14491SOL    HW144051   3.120   7.165   5.807 -0.3918  1.3446  1.1867
14491SOL    HW244052   3.076   7.212   5.670 -0.0823  0.6517  0.8443
14492SOL     OW44053   1.359   2.113   8.846  0.4626  0.1045 -0.1946
14492SOL    HW144054   1.445   2.156   8.844  0.4659  0.2036  1.1025
14492SOL    HW244055   1.296   2.186   8.852  0.4111 -0.0136  0.9094
14493SOL     OW44056   6.386   3.775   5.549  0.1166 -0.4969 -0.3874
14493SOL    HW144057   6.302   3.750   5.587 -0.6225  1.0100 -0.9098
14493SOL    HW244058   6.451   3.748   5.613 -0.7931 -1.3197  0.2236
14494SOL     OW44059   1.499   0.479   6.894  0.1353  0.0988 -0.4451
14494SOL    HW144060   1.468   0.501   6.982  0.1016  0.7512 -0.6120
14494SOL    HW244061   1.420   0.466   6.842 -0.0401  3.5237 -1.3200
14495SOL     OW44062   1.732   0.874   2.443  0.0592 -0.3106  0.1537
14495SOL    HW144063   1.639   0.897   2.446 -0.2473 -0.3451 -3.9163
14495SOL    HW244064   1.776   0.958   2.427  0.5931 -0.5222  0.4872
14496SOL     OW44065   1.051   0.640   1.676  0.4304 -0.4572 -0.3538
14496SOL    HW144066   1.047   0.631   1.581 -2.2232 -1.1538 -0.2579
14496SOL    HW244067   0.999   0.566   1.709  1.2110 -0.1738  1.6383
14497SOL     OW44068   1.202   8.501   9.181  0.0589 -0.2780  0.4930
14497SOL    HW144069   1.248   8.585   9.174  1.0816 -0.8946 -0.6496
14497SOL    HW244070   1.195   8.486   9.275  0.1054  0.9560  0.7189
14498SOL     OW44071   9.321   0.428   2.223  0.1038  0.0525  0.1240
14498SOL    HW144072   9.269   0.382   2.158  2.3026 -0.6699 -1.2211
14498SOL    HW244073   9.364   0.359   2.274  0.2320  0.6193  0.8066
14499SOL     OW44074   3.981   9.362   1.825 -0.1300 -0.2877  0.0827
14499SOL    HW144075   3.954   9.309   1.900 -1.3553  0.5365  0.2480
14499SOL    HW244076   3.902   9.368   1.771  0.8347 -1.2034 -1.4959
14500SOL     OW44077   8.431   5.594   1.536  0.4452 -0.2562 -0.1099
14500SOL    HW144078   8.352   5.543   1.516  0.6370 -0.8753  0.6266
14500SOL    HW244079   8.399   5.667   1.589  0.1598  0.4414 -1.2186
14501SOL     OW44080   5.917   0.021   6.470 -0.5709 -0.3161  0.2086
14501SOL    HW144081   6.011   0.035   6.486 -0.3617 -1.2894 -0.1177
14501SOL    HW244082   5.877   0.105   6.493  0.4993  0.4790 -0.6857
14502SOL     OW44083   0.394   4.476   8.537  0.1141  0.6111  0.1382
14502SOL    HW144084   0.368   4.409   8.600  0.4734  1.1943  0.9275
14502SOL    HW244085   0.450   4.431   8.474 -0.9596 -0.1698 -0.2794
14503SOL     OW44086   5.073   2.874   7.703 -0.4023  0.1189  0.3287
14503SOL    HW144087   5.002   2.924   7.744 -1.5451  0.4906 -1.9199
14503SOL    HW244088   5.031   2.829   7.629  2.0862  2.5605 -2.8812
14504SOL     OW44089   3.399   8.921   2.415  0.0885 -0.1493  0.7171
14504SOL    HW144090   3.400   9.002   2.467 -0.1340  1.1906 -1.2835
14504SOL    HW244091   3.489   8.911   2.385 -0.1118 -0.0195  0.0570
14505SOL     OW44092   9.169   1.779   5.352  0.2059  0.1854 -0.3870
14505SOL    HW144093   9.209   1.853   5.307  1.6179 -1.1137 -1.3839
14505SOL    HW244094   9.169   1.709   5.287 -0.9217 -0.7474  0.5868
14506SOL     OW44095   9.530   4.403   4.916  0.1653  0.0009 -0.8673
14506SOL    HW144096   9.540   4.457   4.994  0.1752 -1.3949  0.1152
14506SOL    HW244097   9.565   4.317   4.940 -1.8464 -1.1128 -1.6614
14507SOL     OW44098   6.139   0.222   5.757  0.2882  0.1326  0.4733
14507SOL    HW144099   6.084   0.259   5.689  1.5279  0.7980 -0.1865
14507SOL    HW244100   6.202   0.291   5.779  1.1684 -0.7560  0.8642
14508SOL     OW44101   3.392   9.357   0.037 -1.0104 -0.2360 -0.3694
14508SOL    HW144102   3.411   9.451   0.044 -0.7031 -0.2929 -0.4329
14508SOL    HW244103   3.432   9.319   0.115  0.1562 -0.5168 -1.0890
14509SOL     OW44104   5.611   0.422   4.189  0.1396 -0.3178 -0.3504
14509SOL    HW144105   5.635   0.366   4.115  0.8211  0.2008 -0.5296
14509SOL    HW244106   5.690   0.472   4.208 -0.0177 -0.4536  0.7550
14510SOL     OW44107   2.117   3.141   5.930  0.6676  0.6789  0.0261
14510SOL    HW144108   2.154   3.172   6.012 -0.1773 -0.3664  0.8252
14510SOL    HW244109   2.066   3.215   5.897  0.1359  0.7707  1.0063
14511SOL     OW44110   8.689   4.097   8.206  0.5549  0.1902 -0.7102
14511SOL    HW144111   8.648   4.118   8.122 -0.7520  0.7613  0.0374
14511SOL    HW244112   8.692   4.181   8.252 -1.2560 -0.5239  0.8504
14512SOL     OW44113   7.624   0.094   9.775 -0.4851 -0.1003 -0.4172
14512SOL    HW144114   7.542   0.139   9.754 -0.4084  0.2868  0.1003
14512SOL    HW244115   7.691   0.143   9.727 -0.2798  0.9246  0.8799
14513SOL     OW44116   3.600   0.999   3.655 -0.3969 -0.0552 -0.3026
14513SOL    HW144117   3.684   0.969   3.689 -0.9262  0.7047  1.8145
14513SOL    HW244118   3.550   1.023   3.732 -1.9036  1.2720 -1.6168
14514SOL     OW44119   6.383   6.835   3.609  0.2959  0.2158 -0.0565
14514SOL    HW144120   6.345   6.757   3.650  2.7592 -1.0457 -0.0234
14514SOL    HW244121   6.461   6.853   3.661  1.3845  0.9153 -1.8690
14515SOL     OW44122   1.811   0.910   8.249 -0.0066 -0.4719  0.4681
14515SOL    HW144123   1.889   0.855   8.250  1.1526  1.0679 -0.3469
14515SOL    HW244124   1.740   0.851   8.226  0.9767 -1.8465  0.8804
14516SOL     OW44125   1.992   6.198   9.772 -0.3929  0.0016  0.1164
14516SOL    HW144126   2.045   6.120   9.758 -1.8256 -1.3943  1.8623
14516SOL    HW244127   2.050   6.271   9.750  1.6428 -1.4824  0.2371
14517SOL     OW44128   1.711   5.138   3.445 -0.4418 -0.5051 -0.0574
14517SOL    HW144129   1.700   5.067   3.508  0.5808 -1.0501 -0.4710
14517SOL    HW244130   1.753   5.097   3.369 -1.5991  0.1412 -1.0835
14518SOL     OW44131   7.477   5.352   1.862 -0.2058  0.1250  0.3835
14518SOL    HW144132   7.538   5.386   1.797 -0.6597  0.2678  0.0269
14518SOL    HW244133   7.449   5.430   1.911 -1.1432  0.2587 -0.3455
14519SOL     OW44134   6.453   4.773   8.257 -0.2250 -0.1570 -0.2709
14519SOL    HW144135   6.361   4.766   8.282 -0.8747  2.7193 -1.4302
14519SOL    HW244136   6.483   4.853   8.300  1.4228 -0.4085 -0.8880
14520SOL     OW44137   8.542   7.212   8.476  0.6112 -0.2475 -0.2978
14520SOL    HW144138   8.465   7.188   8.528  1.2391  0.0212  0.7964
14520SOL    HW244139   8.514   7.201   8.385 -0.9444  0.5359  0.0489
14521SOL     OW44140   6.957   2.799   1.364 -0.5206  0.3411  0.2527
14521SOL    HW144141   7.024   2.739   1.331  0.7076  0.3460  2.5344
14521SOL    HW244142   6.943   2.771   1.455 -2.7047  1.1592  0.2038
14522SOL     OW44143   8.231   2.047   4.071  0.0896  0.3885 -0.3299
14522SOL    HW144144   8.151   2.073   4.025 -0.7715 -0.1659  0.7944
14522SOL    HW244145   8.260   1.968   4.026  0.0649  0.6513 -0.8114
14523SOL     OW44146   5.397   2.854   6.838 -0.1353  0.1922  0.1911
14523SOL    HW144147   5.316   2.802   6.832  0.2922 -0.4082 -0.5257
14523SOL    HW244148   5.458   2.810   6.779  0.6690  0.7406  0.6022
14524SOL     OW44149   9.235   3.512   6.131 -0.0241 -0.1650 -0.7389
14524SOL    HW144150   9.220   3.518   6.226  0.7274 -2.8252 -0.3786
14524SOL    HW244151   9.147   3.521   6.093 -0.4273  0.2023  0.2350
14525SOL     OW44152   2.033   3.798   1.967  0.3501  0.4670 -0.0038
14525SOL    HW144153   1.944   3.784   1.934  0.7627 -0.3045 -0.7855
14525SOL    HW244154   2.068   3.868   1.912  0.9880 -0.7225 -1.1318
14526SOL     OW44155   2.655   7.679   4.234 -0.3106 -0.1415 -0.2220
14526SOL    HW144156   2.653   7.695   4.139 -1.6204  0.2695 -0.1476
14526SOL    HW244157   2.638   7.585   4.242  1.9782 -0.6333 -0.4473
14527SOL     OW44158   7.569   9.058   0.407 -0.0105 -0.3028 -0.7902
14527SOL    HW144159   7.532   9.056   0.495  0.9899 -1.9915 -0.3474
14527SOL    HW244160   7.536   9.139   0.368 -0.6135  0.3935  1.0708
14528SOL     OW44161   4.480   7.928   2.572 -0.5484  0.6053  0.0252
14528SOL    HW144162   4.502   7.872   2.497 -1.5976  0.1423  0.0414
14528SOL    HW244163   4.396   7.967   2.547 -1.1741  0.0354  1.1748
14529SOL     OW44164   6.787   9.878   1.252  0.2139 -0.2114 -0.3129
14529SOL    HW144165   6.834   9.959   1.275  0.2078 -0.0791 -0.7659
14529SOL    HW244166   6.719   9.871   1.319  0.4503 -0.0422 -0.0486
14530SOL     OW44167   1.957   1.601   8.052  0.0016  0.3734  0.1143
14530SOL    HW144168   2.007   1.582   7.972 -1.5349 -1.1724 -0.5357
14530SOL    HW244169   2.003   1.552   8.120 -0.5001 -0.9338 -0.4533
14531SOL     OW44170   3.351   3.604   5.600 -0.2313  0.0120 -0.2669
14531SOL    HW144171   3.275   3.644   5.557 -0.1777  1.9922  1.2884
14531SOL    HW244172   3.318   3.575   5.685  0.9535  2.2904  1.0855
14532SOL     OW44173   3.136   9.627   5.584  0.7394 -0.0315  0.0791
14532SOL    HW144174   3.058   9.682   5.572 -0.2767 -1.7184 -1.5944
14532SOL    HW244175   3.127   9.590   5.671 -0.6829 -0.6807 -0.3212
14533SOL     OW44176   4.837   5.114   2.855  0.2125 -0.9040  0.2556
14533SOL    HW144177   4.915   5.153   2.815 -1.2084  1.0562 -0.7983
14533SOL    HW244178   4.852   5.020   2.851  1.5597 -0.6588 -1.9447
14534SOL     OW44179   2.037   1.190   7.004  0.0191 -0.6676  0.1810
14534SOL    HW144180   2.122   1.188   7.050  0.1543 -0.0972 -0.0463
14534SOL    HW244181   2.047   1.258   6.938 -0.2171 -1.4005 -0.6277
14535SOL     OW44182   3.493   3.246   4.456  0.1477  0.0505  0.0461
14535SOL    HW144183   3.462   3.224   4.369  1.4503  0.2152 -0.4816
14535SOL    HW244184   3.426   3.305   4.492 -0.2695  0.1820 -0.9320
14536SOL     OW44185   8.091   1.082   6.029 -0.7104 -0.3486 -0.2199
14536SOL    HW144186   8.175   1.070   5.984 -1.1628  1.2117 -1.5790
14536SOL    HW244187   8.034   1.122   5.963 -1.8136  0.8400  1.3825
14537SOL     OW44188   6.977   5.198   3.240  0.2578 -0.2553 -0.4424
14537SOL    HW144189   6.933   5.136   3.183  1.7734 -2.4785  0.6589
14537SOL    HW244190   7.001   5.271   3.182 -3.7294  0.6188 -1.2743
14538SOL     OW44191   9.414   6.134   9.506 -0.6265  0.6306 -0.1343
14538SOL    HW144192   9.327   6.175   9.511 -0.6294  0.6759 -0.5358
14538SOL    HW244193   9.396   6.042   9.487 -0.6491  0.2782  1.4284
14539SOL     OW44194   9.405   4.702   8.168 -0.1652  0.0449 -0.2852
14539SOL    HW144195   9.497   4.677   8.175 -0.7799 -2.7746 -1.1732
14539SOL    HW244196   9.403   4.763   8.094  0.8381 -0.8597 -1.0944
14540SOL     OW44197   4.725   2.507   8.218  0.5579  0.1189 -0.2876
14540SOL    HW144198   4.778   2.473   8.290 -1.0719  0.3495  1.0890
14540SOL    HW244199   4.657   2.441   8.206 -0.6097  1.2096  0.0802
14541SOL     OW44200   0.119   6.351   7.368 -0.0352  0.1674  0.0919
14541SOL    HW144201   0.093   6.320   7.282 -0.6908 -0.1380  0.3960
14541SOL    HW244202   0.088   6.442   7.371  1.3103  0.6761 -0.5493
14542SOL     OW44203   1.443   4.391   4.975  0.5426 -0.2295  0.0276
14542SOL    HW144204   1.530   4.378   5.011  0.4399 -0.1214  0.3190
14542SOL    HW244205   1.384   4.349   5.038  0.3182  0.4522  0.2862
14543SOL     OW44206   6.181   8.109   2.740 -0.1949  0.5639 -0.1072
14543SOL    HW144207   6.178   8.204   2.729 -0.2167  0.5897  0.1146
14543SOL    HW244208   6.119   8.075   2.676 -0.0290  0.6870 -0.3346
14544SOL     OW44209   1.517   6.560   3.718  0.7626  0.2852 -0.7415
14544SOL    HW144210   1.565   6.641   3.701 -1.0611  1.4558 -0.5929
14544SOL    HW244211   1.538   6.537   3.808  1.5953  0.3714 -0.9100
14545SOL     OW44212   3.246   5.454   4.926 -0.1221 -0.2274 -0.0439
14545SOL    HW144213   3.314   5.393   4.898  0.6826  0.4198  0.4517
14545SOL    HW244214   3.166   5.401   4.930  0.3939 -1.0506 -0.4195
14546SOL     OW44215   5.701   9.484   9.030 -0.1557  0.0337  0.2313
14546SOL    HW144216   5.689   9.403   9.079 -1.4318 -0.6250 -1.0938
14546SOL    HW244217   5.796   9.489   9.014  0.3271  0.3710  2.8276
14547SOL     OW44218   4.648   4.691   2.267  0.1752 -0.7430  0.1891
14547SOL    HW144219   4.739   4.702   2.238 -0.0038 -3.6950 -1.8830
14547SOL    HW244220   4.600   4.760   2.220  1.1111 -0.0850  0.1617
14548SOL     OW44221   8.601   2.381   4.074  0.0348 -0.2549 -0.4159
14548SOL    HW144222   8.641   2.427   4.149 -0.6985  0.7735 -0.6369
14548SOL    HW244223   8.569   2.299   4.111 -0.7397  0.4483  0.5204
14549SOL     OW44224   3.202   9.799   7.392  0.4658 -0.1472  0.2013
14549SOL    HW144225   3.242   9.836   7.313 -0.1044  0.0033 -0.0233
14549SOL    HW244226   3.108   9.806   7.376  0.3412  0.3913  1.1379
14550SOL     OW44227   7.972   7.304   0.419  0.7180  0.5584  0.2700
14550SOL    HW144228   7.901   7.315   0.483  0.7642 -0.7513  0.5726
14550SOL    HW244229   8.034   7.374   0.441 -0.2799  1.4864  0.2499
14551SOL     OW44230   1.896   6.582   3.590  0.0241  1.3792  0.3322
14551SOL    HW144231   1.965   6.518   3.574 -2.3112 -0.7828 -1.9693
14551SOL    HW244232   1.843   6.544   3.660 -1.2883  0.7826 -0.9356
14552SOL     OW44233   4.239   9.615   2.593  0.1255  0.2780  0.3337
14552SOL    HW144234   4.180   9.612   2.669  1.1620  0.7412  1.1863
14552SOL    HW244235   4.238   9.706   2.566  0.6916  0.3536  0.5584
14553SOL     OW44236   9.689   7.181   6.642 -0.5509  0.3722 -0.1473
14553SOL    HW144237   9.651   7.121   6.578 -0.7848  0.4394 -0.0729
14553SOL    HW244238   9.657   7.267   6.615 -0.0943  0.4825 -0.3428
14554SOL     OW44239   8.545   5.604   5.477 -0.1315  0.2800  0.2894
14554SOL    HW144240   8.545   5.523   5.528  0.6286 -1.0826 -1.7537
14554SOL    HW244241   8.637   5.617   5.453 -0.7518 -0.9605 -3.3555
14555SOL     OW44242   3.879   1.476   7.313  0.2151  0.0228 -0.3476
14555SOL    HW144243   3.959   1.496   7.265 -0.0504 -0.4498 -1.0036
14555SOL    HW244244   3.812   1.529   7.271 -0.1963 -1.0638 -1.1094
14556SOL     OW44245   5.792   2.633   3.447 -0.3337 -0.0392  0.2563
14556SOL    HW144246   5.729   2.569   3.479  0.5969 -2.4199 -2.2332
14556SOL    HW244247   5.877   2.599   3.474  0.0847  1.5977  1.1232
14557SOL     OW44248   6.163   0.029   6.857  0.1238  0.0927  0.0023
14557SOL    HW144249   6.217   0.107   6.845  0.0417  0.8063  3.2768
14557SOL    HW244250   6.224  -0.037   6.891 -0.4038 -0.1994  0.4030
14558SOL     OW44251   4.986   9.669   5.310 -0.1399 -0.2265 -0.6012
14558SOL    HW144252   5.008   9.606   5.241 -1.5806  0.7977 -2.0504
14558SOL    HW244253   4.892   9.682   5.303  0.2896  3.6457 -1.8257
14559SOL     OW44254   1.029   9.720   5.513 -0.1558 -0.7328 -0.0399
14559SOL    HW144255   1.009   9.721   5.607 -1.2062 -0.3737 -0.2514
14559SOL    HW244256   1.015   9.810   5.485  2.1651 -0.3691 -0.1702
14560SOL     OW44257   3.180   6.711   4.132  0.4630 -0.6963  0.6653
14560SOL    HW144258   3.104   6.764   4.107  1.4713  0.2915 -0.4001
14560SOL    HW244259   3.228   6.767   4.193  1.2362 -0.5916 -0.0261
14561SOL     OW44260   4.713   2.464   6.395 -0.2207 -0.4915 -0.1841
14561SOL    HW144261   4.712   2.542   6.339 -4.1089  0.5179  1.0130
14561SOL    HW244262   4.703   2.391   6.335  0.8954  0.1107 -1.1449
14562SOL     OW44263   1.965   6.456   7.775  0.2174  0.2757  0.4603
14562SOL    HW144264   2.042   6.409   7.806  0.4099  0.2523 -0.0502
14562SOL    HW244265   1.965   6.443   7.680 -1.0032 -0.6081  0.5550
14563SOL     OW44266   5.604   6.331   9.220  0.3289  0.0395  0.2310
14563SOL    HW144267   5.577   6.309   9.131  0.9288  1.4995 -0.3359
14563SOL    HW244268   5.684   6.281   9.234  0.9663  0.8249 -0.5544
14564SOL     OW44269   0.187   2.139   9.575 -0.1036 -0.1503  0.1783
14564SOL    HW144270   0.127   2.210   9.554 -0.4723 -0.3699  0.4710
14564SOL    HW244271   0.192   2.087   9.495  1.4950  1.1330 -0.5896
14565SOL     OW44272   6.858   3.402   6.944  0.5361 -0.0103  0.1498
14565SOL    HW144273   6.882   3.335   6.881 -0.6774  0.1375 -0.4892
14565SOL    HW244274   6.774   3.436   6.913  1.5888  2.5497 -0.1665
14566SOL     OW44275   5.862   8.249   2.719  0.1729 -0.8961 -0.5196
14566SOL    HW144276   5.948   8.291   2.725  0.7875 -2.2535  0.8709
14566SOL    HW244277   5.804   8.308   2.767  0.2806  0.0628 -1.5244
14567SOL     OW44278   7.051   3.855   5.259  0.3737  0.4494  0.1809
14567SOL    HW144279   7.054   3.763   5.285  0.4690  0.1547 -0.8343
14567SOL    HW244280   6.981   3.860   5.194 -0.2124  1.2670  0.8509
14568SOL     OW44281   3.336   2.919   8.097 -0.2465 -0.3483 -0.3658
14568SOL    HW144282   3.252   2.957   8.120  0.0564 -1.1335  2.5594
14568SOL    HW244283   3.369   2.883   8.180  3.5419  1.0527 -1.0289
14569SOL     OW44284   5.597   4.523   8.871  0.1172  0.3363  0.1238
14569SOL    HW144285   5.572   4.447   8.818 -2.4204  1.0170  0.2401
14569SOL    HW244286   5.675   4.494   8.919 -0.6799 -2.1475  0.0575
14570SOL     OW44287   9.318   6.159   5.476 -0.3971  0.3597 -0.6623
14570SOL    HW144288   9.229   6.192   5.482  0.1996  2.0200 -0.5629
14570SOL    HW244289   9.307   6.065   5.462 -2.1529  0.5972 -1.1325
14571SOL     OW44290   8.068   7.422   1.592  1.0434  0.1907  0.9128
14571SOL    HW144291   8.162   7.419   1.572  1.0042 -1.2325  0.8861
14571SOL    HW244292   8.027   7.444   1.509  1.0334 -3.8678 -0.3703
14572SOL     OW44293   5.765   3.588   5.054  0.3688  0.2745  0.2274
14572SOL    HW144294   5.810   3.667   5.086  2.9313 -0.7470 -0.6314
14572SOL    HW244295   5.711   3.560   5.128  1.4414  1.3810  1.4820
14573SOL     OW44296   5.279   8.382   0.109 -0.2972 -0.2079  0.0756
14573SOL    HW144297   5.252   8.413   0.023  1.7586  0.7145 -0.2944
14573SOL    HW244298   5.347   8.316   0.091  1.4508  1.2509  0.9317
14574SOL     OW44299   2.709   8.944   5.593  0.0225 -0.0042  0.0055
14574SOL    HW144300   2.794   8.972   5.558  0.5810 -1.5552  0.0777
14574SOL    HW244301   2.652   8.942   5.516  0.1848  0.4991 -0.1363
14575SOL     OW44302   9.183   7.166   3.031 -0.0213  0.4968  0.3404
14575SOL    HW144303   9.092   7.176   3.059  0.0880 -0.1374  0.9598
14575SOL    HW244304   9.201   7.244   2.979 -1.2022  0.2105 -0.5521
14576SOL     OW44305   3.910   7.357   2.693 -0.1115  0.0101 -0.3446
14576SOL    HW144306   3.997   7.398   2.695 -0.5363  0.9889 -1.2082
14576SOL    HW244307   3.927   7.265   2.669  0.7775 -0.1288  0.7392
14577SOL     OW44308   3.290   9.415   4.084  0.3878  0.0093  0.0521
14577SOL    HW144309   3.382   9.388   4.086  0.3645 -0.0490  1.8673
14577SOL    HW244310   3.293   9.511   4.081  0.4839 -0.0128 -0.9272
14578SOL     OW44311   3.768   0.478   9.398  0.0353 -0.2476  0.3658
14578SOL    HW144312   3.834   0.414   9.370  0.4643  0.4341 -0.2022
14578SOL    HW244313   3.690   0.456   9.348 -0.6501 -1.9294  2.0201
14579SOL     OW44314   4.135   4.880   0.168  0.1864  0.4036  0.1299
14579SOL    HW144315   4.108   4.945   0.104 -1.2742  0.8865  1.1804
14579SOL    HW244316   4.206   4.922   0.216 -0.5541  1.1338  0.6115
14580SOL     OW44317   5.630   7.509   9.398  1.0956  0.3495  0.3927
14580SOL    HW144318   5.636   7.459   9.317  0.6628 -0.2586  0.7267
14580SOL    HW244319   5.549   7.479   9.439  0.9950  1.0880  0.7659
14581SOL     OW44320   3.084   6.888   7.366  0.0194  0.0071 -0.6774
14581SOL    HW144321   3.152   6.954   7.376 -0.2617  0.0258  1.7739
14581SOL    HW244322   3.002   6.935   7.379 -0.1580 -0.8116  1.8343
14582SOL     OW44323   2.872   7.818   5.410  0.8814 -0.0555  0.6567
14582SOL    HW144324   2.893   7.773   5.491  0.8968 -0.9084  0.1928
14582SOL    HW244325   2.945   7.797   5.351  1.4412  1.4761  0.7630
14583SOL     OW44326   0.279   9.062   4.673  1.0272 -0.5636  0.2506
14583SOL    HW144327   0.366   9.027   4.691  0.9072 -0.5861  0.8024
14583SOL    HW244328   0.223   8.985   4.668  1.1392 -0.5969 -0.7413
14584SOL     OW44329   2.892   7.981   3.147 -0.3482 -0.6727  0.3228
14584SOL    HW144330   2.972   7.953   3.191  0.6952  0.5468 -0.7326
14584SOL    HW244331   2.877   7.914   3.080  1.6236  0.6651 -1.5827
14585SOL     OW44332   6.204   3.871   8.176 -0.3980 -0.4804 -0.5265
14585SOL    HW144333   6.122   3.919   8.163 -0.6152 -0.2507  1.3599
14585SOL    HW244334   6.194   3.792   8.123 -1.9453 -0.5513 -0.1814
14586SOL     OW44335   8.859   0.600   4.085 -0.6330  0.3418  0.0287
14586SOL    HW144336   8.940   0.641   4.114 -0.6584  0.7563 -0.4747
14586SOL    HW244337   8.790   0.654   4.123 -0.6720  0.1105  0.2869
14587SOL     OW44338   8.706   7.353   8.726  0.2936 -0.5814  0.2588
14587SOL    HW144339   8.728   7.291   8.656  0.6278 -0.3835  0.1868
14587SOL    HW244340   8.767   7.426   8.713  0.6492 -0.7397  1.0223
14588SOL     OW44341   6.536   9.553   2.034  0.1120 -0.1833  0.2383
14588SOL    HW144342   6.546   9.632   1.980  0.1539 -0.2967  0.0807
14588SOL    HW244343   6.482   9.582   2.107  0.3432  0.0575  0.3163
14589SOL     OW44344   3.908   6.585   3.639  0.5901  0.0314 -0.5293
14589SOL    HW144345   3.886   6.547   3.554  0.6730  0.0037 -0.5394
14589SOL    HW244346   3.992   6.544   3.662  0.8958  0.5415 -0.7454
14590SOL     OW44347   2.198   8.005   4.583 -0.2512  0.9133  0.2774
14590SOL    HW144348   2.232   8.071   4.644  1.0483  0.5556 -0.0291
14590SOL    HW244349   2.275   7.976   4.534 -0.5633 -1.6540  1.1773
14591SOL     OW44350   7.376   6.372   2.210  0.2109  0.4251 -0.6168
14591SOL    HW144351   7.436   6.373   2.135  0.5759  0.4076 -0.3264
14591SOL    HW244352   7.431   6.392   2.285 -0.3085  1.2905 -0.4581
14592SOL     OW44353   0.206   0.875   3.461  0.1337  0.4487 -0.3850
14592SOL    HW144354   0.290   0.886   3.507  0.0953 -0.8945  0.0360
14592SOL    HW244355   0.145   0.930   3.510  0.1846 -0.6519  0.9541
14593SOL     OW44356   5.125   0.239   1.770  0.7984 -0.7363  0.0929
14593SOL    HW144357   5.172   0.261   1.690  0.2121  0.2113 -0.0007
14593SOL    HW244358   5.125   0.320   1.821  0.3983 -1.0851  0.6579
14594SOL     OW44359   5.074   1.363   8.925  0.0708  0.5086  0.7551
14594SOL    HW144360   5.138   1.370   8.854 -0.1013  1.8026  0.6897
14594SOL    HW244361   5.124   1.383   9.004  0.0673 -0.0087  0.8881
14595SOL     OW44362   7.956   9.271   1.561 -0.0068  0.3646 -0.2530
14595SOL    HW144363   7.930   9.362   1.574  0.5043  0.5198 -0.3020
14595SOL    HW244364   7.895   9.238   1.495 -0.8584  0.3677  0.5263
14596SOL     OW44365   4.763   6.914   2.511 -0.0557  0.1039 -0.1877
14596SOL    HW144366   4.849   6.876   2.531 -0.5363 -0.8704  0.0755
14596SOL    HW244367   4.759   6.915   2.415 -0.4130 -1.4326 -0.2139
14597SOL     OW44368   6.343   1.983   8.090  0.0052 -0.2632  0.1339
14597SOL    HW144369   6.387   2.053   8.139  0.6225  0.6828 -1.6991
14597SOL    HW244370   6.315   2.024   8.009 -1.6790 -1.6043 -0.0240
14598SOL     OW44371   6.248   0.588   9.665  0.2757 -0.0278  0.0674
14598SOL    HW144372   6.174   0.647   9.647  0.0033 -0.4032 -0.0666
14598SOL    HW244373   6.281   0.564   9.579 -1.0099 -1.8022  0.0140
14599SOL     OW44374   8.069   4.733   1.913  0.2462 -0.5159  0.2694
14599SOL    HW144375   8.128   4.800   1.877 -0.5895  1.2010  1.9498
14599SOL    HW244376   7.994   4.733   1.854  0.1492  0.2051  0.3903
14600SOL     OW44377   1.220   4.573   8.985 -0.7054 -0.3762 -0.2090
14600SOL    HW144378   1.309   4.604   9.003 -1.1362  2.3734 -2.0662
14600SOL    HW244379   1.216   4.486   9.024  2.6265 -0.4073  0.3581
14601SOL     OW44380   8.291   7.903   6.213  0.4513  0.5072  0.2040
14601SOL    HW144381   8.233   7.887   6.288  0.6859 -1.8503 -0.0515
14601SOL    HW244382   8.378   7.914   6.252  0.6789 -1.3469  0.2814
14602SOL     OW44383   6.450   5.622   1.807 -0.0737  0.3175 -0.1456
14602SOL    HW144384   6.391   5.619   1.732 -1.8106  0.9933  1.1295
14602SOL    HW244385   6.479   5.532   1.819 -1.3868 -0.1632 -0.4265
14603SOL     OW44386   1.302   3.921   4.040 -0.5393 -0.2712 -0.1601
14603SOL    HW144387   1.243   3.991   4.011 -1.5790 -0.7618  0.7050
14603SOL    HW244388   1.371   3.967   4.089 -1.3702  0.1376  0.6553
14604SOL     OW44389   3.125   4.506   7.601  0.3831  0.7671  0.1590
14604SOL    HW144390   3.129   4.410   7.600  1.1367  0.7935 -0.6964
14604SOL    HW244391   3.053   4.528   7.543  0.9185  0.7338 -0.5299
14605SOL     OW44392   7.467   0.046   5.998  0.3496  0.0800 -0.0600
14605SOL    HW144393   7.495  -0.020   5.934 -2.6023 -1.6393  0.2252
14605SOL    HW244394   7.431   0.117   5.945  0.4698 -0.0650 -0.3406
14606SOL     OW44395   4.830   4.810   0.116  0.0573  0.2777  0.4652
14606SOL    HW144396   4.892   4.882   0.102  0.9535 -0.1670  1.8983
14606SOL    HW244397   4.882   4.731   0.105 -0.4020 -0.1195  1.0930
14607SOL     OW44398   2.033   5.624   1.806  0.0731  0.1097 -0.3716
14607SOL    HW144399   2.100   5.564   1.772  0.2082 -1.0709  1.7724
14607SOL    HW244400   1.993   5.576   1.879 -1.3604  1.7995  0.0214
14608SOL     OW44401   4.548   2.789   8.037  0.1483 -0.2775  0.3343
14608SOL    HW144402   4.501   2.869   8.012  0.1508 -0.4836 -0.3421
14608SOL    HW244403   4.484   2.739   8.087  0.1513  0.1564  0.7766
14609SOL     OW44404   5.407   7.022   8.860  0.8052 -0.3866  0.1616
14609SOL    HW144405   5.372   6.967   8.789 -0.2541 -0.8900  1.0488
14609SOL    HW244406   5.464   6.964   8.909  1.6182 -0.0092 -0.3205
14610SOL     OW44407   9.197   3.427   8.539  0.0121 -0.2144 -0.2761
14610SOL    HW144408   9.288   3.400   8.546  0.0158  0.0204  0.9752
14610SOL    HW244409   9.149   3.364   8.592 -0.1020  1.5331  1.8706
14611SOL     OW44410   5.454   6.364   2.902  0.4414  0.2949  0.3692
14611SOL    HW144411   5.547   6.385   2.906  0.3394  0.8793 -0.1510
14611SOL    HW244412   5.432   6.370   2.809  0.1636 -1.0933  0.3243
14612SOL     OW44413   3.627   8.116   1.394 -0.7161 -0.0770 -0.2599
14612SOL    HW144414   3.664   8.201   1.419  2.3919 -1.6240  1.0517
14612SOL    HW244415   3.615   8.121   1.300 -0.0772  1.6550 -0.2739
14613SOL     OW44416   9.389   9.950   6.724  0.4450 -0.9443 -0.5344
14613SOL    HW144417   9.306   9.955   6.771 -1.0644  1.3543 -3.1668
14613SOL    HW244418   9.434  10.031   6.747  0.6523 -0.8168 -1.3814
14614SOL     OW44419   9.799   1.684   1.301 -0.0703  0.2066 -0.1048
14614SOL    HW144420   9.889   1.670   1.269 -0.1180 -2.3713  0.6803
14614SOL    HW244421   9.755   1.601   1.284 -2.8202  1.8555 -1.8414
14615SOL     OW44422   3.466   9.267   4.984  0.0166 -0.2374 -0.2371
14615SOL    HW144423   3.465   9.179   5.023 -1.6639 -0.5664 -0.9633
14615SOL    HW244424   3.488   9.252   4.892  0.8574  0.2414 -0.1282
14616SOL     OW44425   7.620   6.871   1.479 -0.0309  0.2604  0.2495
14616SOL    HW144426   7.600   6.962   1.503 -0.0246  0.0674  1.0081
14616SOL    HW244427   7.674   6.879   1.401 -0.6926  0.8857 -0.1634
14617SOL     OW44428   1.230   2.351   3.515 -0.2054  0.3222  0.1269
14617SOL    HW144429   1.136   2.337   3.507 -0.1004 -0.7170  0.6132
14617SOL    HW244430   1.248   2.425   3.456 -1.2856  0.4005 -0.1227
14618SOL     OW44431   5.592   9.364   9.778  0.5218  0.0565 -0.4114
14618SOL    HW144432   5.562   9.359   9.688  0.1810  0.0739 -0.3009
14618SOL    HW244433   5.594   9.273   9.808 -1.4503  0.1947  0.2318
14619SOL     OW44434   0.440   5.891   7.355  0.4927  0.4463  0.4233
14619SOL    HW144435   0.357   5.856   7.323  0.6123 -0.7652  1.3364
14619SOL    HW244436   0.470   5.950   7.286 -0.2471 -0.4961 -0.7424
14620SOL     OW44437   1.117   0.763   5.486 -0.3020  0.7460  0.2720
14620SOL    HW144438   1.065   0.702   5.434  0.7256  0.3516 -0.3293
14620SOL    HW244439   1.183   0.708   5.529 -0.2764  1.2476  0.8863
14621SOL     OW44440   7.714   5.139   5.472 -0.1609 -0.8587  0.6061
14621SOL    HW144441   7.751   5.227   5.474 -1.5366 -0.2599  1.7052
14621SOL    HW244442   7.778   5.087   5.423  0.3841  0.8703 -0.6082
14622SOL     OW44443   8.041   7.343   7.161  0.4936  0.0570  0.5044
14622SOL    HW144444   8.086   7.271   7.116 -0.8261  0.0159 -0.8445
14622SOL    HW244445   8.051   7.418   7.102  1.5689  0.9101  1.7426
14623SOL     OW44446   8.419   1.419   2.926 -0.0254  0.1330  0.0951
14623SOL    HW144447   8.386   1.486   2.866  0.3183  2.0152  1.8958
14623SOL    HW244448   8.446   1.468   3.004  2.6945 -1.8162  0.5199
14624SOL     OW44449   8.961   8.368   3.181  0.0346 -0.4334 -0.4658
14624SOL    HW144450   8.916   8.448   3.208 -1.5687 -1.9346  1.7084
14624SOL    HW244451   9.007   8.392   3.101 -2.7384  1.8931 -1.5510
14625SOL     OW44452   4.961   3.042   3.564  0.2261 -0.2702  0.6153
14625SOL    HW144453   4.895   2.990   3.610 -0.0034 -0.3040  0.2521
14625SOL    HW244454   4.940   3.132   3.588  1.0740 -0.3780  1.8331
14626SOL     OW44455   2.789   4.320   5.397  0.3715  0.1709 -0.2483
14626SOL    HW144456   2.880   4.347   5.404  0.3469  0.3336 -0.5174
14626SOL    HW244457   2.792   4.226   5.382  0.5616  0.3970 -1.7838
14627SOL     OW44458   6.246   3.951   3.974 -0.9129  0.3652 -0.2950
14627SOL    HW144459   6.167   3.917   4.015 -0.8225  1.2517  0.6627
14627SOL    HW244460   6.265   4.031   4.023  0.9632 -0.1859 -0.0488
14628SOL     OW44461   3.016   3.453   9.467 -0.1763 -0.0223  0.2827
14628SOL    HW144462   3.022   3.499   9.383 -0.0251 -2.2796 -1.0189
14628SOL    HW244463   2.932   3.407   9.463 -1.1613  1.4587  2.3037
14629SOL     OW44464   7.626   1.689   9.859 -0.0802 -0.3587 -0.1231
14629SOL    HW144465   7.641   1.637   9.780 -0.4126  0.1772 -0.5477
14629SOL    HW244466   7.547   1.740   9.839  0.3422  0.4363  0.2178
14630SOL     OW44467   9.290   7.237   7.515 -0.3452  0.5770  0.0695
14630SOL    HW144468   9.233   7.161   7.506 -0.4060  0.8796 -4.1768
14630SOL    HW244469   9.232   7.313   7.509  0.0914  0.9546  0.4215
14631SOL     OW44470   1.994   6.032   8.702  0.0549  0.0759  0.1403
14631SOL    HW144471   1.952   5.952   8.670  0.7664 -0.6058  0.8625
14631SOL    HW244472   1.922   6.095   8.708 -0.4269 -0.3415 -0.9276
14632SOL     OW44473   6.293   0.257   4.132  0.8257 -0.3543  0.4634
14632SOL    HW144474   6.223   0.304   4.176 -1.0251  0.5203 -3.0850
14632SOL    HW244475   6.257   0.170   4.114  0.4708  0.1489 -1.5308
14633SOL     OW44476   2.468   0.983   1.970  0.0321 -0.4801  0.4986
14633SOL    HW144477   2.515   0.937   1.900 -1.5360 -2.3551  0.5773
14633SOL    HW244478   2.514   0.958   2.050  0.3601 -0.3152  0.3648
14634SOL     OW44479   8.840   3.920   3.383 -0.0460  0.1999  0.1798
14634SOL    HW144480   8.790   3.942   3.462 -2.5562 -0.5009 -1.1017
14634SOL    HW244481   8.890   3.842   3.408 -0.0062  0.5795  1.3584
14635SOL     OW44482   9.015   6.498   5.652 -0.0140  0.0263 -0.1742
14635SOL    HW144483   8.960   6.502   5.730 -1.2724  1.4743 -1.0813
14635SOL    HW244484   9.013   6.406   5.626 -2.8710  0.1488 -0.7129
14636SOL     OW44485   9.738   2.397   0.179 -0.2057 -0.3399 -0.2236
14636SOL    HW144486   9.650   2.385   0.213 -0.0518  1.3940  0.8912
14636SOL    HW244487   9.796   2.374   0.251  0.2356 -0.4071 -0.5901
14637SOL     OW44488   5.684   9.703   2.234 -0.0387 -0.5686  0.1633
14637SOL    HW144489   5.713   9.612   2.246 -1.5771 -0.8681  2.1097
14637SOL    HW244490   5.732   9.752   2.301 -1.4208 -0.5051  1.1494
14638SOL     OW44491   6.979   8.167   5.434  0.5759  0.0478  0.0696
14638SOL    HW144492   6.983   8.225   5.358 -0.0775  1.7532  1.2537
14638SOL    HW244493   6.946   8.084   5.400  0.8061  0.5935 -1.5712
14639SOL     OW44494   2.208   9.503   8.194 -0.2897  0.8613  0.0610
14639SOL    HW144495   2.204   9.487   8.288  0.9754  0.0631  0.0052
14639SOL    HW244496   2.200   9.417   8.154  0.2631  1.0689 -0.5159
14640SOL     OW44497   0.080   0.076   7.262 -0.3754  0.5519  0.0146
14640SOL    HW144498   0.069  -0.001   7.206  0.1450 -0.2366  0.9844
14640SOL    HW244499   0.010   0.136   7.233 -1.9692 -1.0148  0.4625
14641SOL     OW44500   4.130   4.453   5.768 -0.4808 -0.0359 -0.3225
14641SOL    HW144501   4.204   4.411   5.811  0.1368 -1.3268 -2.4708
14641SOL    HW244502   4.113   4.398   5.691 -1.6186  1.9862 -1.6062
14642SOL     OW44503   0.868   1.258   9.609  0.0361 -0.2785  0.9241
14642SOL    HW144504   0.926   1.230   9.680  0.7257  0.4089  0.6463
14642SOL    HW244505   0.904   1.341   9.579 -2.2747  1.2635  2.1211
14643SOL     OW44506   3.173   5.506   3.220 -0.2116 -0.3451  0.2429
14643SOL    HW144507   3.254   5.526   3.174 -1.0057  0.9775 -0.6576
14643SOL    HW244508   3.166   5.572   3.288 -0.4282 -0.5773  0.4498
14644SOL     OW44509   6.938   6.452   5.727 -0.1840 -0.7312 -0.5251
14644SOL    HW144510   6.860   6.472   5.780 -0.5983 -1.3318 -0.9004
14644SOL    HW244511   6.960   6.362   5.750  0.3562 -0.5924 -0.4876
14645SOL     OW44512   9.545   8.757   3.001  0.5022  0.3304 -0.3376
14645SOL    HW144513   9.640   8.746   3.011  0.2405 -0.3565  1.8787
14645SOL    HW244514   9.516   8.677   2.957  0.6880 -0.5988  1.1520
14646SOL     OW44515   4.605   3.603   3.212  0.5781  0.1847 -0.2206
14646SOL    HW144516   4.669   3.674   3.221 -0.0013  0.6842 -0.0287
14646SOL    HW244517   4.534   3.641   3.161  0.9462 -0.7195 -1.4501
14647SOL     OW44518   0.039   1.491   7.452  0.4240  0.3041 -0.2768
14647SOL    HW144519  -0.037   1.540   7.483  0.3962  0.4025 -0.4968
14647SOL    HW244520   0.050   1.519   7.361  2.0195  1.9290  0.3387
14648SOL     OW44521   5.240   8.407   0.376 -0.1561 -0.8010  0.2489
14648SOL    HW144522   5.278   8.435   0.293  1.4644  0.5624  1.3783
14648SOL    HW244523   5.233   8.312   0.368  0.5526 -0.7596 -1.2150
14649SOL     OW44524   7.818   4.379   8.626  0.2382  0.3578 -0.6247
14649SOL    HW144525   7.760   4.372   8.702  0.4208  2.5914 -0.1887
14649SOL    HW244526   7.903   4.351   8.658 -0.2920 -1.7250 -0.9178
14650SOL     OW44527   8.239   2.431   5.601 -0.4674  0.7168 -0.0691
14650SOL    HW144528   8.211   2.383   5.523 -1.6994  2.5259 -0.8175
14650SOL    HW244529   8.216   2.522   5.582  0.5399  1.4174  1.8332
14651SOL     OW44530   6.594   1.981   0.288  0.6343  0.4450  0.0978
14651SOL    HW144531   6.673   1.930   0.268  0.8363  0.7805  0.0267
14651SOL    HW244532   6.596   2.052   0.224 -0.0710  0.0891 -0.3250
14652SOL     OW44533   6.504   2.424   1.997  0.1667  0.6239 -0.3100
14652SOL    HW144534   6.560   2.499   2.018  1.2210 -0.1249 -0.3417
14652SOL    HW244535   6.477   2.389   2.082  1.1593 -0.0223 -0.2438
14653SOL     OW44536   9.491   6.932   8.878  0.1484 -0.1407 -0.3210
14653SOL    HW144537   9.562   6.916   8.816  1.3700  0.4378  0.8880
14653SOL    HW244538   9.512   6.877   8.953 -1.6354 -1.2920 -0.6056
14654SOL     OW44539   9.669   0.825   8.348  0.3856 -0.1290  0.0807
14654SOL    HW144540   9.651   0.918   8.330 -0.3905 -0.2541  0.1888
14654SOL    HW244541   9.764   0.820   8.351  0.4358  0.8287  0.8999
14655SOL     OW44542   3.026   1.526   6.961  0.2561  0.0725  1.0042
14655SOL    HW144543   3.065   1.539   7.047  0.6494 -1.4000  1.0765
14655SOL    HW244544   3.094   1.551   6.899  0.0921  0.8025  1.1123
14656SOL     OW44545   4.074   6.111   4.049  0.6025 -0.0791 -0.0589
14656SOL    HW144546   4.078   6.199   4.013  0.9647 -0.1351 -0.1593
14656SOL    HW244547   4.075   6.053   3.972  1.1788 -0.1935  0.0308
14657SOL     OW44548   7.472   5.466   2.675 -0.5098  0.1921 -0.4041
14657SOL    HW144549   7.413   5.459   2.750  1.6606  2.0465  1.6524
14657SOL    HW244550   7.458   5.554   2.642  0.9149  0.6133  0.0328
14658SOL     OW44551   0.054   3.949   7.001 -0.4397 -0.1788 -0.0294
14658SOL    HW144552   0.013   3.893   7.067  1.7421 -1.6710  0.1655
14658SOL    HW244553   0.126   3.993   7.047 -2.2573  3.1944 -0.0922
14659SOL     OW44554   1.891   8.019   5.324  0.6396  0.5553  0.0080
14659SOL    HW144555   1.849   7.964   5.257  0.9985  1.8336 -1.3120
14659SOL    HW244556   1.886   8.108   5.289  2.8368  0.9874  0.6394
14660SOL     OW44557   8.742   3.392   3.704  0.8096  0.5816 -0.3318
14660SOL    HW144558   8.709   3.304   3.685 -0.3163  0.5041  1.7233
14660SOL    HW244559   8.679   3.451   3.662  0.0344  0.4002  0.5467
14661SOL     OW44560   2.116   2.011   3.515 -0.1142 -0.3760  0.5414
14661SOL    HW144561   2.123   2.000   3.609  3.1291 -2.6571  0.2193
14661SOL    HW244562   2.179   2.080   3.494 -2.8167  2.1548  0.1718
14662SOL     OW44563   0.255   9.429   9.011  0.1819  0.4819  0.3699
14662SOL    HW144564   0.230   9.461   9.098 -2.0750 -1.9203  0.7415
14662SOL    HW244565   0.329   9.371   9.027 -0.3606 -0.1184  0.7590
14663SOL     OW44566   5.430   2.691   1.321  0.4216 -0.0557 -0.3640
14663SOL    HW144567   5.399   2.752   1.388  2.3423 -0.6378  1.1469
14663SOL    HW244568   5.409   2.604   1.355  0.1830 -0.3222 -1.1777
14664SOL     OW44569   0.427   4.401   6.909  0.1873  0.0463 -0.2251
14664SOL    HW144570   0.420   4.451   6.828  0.4625  0.9061  0.2803
14664SOL    HW244571   0.367   4.445   6.970  0.3768 -0.2809  0.2026
14665SOL     OW44572   1.201   2.146   6.604  0.4577  0.4560  0.2645
14665SOL    HW144573   1.288   2.107   6.610 -0.5175 -1.8339  0.4058
14665SOL    HW244574   1.156   2.117   6.684 -0.6595  1.0716 -0.1114
14666SOL     OW44575   1.054   3.392   1.275 -0.2323 -0.0861 -0.2367
14666SOL    HW144576   1.019   3.478   1.296  0.8003 -0.1033  1.7856
14666SOL    HW244577   1.056   3.346   1.359  1.6561 -1.1701 -0.8198
14667SOL     OW44578   6.287   2.620   5.031 -0.1389  0.3647  0.2189
14667SOL    HW144579   6.338   2.701   5.041  0.3306 -0.2232  4.0121
14667SOL    HW244580   6.212   2.631   5.090  0.0508 -2.0122  1.0061
14668SOL     OW44581   5.094   9.293   2.192 -0.8544  0.3676 -0.5627
14668SOL    HW144582   5.067   9.384   2.178  0.7979  0.5651 -2.9988
14668SOL    HW244583   5.168   9.299   2.252 -1.7082  0.4212  0.5396
14669SOL     OW44584   7.724   4.351   9.787  0.2086  0.3119 -0.3071
14669SOL    HW144585   7.667   4.415   9.745 -0.1833 -0.7053 -1.3686
14669SOL    HW244586   7.797   4.403   9.822 -0.5951  1.4415 -0.2481
14670SOL     OW44587   5.224   0.900   4.943 -0.1525  0.0537 -0.4862
14670SOL    HW144588   5.165   0.918   4.871 -1.5137  0.3451  0.6621
14670SOL    HW244589   5.188   0.821   4.984 -0.3018  0.7569  0.7774
14671SOL     OW44590   1.175   4.174   8.535  0.1667  1.4776  0.4279
14671SOL    HW144591   1.163   4.080   8.521 -1.2660  1.5426  1.0706
14671SOL    HW244592   1.268   4.184   8.556  0.7588  0.4524 -1.4340
14672SOL     OW44593   9.260   9.788   4.105 -0.0450 -0.2813 -0.1770
14672SOL    HW144594   9.170   9.766   4.127 -0.3732  1.1283 -0.0471
14672SOL    HW244595   9.259   9.882   4.089  1.5439 -0.1109  0.5233
14673SOL     OW44596   9.983   1.099   1.791  1.0352 -0.0856 -0.3033
14673SOL    HW144597   9.927   1.139   1.856  0.4874 -1.0108 -0.1945
14673SOL    HW244598   9.947   1.011   1.777  1.5569 -0.1651 -1.3270
14674SOL     OW44599   9.599   6.081   3.141  0.3693 -0.5800  0.3604
14674SOL    HW144600   9.576   6.155   3.197 -0.0355 -0.4921  0.0878
14674SOL    HW244601   9.515   6.048   3.109  0.6156 -0.2308 -0.6946
14675SOL     OW44602   7.542   2.117   5.514  0.1056  0.4798 -0.0547
14675SOL    HW144603   7.484   2.153   5.447  0.3829  0.5065 -0.2853
14675SOL    HW244604   7.602   2.060   5.465 -0.6168 -0.6743  0.3600
14676SOL     OW44605   9.439   8.290   5.915  0.2693 -0.1214  0.2628
14676SOL    HW144606   9.440   8.269   6.008  0.5541  1.9213  0.7664
14676SOL    HW244607   9.415   8.382   5.911 -0.7722 -0.4134 -1.7622
14677SOL     OW44608   7.597   3.061   4.727  0.1920  0.2104 -0.6058
14677SOL    HW144609   7.688   3.083   4.707 -0.2446  1.2988 -1.4696
14677SOL    HW244610   7.551   3.145   4.728 -0.5309 -0.1599  1.3924
14678SOL     OW44611   5.158   9.630   8.202  0.3879  0.1765 -0.2093
14678SOL    HW144612   5.101   9.643   8.278  1.3749 -1.3347  0.8675
14678SOL    HW244613   5.220   9.703   8.206  0.4208  0.1194  0.4448
14679SOL     OW44614   9.850   0.572   3.326  0.3881  0.7972  0.1680
14679SOL    HW144615   9.815   0.580   3.415  0.1334 -0.6498  0.2174
14679SOL    HW244616   9.838   0.659   3.288 -0.3649  1.1845  1.2325
14680SOL     OW44617   0.767   1.816   5.902  0.4209 -0.1703 -0.1011
14680SOL    HW144618   0.852   1.776   5.924  0.5059 -0.4035 -0.8163
14680SOL    HW244619   0.704   1.770   5.958  0.5465 -1.1781 -0.7593
14681SOL     OW44620   0.721   2.010   7.214 -0.1541  0.3025 -0.2592
14681SOL    HW144621   0.629   1.988   7.226 -0.0621 -1.4739 -2.2142
14681SOL    HW244622   0.761   2.000   7.300 -1.9233  2.1250  0.8569
14682SOL     OW44623   2.789   4.488   4.623 -0.6123  0.4558  0.5134
14682SOL    HW144624   2.867   4.541   4.646 -0.0428 -0.7875  1.5789
14682SOL    HW244625   2.740   4.543   4.562  1.9706  0.6155 -1.6152
14683SOL     OW44626   9.433   1.314   9.033 -0.2619  0.0995  0.1103
14683SOL    HW144627   9.365   1.333   8.969  0.2255  0.9834 -0.1563
14683SOL    HW244628   9.498   1.383   9.020  1.7660 -1.9119 -1.1426
14684SOL     OW44629   1.828   4.719   0.125  0.5951  0.1241  0.5712
14684SOL    HW144630   1.798   4.789   0.066  0.8138 -0.9638 -0.8831
14684SOL    HW244631   1.748   4.675   0.153  0.5428  0.1483  0.4610
14685SOL     OW44632   8.932   0.813   7.568  0.0082  0.4155 -0.4839
14685SOL    HW144633   8.979   0.860   7.499  0.6169 -0.9938 -1.0697
14685SOL    HW244634   9.000   0.794   7.633 -0.3466  0.8075  0.0067
14686SOL     OW44635   8.642   7.554   5.687 -0.1069 -0.1788 -0.1633
14686SOL    HW144636   8.623   7.460   5.687 -2.1864  0.1973  0.0846
14686SOL    HW244637   8.557   7.595   5.699  0.7998  1.7500 -0.0756
14687SOL     OW44638   2.248   2.016   9.380  0.6688  0.3307 -0.1008
14687SOL    HW144639   2.180   1.950   9.365  0.7134 -0.6246  3.1359
14687SOL    HW244640   2.199   2.094   9.407  0.7089 -0.6157  3.1076
14688SOL     OW44641   9.341   2.601   6.773  0.1698 -0.4998 -0.7231
14688SOL    HW144642   9.292   2.643   6.702 -2.7983 -1.9029  0.3204
14688SOL    HW244643   9.354   2.670   6.838  1.1090  0.2941 -1.7220
14689SOL     OW44644   1.439   8.485   7.875  0.2107  0.1347 -0.2660
14689SOL    HW144645   1.471   8.395   7.884 -0.9516 -0.5584 -2.3207
14689SOL    HW244646   1.498   8.525   7.811  0.3215  0.6401  0.1446
14690SOL     OW44647   1.289   7.578   6.824  0.3651 -0.7993 -0.0752
14690SOL    HW144648   1.270   7.558   6.915 -1.6754  0.9838 -0.0444
14690SOL    HW244649   1.210   7.621   6.791  1.4613 -0.3711 -2.3674
14691SOL     OW44650   4.580   8.410   1.859 -0.3746 -0.3572 -0.5546
14691SOL    HW144651   4.557   8.380   1.947 -1.9919  0.7258 -0.5625
14691SOL    HW244652   4.676   8.412   1.858 -0.3132  1.3335  1.8059
14692SOL     OW44653   0.044   8.869   1.620  0.0779 -0.1913 -0.9425
14692SOL    HW144654   0.137   8.871   1.641  0.8397 -1.0578 -3.8664
14692SOL    HW244655   0.017   8.960   1.620  0.3553 -0.0276  1.8952
14693SOL     OW44656   4.048   7.288   4.908  0.0555  0.1875 -0.0015
14693SOL    HW144657   3.965   7.316   4.948 -0.3238  0.3801 -0.8976
14693SOL    HW244658   4.115   7.316   4.971 -0.6441 -1.8790  1.8058
14694SOL     OW44659   6.904   4.568   0.136  0.8008 -0.2470 -0.1743
14694SOL    HW144660   6.865   4.524   0.212  1.7546  0.1376  0.5635
14694SOL    HW244661   6.829   4.595   0.083  0.1614 -1.7898 -0.1013
14695SOL     OW44662   4.949   5.182   1.564  0.0732  0.6226 -0.4161
14695SOL    HW144663   4.907   5.141   1.488 -1.1471  0.3359  0.4018
14695SOL    HW244664   5.040   5.193   1.537  0.4030 -2.3123 -0.7998
14696SOL     OW44665   0.162   6.591   3.164 -0.1876 -0.3929  0.1660
14696SOL    HW144666   0.121   6.510   3.135 -3.4473  1.2433 -0.2255
14696SOL    HW244667   0.190   6.634   3.083  0.6221 -0.6585  0.2996
14697SOL     OW44668   9.152   5.742   4.165 -0.3921  0.0581  0.1951
14697SOL    HW144669   9.106   5.658   4.169  0.8640 -0.6857 -0.1230
14697SOL    HW244670   9.174   5.762   4.256  0.5034 -0.6897  0.1662
14698SOL     OW44671   0.051   8.929   3.827 -0.3441 -0.1058 -0.1896
14698SOL    HW144672   0.098   8.872   3.887  0.9464  0.8617 -0.2359
14698SOL    HW244673  -0.034   8.886   3.814 -0.7066 -0.3209  2.3605
14699SOL     OW44674   5.947   6.326   2.252 -0.4458  0.0223  0.0437
14699SOL    HW144675   5.961   6.314   2.346  0.3581 -0.1241 -0.0901
14699SOL    HW244676   5.926   6.238   2.219 -0.3616  0.0108  0.0216
14700SOL     OW44677   7.013   3.900   2.962  0.0314  0.0772  0.3876
14700SOL    HW144678   7.055   3.951   3.030 -1.2309  0.7824  0.6672
14700SOL    HW244679   6.998   3.962   2.891  2.7460 -0.9737 -1.2516
14701SOL     OW44680   2.013   8.504   0.834  0.2953  0.5451 -0.1534
14701SOL    HW144681   1.925   8.519   0.868  0.4813  0.9919  0.1412
14701SOL    HW244682   2.000   8.485   0.741 -0.0395  1.5903 -0.3354
14702SOL     OW44683   0.242   8.234   8.194  0.3516 -0.3949  0.2170
14702SOL    HW144684   0.311   8.199   8.138 -0.8311  0.0608 -1.6037
14702SOL    HW244685   0.162   8.189   8.165 -0.2753 -0.3358  1.7344
14703SOL     OW44686   6.193   8.609   1.299 -0.5020 -0.3538  0.5105
14703SOL    HW144687   6.241   8.551   1.239  0.8658  0.6471  0.5877
14703SOL    HW244688   6.107   8.620   1.259  0.3272  0.1559 -1.1999
14704SOL     OW44689   5.559   1.990   2.798  0.0219 -0.7146  0.6760
14704SOL    HW144690   5.600   2.071   2.829  0.1935 -0.2139 -0.7889
14704SOL    HW244691   5.572   1.991   2.703 -0.0427 -2.4333  0.6161
14705SOL     OW44692   9.273   1.378   9.436  0.3326  0.2276  0.1796
14705SOL    HW144693   9.317   1.453   9.394  0.9995 -0.2780 -0.0444
14705SOL    HW244694   9.200   1.417   9.484  0.0977  0.9190 -0.7094
14706SOL     OW44695   8.390   8.903   0.951 -0.0974  0.0221  0.4850
14706SOL    HW144696   8.425   8.922   0.864 -2.8050 -0.3099 -0.7884
14706SOL    HW244697   8.363   8.988   0.985  2.4593  0.3887  1.8029
14707SOL     OW44698   0.517   5.918   5.659 -0.1758 -0.3357  0.3125
14707SOL    HW144699   0.436   5.932   5.707  1.3906  1.2816  2.7279
14707SOL    HW244700   0.490   5.876   5.577 -3.1490 -2.0616  2.0274
14708SOL     OW44701   9.500   5.268   9.611 -0.5475  0.1051  0.7913
14708SOL    HW144702   9.419   5.272   9.662  0.0430 -0.1749  1.7944
14708SOL    HW244703   9.515   5.358   9.582 -1.1290  0.1905  0.7515
14709SOL     OW44704   6.762   6.137   0.552  0.3126 -0.0938  0.2760
14709SOL    HW144705   6.797   6.076   0.487 -2.1522  0.3074 -1.5634
14709SOL    HW244706   6.739   6.215   0.501 -2.4264 -0.0506  1.4301
14710SOL     OW44707   3.471   7.607   3.165 -0.0237 -0.5890  0.6487
14710SOL    HW144708   3.534   7.656   3.217 -0.8501  1.1097  0.1283
14710SOL    HW244709   3.386   7.634   3.198 -0.5788  0.5962 -1.5354
14711SOL     OW44710   5.023   5.191   0.329  0.1879  0.5558  0.4776
14711SOL    HW144711   5.071   5.141   0.262  1.7948  2.1346  0.3724
14711SOL    HW244712   5.078   5.268   0.345 -2.4064  2.6153  0.2195
14712SOL     OW44713   8.772   0.071   5.959  0.5343 -0.1901 -0.5331
14712SOL    HW144714   8.774   0.091   5.865 -2.4570 -2.2441 -1.1880
14712SOL    HW244715   8.691   0.022   5.971  0.6164  0.3158  3.2424
14713SOL     OW44716   7.134   5.176   1.360  0.9109 -0.4688  0.7836
14713SOL    HW144717   7.046   5.142   1.344  1.9236 -3.0735  0.2415
14713SOL    HW244718   7.146   5.166   1.455  0.7157 -0.4034  0.8149
14714SOL     OW44719   7.945   0.332   6.244  0.6496 -0.0046 -0.3326
14714SOL    HW144720   8.016   0.281   6.282 -0.5512 -1.1671  0.4695
14714SOL    HW244721   7.987   0.389   6.180  2.1402 -1.5623 -0.8199
14715SOL     OW44722   6.405   6.571   2.853 -0.8594  0.9715 -0.4085
14715SOL    HW144723   6.368   6.483   2.843 -1.9198  1.4045 -0.3591
14715SOL    HW244724   6.395   6.591   2.946  2.0153  0.0221  0.2008
14716SOL     OW44725   4.098   9.182   6.725  0.4210  0.7121 -0.4537
14716SOL    HW144726   4.176   9.181   6.780  0.1511  0.1088 -0.0658
14716SOL    HW244727   4.124   9.134   6.646  0.5027  0.6827 -0.4095
14717SOL     OW44728   9.473   9.701   9.751 -0.2624 -0.6998 -0.1751
14717SOL    HW144729   9.405   9.634   9.760 -0.1375 -0.9245 -0.8466
14717SOL    HW244730   9.428   9.783   9.770 -1.5246 -0.4787 -3.4501
14718SOL     OW44731   3.665   4.331   9.443 -0.4029  0.4065 -0.2470
14718SOL    HW144732   3.706   4.265   9.387  0.3090  0.3739  0.2993
14718SOL    HW244733   3.605   4.283   9.499  0.1410  0.2065  0.1756
14719SOL     OW44734   1.051   5.357   9.139 -0.2843 -0.2444 -0.1933
14719SOL    HW144735   1.119   5.371   9.205  0.4023  0.3962 -1.0116
14719SOL    HW244736   1.079   5.280   9.091 -0.0506  0.1109 -0.6308
14720SOL     OW44737   1.278   9.697   5.976 -0.3203 -0.6120  0.5355
14720SOL    HW144738   1.240   9.645   5.905 -1.7662 -1.9474  2.2047
14720SOL    HW244739   1.227   9.779   5.975  0.5627 -0.0425 -0.7639
14721SOL     OW44740   8.880   7.875   1.434 -0.1813 -0.9974 -0.2314
14721SOL    HW144741   8.948   7.916   1.487 -0.2714 -0.1264 -0.7559
14721SOL    HW244742   8.800   7.887   1.484 -0.2953 -0.0148 -0.6253
14722SOL     OW44743   9.279   8.912   5.408 -0.1923 -0.0064 -0.3263
14722SOL    HW144744   9.225   8.988   5.385  0.2683 -0.3361 -2.6767
14722SOL    HW244745   9.354   8.918   5.350  0.8143 -1.2280  0.8185
14723SOL     OW44746   5.186   8.362   7.951  0.4376 -0.5457 -0.3262
14723SOL    HW144747   5.247   8.392   8.019 -0.2301  0.7422 -0.2576
14723SOL    HW244748   5.099   8.374   7.990  0.0635 -0.2416 -1.2355
14724SOL     OW44749   4.274   2.079   0.146  0.3403  0.1780 -0.2881
14724SOL    HW144750   4.306   2.007   0.091 -1.2759  0.2406 -1.3788
14724SOL    HW244751   4.263   2.040   0.232  0.2832 -0.6773 -0.6682
14725SOL     OW44752   5.107   0.204   8.080  0.2706 -0.1149  0.0760
14725SOL    HW144753   5.063   0.195   8.164 -1.2872 -0.0882 -0.6853
14725SOL    HW244754   5.163   0.127   8.073  0.8260  0.1553  1.3441
14726SOL     OW44755   6.093   0.633   6.827  0.2775  0.4754  0.2734
14726SOL    HW144756   6.144   0.595   6.898 -0.0153 -0.6418 -0.1001
14726SOL    HW244757   6.023   0.682   6.871  0.0923 -0.2114  0.7648
14727SOL     OW44758   0.267   1.474   7.599  0.0519  0.4507 -0.4696
14727SOL    HW144759   0.181   1.486   7.559 -0.1412  0.0245 -0.1936
14727SOL    HW244760   0.257   1.507   7.688 -0.2254 -0.8485  0.0013
14728SOL     OW44761   2.728   7.051   7.191  0.4951 -0.9191  0.2368
14728SOL    HW144762   2.633   7.060   7.195  0.5429 -0.9178  1.4848
14728SOL    HW244763   2.746   7.038   7.097 -0.8579 -2.3767  0.1372
14729SOL     OW44764   1.141   1.399   5.517 -0.3302 -0.2930 -0.3144
14729SOL    HW144765   1.140   1.490   5.548  3.2229 -0.5404  0.9101
14729SOL    HW244766   1.151   1.407   5.422  0.8634  0.6686 -0.1401
14730SOL     OW44767   0.060   0.138   1.865 -0.0024 -0.0561 -0.1612
14730SOL    HW144768   0.126   0.184   1.918 -1.1162 -0.6967  1.9074
14730SOL    HW244769   0.032   0.203   1.801  2.5022  0.2689 -1.0437
14731SOL     OW44770   0.552   6.742   4.668 -0.4517  0.0104  0.3552
14731SOL    HW144771   0.460   6.714   4.668 -0.6895  0.7657  0.7664
14731SOL    HW244772   0.548   6.837   4.659  0.2487  0.1693  1.4676
14732SOL     OW44773   2.410   5.793   7.258  0.4423  0.0687 -0.1622
14732SOL    HW144774   2.448   5.878   7.279 -0.0060 -0.0172  1.0702
14732SOL    HW244775   2.464   5.730   7.306  0.0684 -0.2362 -0.1391
14733SOL     OW44776   2.480   9.314   8.623  0.1632  0.2090 -0.5456
14733SOL    HW144777   2.475   9.223   8.653  0.6698  0.3910  0.1111
14733SOL    HW244778   2.455   9.366   8.700  0.0979  0.6302 -0.8511
14734SOL     OW44779   3.950   9.620   7.571  0.1291  0.2337  0.4264
14734SOL    HW144780   3.867   9.583   7.600 -0.8672  0.4070 -1.9952
14734SOL    HW244781   3.929   9.710   7.547  0.4144 -0.3375 -2.3384
14735SOL     OW44782   4.215   0.600   8.024 -0.1799  0.1545  0.0674
14735SOL    HW144783   4.221   0.694   8.041 -1.6329  0.1878  0.5400
14735SOL    HW244784   4.136   0.590   7.970  0.8651 -0.6373 -1.3851
14736SOL     OW44785   4.057   8.054   5.051 -0.1013  0.2168 -0.0734
14736SOL    HW144786   4.052   7.989   4.981 -0.2101 -1.4078  1.3797
14736SOL    HW244787   3.969   8.055   5.090  0.0996  0.7117  0.3863
14737SOL     OW44788   8.955   9.728   5.293  0.2958  0.5600  0.0970
14737SOL    HW144789   8.881   9.778   5.257  0.9271  0.3528 -1.6006
14737SOL    HW244790   8.969   9.658   5.229 -0.2391 -1.5304  2.1454
14738SOL     OW44791   0.475   2.172   1.866 -0.1821  0.1110  0.1385
14738SOL    HW144792   0.424   2.161   1.786 -0.4874  3.3448 -0.2483
14738SOL    HW244793   0.412   2.156   1.937 -0.8558  0.6915 -0.3142
14739SOL     OW44794   9.772   1.251   3.919  0.2344 -0.3466  0.0968
14739SOL    HW144795   9.770   1.216   3.830  0.2449  0.0903 -0.0790
14739SOL    HW244796   9.743   1.179   3.974 -0.2219 -0.4782 -0.3093
14740SOL     OW44797   9.423   7.727   6.763  0.2634 -0.8064  0.1054
14740SOL    HW144798   9.345   7.755   6.811  1.0855  0.7042  0.6296
14740SOL    HW244799   9.456   7.651   6.812  2.0225  1.6381  3.1161
14741SOL     OW44800   9.126   3.454   3.184  0.0247  0.2848  0.3015
14741SOL    HW144801   9.144   3.453   3.090  1.3593  0.7930  0.5299
14741SOL    HW244802   9.035   3.484   3.190 -0.8605 -1.8909 -0.8942
14742SOL     OW44803   9.869   9.006   9.243  0.6212 -0.1296  0.4347
14742SOL    HW144804   9.922   8.941   9.198  0.2274 -0.1438 -0.0199
14742SOL    HW244805   9.826   8.958   9.314  0.0551 -0.4532 -0.1168
14743SOL     OW44806   7.405   2.705   9.478 -0.0789 -0.6579  0.6425
14743SOL    HW144807   7.431   2.633   9.421  0.5170 -0.7342  1.0032
14743SOL    HW244808   7.465   2.699   9.553  1.0891  1.1778 -0.0628
14744SOL     OW44809   4.746   2.363   8.598 -0.1274 -0.5836  0.1975
14744SOL    HW144810   4.817   2.386   8.538 -0.5723  0.5958  0.1047
14744SOL    HW244811   4.772   2.400   8.682 -1.2548  1.1112 -0.1539
14745SOL     OW44812   4.884   0.454   2.751 -0.1459  0.2178  0.1181
14745SOL    HW144813   4.953   0.390   2.771 -0.8826 -0.5873  0.1733
14745SOL    HW244814   4.895   0.474   2.658 -0.1256 -0.2728  0.0121
14746SOL     OW44815   9.122   1.526   6.723  0.0351  0.2793  0.2009
14746SOL    HW144816   9.080   1.535   6.638 -1.2968  0.0367  0.8047
14746SOL    HW244817   9.213   1.554   6.708 -0.0924 -0.0296 -1.3414
14747SOL     OW44818   6.174   3.345   6.595 -0.2046 -0.2173  0.3797
14747SOL    HW144819   6.127   3.397   6.530  0.3477  0.0395  0.1753
14747SOL    HW244820   6.261   3.332   6.556  0.5573  0.9949  1.5961
14748SOL     OW44821   0.048   1.135   6.118 -0.7532 -0.4725 -0.7429
14748SOL    HW144822   0.038   1.200   6.187  0.8148 -0.8613 -0.1296
14748SOL    HW244823   0.020   1.181   6.038  1.0197  1.2195 -0.4521
14749SOL     OW44824   4.689   9.687   8.189  0.6946  0.1776  0.7054
14749SOL    HW144825   4.687   9.712   8.096 -0.5584 -0.4997  0.5318
14749SOL    HW244826   4.674   9.769   8.236 -0.9528  0.1799  0.2264
14750SOL     OW44827   9.176   5.628   0.898 -0.3481  0.0373 -0.6374
14750SOL    HW144828   9.210   5.687   0.966  0.2497 -0.2761 -0.6514
14750SOL    HW244829   9.216   5.544   0.919 -0.8018 -0.2433 -0.9110
14751SOL     OW44830   1.997   1.847   9.766 -0.0302 -0.4657 -0.1712
14751SOL    HW144831   1.972   1.885   9.850 -0.5645 -1.3944  0.1059
14751SOL    HW244832   1.914   1.820   9.725  0.3445 -1.7285 -0.1453
14752SOL     OW44833   6.148   7.003   7.340  0.0878  0.3566 -0.2271
14752SOL    HW144834   6.161   7.056   7.418  0.0463  1.5803 -1.0259
14752SOL    HW244835   6.059   6.969   7.349 -0.3039  1.3400 -0.2215
14753SOL     OW44836   0.689   1.198   3.221  0.1938  0.4009  0.3382
14753SOL    HW144837   0.673   1.234   3.133 -0.4847  2.1131  1.1304
14753SOL    HW244838   0.759   1.134   3.207 -1.0455 -0.6501 -1.7308
14754SOL     OW44839   5.515   7.488   6.220  0.3059 -0.3640 -0.4831
14754SOL    HW144840   5.498   7.533   6.303  0.0954  0.0699 -0.7563
14754SOL    HW244841   5.602   7.450   6.231  0.7770  0.6723 -0.4756
14755SOL     OW44842   4.199   9.969   4.976 -0.8935 -0.0367 -0.0464
14755SOL    HW144843   4.117   9.989   5.021 -1.8957 -1.9431 -0.9157
14755SOL    HW244844   4.176   9.964   4.883 -0.0700 -1.6660 -0.2113
14756SOL     OW44845   0.284   9.064   3.544 -0.3338 -0.4015  0.3239
14756SOL    HW144846   0.327   9.063   3.458 -2.0453 -0.9986 -0.5668
14756SOL    HW244847   0.279   9.156   3.567  2.2631 -0.3372  0.9368
14757SOL     OW44848   4.110   5.465   1.198 -0.0611 -0.4540  0.0277
14757SOL    HW144849   4.169   5.467   1.274  0.7592 -0.1329 -0.6061
14757SOL    HW244850   4.083   5.374   1.190  0.1039 -0.5450  0.5049
14758SOL     OW44851   0.132   5.862   0.664  0.3090  0.3580 -0.2217
14758SOL    HW144852   0.040   5.889   0.660  0.3980  0.7207  0.1941
14758SOL    HW244853   0.139   5.810   0.744  0.2413 -0.5486 -0.7802
14759SOL     OW44854   4.120   1.469   3.754  0.1612 -0.8471 -0.3755
14759SOL    HW144855   4.036   1.500   3.786  1.0683  0.4483  0.9030
14759SOL    HW244856   4.118   1.485   3.659  0.1398  2.2349  0.0515
14760SOL     OW44857   5.829   1.967   7.897  0.1343  0.3598  0.4014
14760SOL    HW144858   5.910   2.011   7.923  0.0073  0.7896  0.0951
14760SOL    HW244859   5.808   2.005   7.811  1.5152 -2.2521 -1.2548
14761SOL     OW44860   0.453   6.578   1.942 -0.7563  0.0721  0.4876
14761SOL    HW144861   0.429   6.590   1.850 -0.2605  0.5336  0.4098
14761SOL    HW244862   0.491   6.490   1.945  0.3771  0.5186 -0.0171
14762SOL     OW44863   1.304   3.269   1.998  0.6947  0.2789  0.0406
14762SOL    HW144864   1.238   3.264   2.067 -0.4160 -1.6071 -1.0921
14762SOL    HW244865   1.277   3.203   1.934  2.1578  1.3869 -1.8028
14763SOL     OW44866   8.013   0.190   8.628 -0.0693 -0.0780  0.5504
14763SOL    HW144867   7.949   0.197   8.558 -0.4978 -1.3701  0.7921
14763SOL    HW244868   7.963   0.165   8.706  0.5714  0.0344  1.0139
14764SOL     OW44869   3.625   1.333   7.036  0.7897  0.1030  0.2097
14764SOL    HW144870   3.717   1.351   7.052  0.5802  0.2509  1.3612
14764SOL    HW244871   3.582   1.418   7.048  0.4036 -0.1366  0.5332
14765SOL     OW44872   9.612   1.621   7.307  0.2988  0.6043 -0.5667
14765SOL    HW144873   9.687   1.644   7.362 -0.6551  1.2739  0.4918
14765SOL    HW244874   9.536   1.653   7.355 -0.5430  1.8702 -2.6205
14766SOL     OW44875   4.203   5.180   8.008  0.1182 -0.3342  1.0450
14766SOL    HW144876   4.108   5.186   8.000  0.2611 -0.9202 -1.9952
14766SOL    HW244877   4.226   5.098   7.965  2.0621  0.0327  1.2965
14767SOL     OW44878   9.462   0.521   5.039  0.1965  0.0033  0.8088
14767SOL    HW144879   9.512   0.586   5.089  0.1360  0.7048 -0.0180
14767SOL    HW244880   9.373   0.555   5.038  0.7833  1.9284 -2.7037
14768SOL     OW44881   5.680   5.652   4.449 -0.0812  0.1396 -0.4157
14768SOL    HW144882   5.648   5.740   4.470 -2.4863 -0.7766  0.0977
14768SOL    HW244883   5.676   5.648   4.353  0.8495  0.8185 -0.5064
14769SOL     OW44884   6.928   3.406   7.615  0.1270  0.4282 -0.2051
14769SOL    HW144885   6.968   3.489   7.588  0.4047  0.5034  0.4094
14769SOL    HW244886   6.834   3.420   7.606  0.1745  0.7996 -0.1377
14770SOL     OW44887   9.423   5.599   0.503 -0.0107  0.2852  0.5103
14770SOL    HW144888   9.514   5.601   0.532  0.4404 -0.4949 -0.7636
14770SOL    HW244889   9.420   5.657   0.427 -0.4646 -0.0669  0.2513
14771SOL     OW44890   0.415   3.545   0.065  0.1437 -0.0657  0.0980
14771SOL    HW144891   0.323   3.564   0.043  0.4695  0.0481 -1.2968
14771SOL    HW244892   0.464   3.617   0.026  0.8241 -0.0390  0.9778
14772SOL     OW44893   1.741   4.575   2.264 -0.0303 -0.2734 -1.0963
14772SOL    HW144894   1.795   4.604   2.337 -1.4612  2.1280 -0.8608
14772SOL    HW244895   1.749   4.480   2.263  2.0485 -0.1745  0.5461
14773SOL     OW44896   4.442   9.128   4.342  0.0812 -0.0976 -0.5092
14773SOL    HW144897   4.505   9.152   4.274  1.0680  1.0007  0.7478
14773SOL    HW244898   4.357   9.128   4.297  0.7178  0.4810 -1.7633
14774SOL     OW44899   4.160   1.110   9.522  0.3506  0.4953  0.7753
14774SOL    HW144900   4.078   1.145   9.558 -0.5247 -0.6959  0.0287
14774SOL    HW244901   4.227   1.138   9.584 -0.8408  0.0793  2.3216
14775SOL     OW44902   5.839   6.783   6.899  0.4107 -0.9097 -0.5223
14775SOL    HW144903   5.858   6.702   6.947  1.8378 -0.6169 -0.5418
14775SOL    HW244904   5.754   6.811   6.932  0.5414 -1.6754  0.5164
14776SOL     OW44905   6.130   7.469   9.635 -0.1986 -0.1783  0.1162
14776SOL    HW144906   6.119   7.540   9.699  0.3357  0.9354 -0.9876
14776SOL    HW244907   6.045   7.464   9.591 -0.2340 -0.2233  0.1890
14777SOL     OW44908   4.725   4.324   5.545  0.1189 -0.5892  0.2414
14777SOL    HW144909   4.788   4.289   5.481 -0.4092 -1.7214  0.3046
14777SOL    HW244910   4.640   4.301   5.509 -0.2186 -0.3340  0.8611
14778SOL     OW44911   4.870   8.518   3.037 -0.5965  0.0594 -0.2652
14778SOL    HW144912   4.879   8.608   3.068 -0.5526  0.1860 -0.6405
14778SOL    HW244913   4.797   8.521   2.975  1.3975  0.5030 -2.7204
14779SOL     OW44914   0.217   4.848   0.330 -0.0204 -0.2277  0.3548
14779SOL    HW144915   0.131   4.807   0.336  0.1198 -0.9254 -1.7057
14779SOL    HW244916   0.198   4.942   0.325 -0.7353 -0.4334 -1.0084
14780SOL     OW44917   9.958   9.340   6.025  0.0798  0.0473  0.0091
14780SOL    HW144918   9.986   9.252   6.052 -0.8895 -0.0838  0.6577
14780SOL    HW244919   9.892   9.324   5.957  1.1552  0.3321 -1.1206
14781SOL     OW44920   8.802   7.700   9.156 -0.0152 -0.6269  0.6812
14781SOL    HW144921   8.859   7.647   9.211  2.8128  1.0101 -0.4375
14781SOL    HW244922   8.805   7.657   9.070 -2.6407 -1.9449  1.1558
14782SOL     OW44923   3.165   6.431   7.841 -0.2780 -0.3203  0.1184
14782SOL    HW144924   3.198   6.399   7.757  1.6525  0.6050  0.4788
14782SOL    HW244925   3.074   6.455   7.823  0.0286 -0.3383 -1.6516
14783SOL     OW44926   4.330   9.826   3.908  0.0847 -0.1055  0.3428
14783SOL    HW144927   4.293   9.740   3.926 -2.5916  1.1191  1.0927
14783SOL    HW244928   4.372   9.852   3.990  1.6103 -0.9776 -0.1286
14784SOL     OW44929   8.443   3.423   6.529  0.4209 -0.1980  0.4248
14784SOL    HW144930   8.359   3.377   6.524 -0.0510  0.5560  1.0334
14784SOL    HW244931   8.462   3.427   6.623  1.8968 -1.6441  0.2347
14785SOL     OW44932   3.053   4.579   8.680  0.1175  0.2160 -0.4771
14785SOL    HW144933   3.111   4.650   8.705  1.2615 -0.9597  0.3336
14785SOL    HW244934   3.037   4.531   8.761  0.8785 -1.5139 -1.2990
14786SOL     OW44935   0.624   3.877   8.609 -0.1283 -0.1802  0.0132
14786SOL    HW144936   0.657   3.799   8.564  0.0717  0.9506 -1.9156
14786SOL    HW244937   0.584   3.930   8.539  0.5327  1.8560  1.0962
14787SOL     OW44938   2.448   9.886   9.696  0.6200  0.1464 -0.3562
14787SOL    HW144939   2.481   9.867   9.608  1.5017  0.3811 -0.0906
14787SOL    HW244940   2.394   9.965   9.685  1.9051  1.0455 -0.4750
14788SOL     OW44941   2.443   1.952   0.700 -0.1637  0.3684  0.1186
14788SOL    HW144942   2.423   1.859   0.705  0.7719  0.0204 -1.5988
14788SOL    HW244943   2.538   1.957   0.709 -0.1174  1.0667 -0.6272
14789SOL     OW44944   7.471   0.974   5.778 -0.1797  0.2387 -0.4523
14789SOL    HW144945   7.515   0.904   5.730 -0.7815 -0.0239 -0.6310
14789SOL    HW244946   7.444   0.933   5.860  0.0827  0.4522 -0.2585
14790SOL     OW44947   9.883   5.749   2.539  0.2320 -0.1200 -0.1691
14790SOL    HW144948   9.833   5.699   2.604  0.0606  0.3208  0.0442
14790SOL    HW244949   9.861   5.840   2.558  0.7316  0.0485 -0.3984
14791SOL     OW44950   8.268   6.928   2.938  0.0526  0.2107 -0.1872
14791SOL    HW144951   8.190   6.925   2.882 -1.0491 -1.7294  1.3107
14791SOL    HW244952   8.250   6.997   3.001 -0.6962 -0.5239  0.4247
14792SOL     OW44953   5.525   4.743   7.476 -0.3835  0.4170  0.3269
14792SOL    HW144954   5.581   4.718   7.403  1.5753  1.4356  1.4078
14792SOL    HW244955   5.453   4.792   7.436 -2.0946 -3.0751 -1.3887
14793SOL     OW44956   6.714   5.526   2.111  0.0393 -0.6746 -0.2882
14793SOL    HW144957   6.732   5.446   2.062  2.7519 -0.7482  0.6289
14793SOL    HW244958   6.752   5.596   2.059  1.2514 -0.5210  0.7594
14794SOL     OW44959   6.180   9.609   5.101 -0.1797  0.5298 -0.4960
14794SOL    HW144960   6.181   9.648   5.188  0.6673  0.8972 -0.6639
14794SOL    HW244961   6.189   9.515   5.116  2.3579  0.7365 -0.2388
14795SOL     OW44962   7.456   2.051   7.980 -0.1066  0.4824 -0.5064
14795SOL    HW144963   7.441   2.084   8.069 -0.3381 -2.5004  0.6580
14795SOL    HW244964   7.549   2.029   7.978 -0.5413 -1.5050 -0.2076
14796SOL     OW44965   4.133   2.420   2.436  0.0169 -0.3564 -0.4558
14796SOL    HW144966   4.150   2.343   2.492 -1.0893 -0.7747 -0.6733
14796SOL    HW244967   4.212   2.429   2.384 -0.0191 -1.6575 -0.7661
14797SOL     OW44968   2.519   1.055   8.602 -0.2615 -0.4757  0.2511
14797SOL    HW144969   2.446   1.107   8.571 -1.5863 -1.6214  1.3042
14797SOL    HW244970   2.493   1.026   8.690  2.6911  1.4233  1.9104
14798SOL     OW44971   3.484   8.762   8.635  0.6004  0.1952 -0.3722
14798SOL    HW144972   3.460   8.698   8.701  0.1377  0.3167 -0.4236
14798SOL    HW244973   3.401   8.798   8.603  0.6835 -1.2997 -2.4855
14799SOL     OW44974   1.134   3.525   3.357  0.3194 -0.2240  0.6679
14799SOL    HW144975   1.057   3.569   3.319  1.7745  1.5753 -0.3854
14799SOL    HW244976   1.161   3.583   3.428  2.6265  1.0287 -1.1114
14800SOL     OW44977   9.747   3.315   4.644 -0.0098  0.2908 -0.2818
14800SOL    HW144978   9.818   3.253   4.630  1.2733  1.5407  0.4229
14800SOL    HW244979   9.727   3.348   4.557  2.5138  2.2422 -0.2376
14801SOL     OW44980   8.250   3.950   1.014  0.5030 -0.0108  0.3808
14801SOL    HW144981   8.188   3.901   1.068 -0.6183  0.3346 -0.5366
14801SOL    HW244982   8.310   3.884   0.979 -1.8165 -1.0809 -1.9866
14802SOL     OW44983   4.971   0.983   8.372 -0.4361 -0.4008 -0.1581
14802SOL    HW144984   4.989   0.889   8.381 -0.1003 -0.2991  0.2577
14802SOL    HW244985   4.937   1.009   8.457  1.4741  0.2897  0.4478
14803SOL     OW44986   0.157   6.897   4.897 -0.2023 -0.1369 -0.2048
14803SOL    HW144987   0.190   6.808   4.903  0.2758  0.0508  0.0805
14803SOL    HW244988   0.067   6.888   4.866  0.1645 -0.6614 -1.1620
14804SOL     OW44989   6.431   9.493   2.847  0.0479 -0.0444  0.0702
14804SOL    HW144990   6.424   9.406   2.807 -0.3783 -0.1315  0.3311
14804SOL    HW244991   6.503   9.485   2.910  1.7664  0.4994 -1.7056
14805SOL     OW44992   8.087   4.641   0.639  0.2738  0.1450 -0.3259
14805SOL    HW144993   8.049   4.651   0.552 -1.1726 -0.1503  0.2450
14805SOL    HW244994   8.036   4.700   0.695  1.1524  0.2962  0.3291
14806SOL     OW44995   2.716   0.283   2.207  0.0663  0.4635 -0.1278
14806SOL    HW144996   2.785   0.349   2.207 -0.5433  1.1108 -0.6779
14806SOL    HW244997   2.667   0.298   2.126  1.1321 -1.9579 -1.3142
14807SOL     OW44998   5.793   1.654   7.928  0.1993  0.3453 -0.1009
14807SOL    HW144999   5.787   1.733   7.875  0.6665  1.6957  1.7387
14807SOL    HW245000   5.712   1.654   7.980 -0.0951 -0.7496 -0.5341
14808SOL     OW45001   7.938   2.364   7.428  0.4613  0.0193 -0.1478
14808SOL    HW145002   7.912   2.383   7.337 -0.5255  1.4120  0.3798
14808SOL    HW245003   7.879   2.418   7.481 -0.8397 -2.7964  1.4725
14809SOL     OW45004   8.231   6.673   2.075  0.0797 -0.1572  0.5326
14809SOL    HW145005   8.205   6.586   2.106  2.9266 -0.3657  2.7649
14809SOL    HW245006   8.327   6.669   2.068  0.1373  2.1110 -1.7531
14810SOL     OW45007   7.351   1.600   7.194 -0.2165  0.2385  0.5289
14810SOL    HW145008   7.369   1.682   7.239 -2.8144  0.4979  1.2259
14810SOL    HW245009   7.385   1.532   7.253 -0.6915  0.7100  1.3572
14811SOL     OW45010   7.101   1.408   3.501  0.0027 -0.0313  0.0463
14811SOL    HW145011   7.145   1.464   3.437  1.6682 -1.3673 -0.0592
14811SOL    HW245012   7.043   1.353   3.448 -0.1192  0.2164 -0.0780
14812SOL     OW45013   1.993   4.292   8.240 -0.0888 -0.1968 -0.2706
14812SOL    HW145014   2.013   4.264   8.329 -0.2788  0.4728 -0.0061
14812SOL    HW245015   1.981   4.387   8.247  0.4441 -0.0568 -1.1072
14813SOL     OW45016   8.479   7.296   2.098 -0.0799  0.1050  0.2215
14813SOL    HW145017   8.532   7.253   2.164 -0.0072  0.2972  0.2883
14813SOL    HW245018   8.389   7.290   2.131 -0.1469 -0.5052 -0.0442
14814SOL     OW45019   3.543   2.255   7.012  0.2739  0.4509 -0.7310
14814SOL    HW145020   3.570   2.333   6.963  1.0455  0.4648 -0.2958
14814SOL    HW245021   3.625   2.214   7.038 -0.0940 -1.1686 -1.9638
14815SOL     OW45022   6.014   5.943   4.668  0.2381 -0.1346  0.3083
14815SOL    HW145023   5.978   5.966   4.582  1.1778  0.9823  0.1848
14815SOL    HW245024   5.943   5.958   4.729 -0.0859  0.2214 -0.1452
14816SOL     OW45025   0.572   5.416   1.104 -0.1856 -0.1145 -0.1365
14816SOL    HW145026   0.620   5.343   1.144 -0.2489 -1.6237 -2.5784
14816SOL    HW245027   0.522   5.455   1.176  3.3692  0.5182  2.1892
14817SOL     OW45028   5.618   2.944   9.257 -0.2156  0.1109  0.5200
14817SOL    HW145029   5.545   2.887   9.283  0.8375 -1.4761  0.1056
14817SOL    HW245030   5.577   3.014   9.206 -1.2715 -1.7486 -1.2898
14818SOL     OW45031   3.033   4.350   3.270 -0.0636 -0.5831 -0.2445
14818SOL    HW145032   3.067   4.350   3.181  0.5512  1.5128 -0.0709
14818SOL    HW245033   3.105   4.315   3.323  0.4040  0.1908 -0.3456
14819SOL     OW45034   3.703   5.251   8.760 -0.0281 -0.9099  0.0028
14819SOL    HW145035   3.639   5.320   8.777  0.1010 -0.6568 -0.5275
14819SOL    HW245036   3.664   5.173   8.801 -0.2611 -0.5738  0.4449
14820SOL     OW45037   1.183   6.431   3.748 -0.3186 -0.2264  0.1514
14820SOL    HW145038   1.208   6.446   3.657 -2.3935 -0.6738 -0.5319
14820SOL    HW245039   1.224   6.348   3.771  0.9506  0.3138 -0.0513
14821SOL     OW45040   6.797   3.566   3.645 -0.4414 -0.5114 -0.2400
14821SOL    HW145041   6.753   3.503   3.701 -1.2562  0.3685  0.1363
14821SOL    HW245042   6.878   3.588   3.692 -1.0499  0.1142  0.5504
14822SOL     OW45043   4.920   6.466   1.537 -0.5200  0.3947  0.0916
14822SOL    HW145044   4.862   6.528   1.581  0.0948 -0.1073  1.6671
14822SOL    HW245045   4.984   6.522   1.491 -0.8781  0.9290  0.2290
14823SOL     OW45046   6.286   2.963   4.936  0.3965  0.1158 -0.3092
14823SOL    HW145047   6.276   3.056   4.915  0.8949  0.1647 -0.3413
14823SOL    HW245048   6.218   2.945   5.001  0.6638  0.6363  0.1203
14824SOL     OW45049   3.204   3.391   5.509 -0.1537 -0.3233  0.6740
14824SOL    HW145050   3.140   3.460   5.524  0.5464  1.0148 -1.9537
14824SOL    HW245051   3.289   3.433   5.526  0.2291 -0.8282  0.0773
14825SOL     OW45052   8.148   0.333   8.270  0.2766  0.2196 -0.1277
14825SOL    HW145053   8.139   0.292   8.355  2.6634  2.9151  1.6167
14825SOL    HW245054   8.067   0.383   8.258 -0.6095 -1.1651 -0.1074
14826SOL     OW45055   1.215   3.337   8.318  0.1717  0.3713 -0.6596
14826SOL    HW145056   1.141   3.290   8.356  0.6221  0.3237  0.1758
14826SOL    HW245057   1.175   3.408   8.267 -0.4294  0.8678  0.4775
14827SOL     OW45058   7.038   8.178   4.943 -0.6193  0.3148  0.6327
14827SOL    HW145059   7.042   8.115   4.871 -2.7542  0.2405  0.5319
14827SOL    HW245060   7.122   8.168   4.988  0.2211 -0.5875 -1.0331
14828SOL     OW45061   3.364   0.233   3.031 -0.1371 -0.2439 -0.0645
14828SOL    HW145062   3.420   0.158   3.051 -2.0582 -1.2449  2.0645
14828SOL    HW245063   3.424   0.307   3.025  1.4348 -1.1540  2.5976
14829SOL     OW45064   0.569   6.083   1.277  0.0142 -0.3307  0.1440
14829SOL    HW145065   0.529   6.006   1.238 -0.6244  0.2793 -0.4448
14829SOL    HW245066   0.631   6.115   1.211 -1.0292  0.6723 -0.3812
14830SOL     OW45067   2.739   6.932   0.171  0.6151  0.1839  0.5878
14830SOL    HW145068   2.785   7.015   0.185  2.2266 -0.4466 -0.6195
14830SOL    HW245069   2.677   6.950   0.100  0.9002  0.3944  0.3891
14831SOL     OW45070   4.732   9.222   6.813 -0.2631  0.3961  0.6415
14831SOL    HW145071   4.788   9.149   6.788 -0.4242  0.5491 -0.2087
14831SOL    HW245072   4.663   9.182   6.867 -0.4765 -0.1279  0.0002
14832SOL     OW45073   5.776   5.112   6.604  0.0356 -0.4451  0.2607
14832SOL    HW145074   5.783   5.118   6.509  1.2235 -1.2777  0.2674
14832SOL    HW245075   5.843   5.172   6.637 -0.8838  0.4191  0.6016
14833SOL     OW45076   8.467   3.601   3.739 -0.6026 -0.2991  0.3325
14833SOL    HW145077   8.418   3.582   3.659 -1.3503  1.2419  0.3641
14833SOL    HW245078   8.512   3.683   3.720  0.7433 -0.8964  0.8611
14834SOL     OW45079   8.220   8.906   5.858  0.0135  0.2866 -0.3379
14834SOL    HW145080   8.169   8.970   5.809 -1.2126 -0.5283 -0.1572
14834SOL    HW245081   8.216   8.936   5.949  0.3665  0.5436 -0.4035
14835SOL     OW45082   0.933   0.097   3.030  0.0657  0.1681  0.1063
14835SOL    HW145083   1.003   0.148   3.070  0.9318 -0.0698 -1.0624
14835SOL    HW245084   0.960   0.006   3.042  0.6930  0.0996 -1.5614
14836SOL     OW45085   9.166   0.872   2.021  0.1711 -0.0299  0.3123
14836SOL    HW145086   9.250   0.826   2.027  0.7042  0.7893 -0.6483
14836SOL    HW245087   9.186   0.954   1.976 -1.0323  0.4766  0.6484
14837SOL     OW45088   5.871   7.314   1.540  0.0133  0.0703  0.1788
14837SOL    HW145089   5.827   7.280   1.463  0.2319 -1.4023  0.6639
14837SOL    HW245090   5.938   7.249   1.560 -0.5679 -0.0032  2.0763
14838SOL     OW45091   6.375   5.580   6.038 -0.0904  0.0654 -0.0565
14838SOL    HW145092   6.356   5.657   5.986  0.9320  0.1961 -0.2595
14838SOL    HW245093   6.312   5.583   6.110  0.3479  1.4323  0.2943
14839SOL     OW45094   1.626   5.470   2.735  0.1033  0.3970  0.0359
14839SOL    HW145095   1.577   5.433   2.661  0.4912 -0.6485  0.2818
14839SOL    HW245096   1.674   5.544   2.697 -1.6294  1.4483 -0.2135
14840SOL     OW45097   8.777   2.735   9.073 -0.0318  0.2295 -0.4727
14840SOL    HW145098   8.730   2.743   9.155 -0.6010  0.3698 -0.8048
14840SOL    HW245099   8.768   2.643   9.049 -2.3523  0.7279 -1.8014
14841SOL     OW45100   2.077   7.110   4.183 -0.0619  0.5830 -0.3388
14841SOL    HW145101   2.115   7.120   4.095  1.3329 -0.3174  0.1343
14841SOL    HW245102   2.130   7.168   4.238  0.2123 -0.1908  0.2171
14842SOL     OW45103   7.617   8.045   3.813 -0.1364  0.2666  0.2338
14842SOL    HW145104   7.664   8.129   3.818  0.1880  0.0715  0.4744
14842SOL    HW245105   7.593   8.026   3.903 -0.5887  0.3091  0.1248
14843SOL     OW45106   0.380   3.986   1.570 -0.3067  0.0261  0.4609
14843SOL    HW145107   0.412   3.954   1.654 -0.6279 -0.1208  0.5279
14843SOL    HW245108   0.445   4.050   1.543  0.0070 -0.2145  0.6326
14844SOL     OW45109   9.138   4.579   5.314 -0.1327  0.0315  0.1235
14844SOL    HW145110   9.153   4.609   5.224 -1.9120 -0.7254 -0.4700
14844SOL    HW245111   9.212   4.521   5.332  0.7511  0.9300 -0.4864
14845SOL     OW45112   4.960   2.466   1.086 -0.4752  0.0858  0.5017
14845SOL    HW145113   4.878   2.457   1.038 -0.3582 -0.9939  0.4772
14845SOL    HW245114   5.024   2.420   1.033  0.4343  1.8994 -0.0707
14846SOL     OW45115   0.956   3.416   3.717  0.3082  0.1552  0.0172
14846SOL    HW145116   0.990   3.424   3.806  1.0098  3.0269 -0.4269
14846SOL    HW245117   0.874   3.368   3.727  0.5667  0.0734  2.1377
14847SOL     OW45118   1.399   6.820   7.018 -0.2261  0.2553  0.6887
14847SOL    HW145119   1.348   6.848   6.943 -1.0778 -1.4392  0.5880
14847SOL    HW245120   1.378   6.727   7.029  0.2213  0.3313  2.7311
14848SOL     OW45121   5.072   9.036   8.825 -0.1191  0.1756  0.1378
14848SOL    HW145122   5.121   9.115   8.803  0.6905 -0.5924 -0.9198
14848SOL    HW245123   5.138   8.973   8.854 -0.7036 -0.2565  0.5639
14849SOL     OW45124   7.389   1.812   9.796  0.1089  0.2914  0.8479
14849SOL    HW145125   7.310   1.836   9.846 -1.2956 -3.1611  0.5516
14849SOL    HW245126   7.383   1.863   9.716  0.1315  2.7184  2.2849
14850SOL     OW45127   9.679   8.473   3.347  0.1841 -0.0327 -0.1073
14850SOL    HW145128   9.606   8.478   3.284  0.6337  1.8310 -0.5273
14850SOL    HW245129   9.745   8.419   3.302 -0.1930 -0.1826 -0.4890
14851SOL     OW45130   6.097   4.727   5.018 -0.6317  0.1232 -0.3416
14851SOL    HW145131   6.121   4.819   5.012  1.9179 -0.3619  0.9084
14851SOL    HW245132   6.077   4.712   5.111  1.3602 -1.0196 -0.0377
14852SOL     OW45133   3.480   4.796   0.911  0.4244  0.0153  0.0615
14852SOL    HW145134   3.472   4.891   0.922 -0.1130 -0.1037  0.7950
14852SOL    HW245135   3.479   4.762   1.001 -1.5178 -0.8468 -0.2418
14853SOL     OW45136   5.159   3.637   0.137 -0.4421 -0.4005 -0.2063
14853SOL    HW145137   5.098   3.676   0.074  0.9344  0.4251 -1.0659
14853SOL    HW245138   5.235   3.611   0.084  1.0287  0.8839  1.1922
14854SOL     OW45139   2.981   5.902   7.975 -0.1088 -0.2731 -0.0383
14854SOL    HW145140   2.936   5.920   8.058 -1.5096 -2.0720 -0.3587
14854SOL    HW245141   2.913   5.910   7.909  0.4109 -1.4209 -0.7342
14855SOL     OW45142   5.582   8.632   0.360 -0.1346 -0.0425 -0.4139
14855SOL    HW145143   5.634   8.711   0.352  1.5822 -0.9957  0.6792
14855SOL    HW245144   5.589   8.589   0.275  1.3960 -0.4394 -0.1093
14856SOL     OW45145   2.748   6.018   3.486  0.4457 -0.3215  0.1122
14856SOL    HW145146   2.798   6.029   3.567  1.2131  2.6675 -0.6305
14856SOL    HW245147   2.770   6.096   3.434 -1.6294 -1.1016 -2.1013
14857SOL     OW45148   5.230   8.692   1.406  0.2488  0.4839  0.0392
14857SOL    HW145149   5.261   8.783   1.400  1.5165  0.0051 -1.2110
14857SOL    HW245150   5.136   8.698   1.391  0.3334  1.5756 -0.1960
14858SOL     OW45151   9.872   3.704   6.722  0.2439 -0.1791  0.1038
14858SOL    HW145152   9.835   3.706   6.634  1.9353 -0.9902 -0.6818
14858SOL    HW245153   9.907   3.792   6.735  1.2653 -0.4465 -0.6582
14859SOL     OW45154   1.372   8.962   9.348 -0.3380  0.1073  0.1427
14859SOL    HW145155   1.311   9.021   9.305  0.0144  1.2851  1.1857
14859SOL    HW245156   1.451   9.015   9.360 -0.0413 -0.5462  1.1854
14860SOL     OW45157   1.797   0.047   5.922  0.3538  0.1814  0.0069
14860SOL    HW145158   1.711   0.029   5.960  0.0194  0.2606 -0.7118
14860SOL    HW245159   1.859   0.010   5.985 -0.2096 -0.0694  0.4185
14861SOL     OW45160   5.033   2.237   6.350  0.2479  0.1538  0.3421
14861SOL    HW145161   5.108   2.278   6.393  0.9616 -0.5840 -0.1450
14861SOL    HW245162   4.984   2.196   6.420 -0.0133  1.1159  0.7321
14862SOL     OW45163   3.878   6.570   9.656 -0.0613 -0.7558 -0.4124
14862SOL    HW145164   3.841   6.509   9.591 -0.7159 -0.5981 -0.1960
14862SOL    HW245165   3.891   6.516   9.734  1.4796 -1.1365 -0.8946
14863SOL     OW45166   5.102   8.654   5.247  0.3000  0.2967 -0.1000
14863SOL    HW145167   5.032   8.591   5.264 -0.2184  0.6447 -0.8513
14863SOL    HW245168   5.177   8.601   5.221  1.2726 -0.3084  3.3565
14864SOL     OW45169   0.037   9.815   9.461  0.0300 -0.2907  0.2875
14864SOL    HW145170   0.119   9.846   9.499  0.6868  0.1010 -1.3465
14864SOL    HW245171  -0.020   9.892   9.462  0.4965  0.0912 -0.6585
14865SOL     OW45172   3.920   1.490   7.800  0.4738 -0.2517  0.2923
14865SOL    HW145173   3.938   1.562   7.860 -1.6046 -0.0886  0.7813
14865SOL    HW245174   3.947   1.523   7.714  3.6990 -0.5748  1.0403
14866SOL     OW45175   4.167   4.179   5.843  0.0101  0.0047  0.0560
14866SOL    HW145176   4.201   4.125   5.915  0.1639  0.5713  0.4180
14866SOL    HW245177   4.204   4.141   5.764  1.9221  0.8893  0.4706
14867SOL     OW45178   1.620   4.043   0.195 -0.1927  0.0282  0.4059
14867SOL    HW145179   1.710   4.027   0.225 -0.5184 -0.0998  1.3330
14867SOL    HW245180   1.627   4.044   0.099  1.1654  2.0579  0.4511
14868SOL     OW45181   3.850   4.729   8.131 -0.4316  0.8045 -0.1338
14868SOL    HW145182   3.908   4.713   8.057 -1.6793  0.5241 -1.0878
14868SOL    HW245183   3.893   4.799   8.180  1.2993 -0.2145 -0.1147
14869SOL     OW45184   3.433   8.339   9.705  0.0010 -0.0174  0.2160
14869SOL    HW145185   3.356   8.313   9.655 -0.3516 -0.5815  1.0281
14869SOL    HW245186   3.403   8.411   9.761  0.5888  1.1452 -0.9171
14870SOL     OW45187   5.224   7.469   7.276 -0.0919 -0.1874 -0.5544
14870SOL    HW145188   5.260   7.386   7.306 -1.7414 -0.8121 -0.1517
14870SOL    HW245189   5.188   7.449   7.190 -0.3991  0.1317 -0.5023
14871SOL     OW45190   7.778   6.229   7.699 -0.0986  0.7425  0.0057
14871SOL    HW145191   7.692   6.252   7.664 -0.0562  0.5191 -0.2391
14871SOL    HW245192   7.795   6.141   7.666 -1.2070 -0.5901  2.6664
14872SOL     OW45193   1.470   2.964   0.582 -0.0345  0.0817 -0.2474
14872SOL    HW145194   1.453   2.974   0.488 -0.8534  0.3526 -0.0722
14872SOL    HW245195   1.490   3.052   0.613  1.8744 -0.2210 -0.4575
14873SOL     OW45196   8.606   9.625   0.508  0.0070  0.2984 -0.2364
14873SOL    HW145197   8.653   9.628   0.591  1.0915  1.8015 -0.8633
14873SOL    HW245198   8.672   9.603   0.443 -0.2190  1.8254 -1.0487
14874SOL     OW45199   8.597   9.350   4.540 -0.3308 -0.0579 -0.0578
14874SOL    HW145200   8.558   9.263   4.526  1.0356 -0.8451  0.8830
14874SOL    HW245201   8.545   9.388   4.610 -1.3051  0.1462 -0.8618
14875SOL     OW45202   2.213   1.664   2.253  0.1445 -0.2506 -0.3397
14875SOL    HW145203   2.197   1.572   2.276 -0.4044 -0.3166 -0.9352
14875SOL    HW245204   2.137   1.688   2.200  0.2652  0.5636 -0.1542
14876SOL     OW45205   1.471   6.115   2.459 -0.0017  0.0578  0.6446
14876SOL    HW145206   1.394   6.171   2.446 -0.3420 -0.5082  0.1395
14876SOL    HW245207   1.535   6.171   2.501 -0.5668  0.6430  0.7416
14877SOL     OW45208   7.942   6.239   9.821 -0.1061  0.2833  0.7171
14877SOL    HW145209   7.868   6.180   9.829 -1.1337  1.7102  2.6533
14877SOL    HW245210   7.904   6.321   9.789  1.5462 -0.4139 -3.7874
14878SOL     OW45211   7.288   1.820   8.064 -0.4698 -0.2236  0.1792
14878SOL    HW145212   7.269   1.901   8.018  1.1794 -0.6328 -1.3194
14878SOL    HW245213   7.257   1.835   8.154 -2.0829  1.2626 -0.5736
14879SOL     OW45214   9.113   9.078   4.579  0.1791 -0.0151 -0.0216
14879SOL    HW145215   9.122   9.031   4.496  0.0086 -0.1989  0.0631
14879SOL    HW245216   9.167   9.156   4.569 -0.2516  0.2266 -0.4994
14880SOL     OW45217   7.583   2.977   5.674  0.8293  0.0583  0.1269
14880SOL    HW145218   7.542   2.995   5.589  0.1469  1.8606  0.7852
14880SOL    HW245219   7.527   2.911   5.715 -0.2211  0.9228  0.1293
14881SOL     OW45220   7.453   5.539   5.141  0.5739 -0.6972  0.4362
14881SOL    HW145221   7.382   5.475   5.150  0.1574 -0.8492 -2.7791
14881SOL    HW245222   7.419   5.604   5.079  2.7700 -0.0403 -0.1655
14882SOL     OW45223   3.287   8.467   1.113 -0.2532 -0.0791  0.3710
14882SOL    HW145224   3.306   8.432   1.026 -0.2604 -0.6801  0.6120
14882SOL    HW245225   3.372   8.469   1.157 -0.5571 -1.8125  1.0968
14883SOL     OW45226   6.939   8.204   8.244 -0.1625  0.0857 -0.4174
14883SOL    HW145227   7.031   8.198   8.218 -0.6643 -1.4409 -2.0894
14883SOL    HW245228   6.909   8.286   8.205  0.2579  0.1166 -0.6901
14884SOL     OW45229   0.105   4.111   7.207 -0.4422 -0.1024  0.1990
14884SOL    HW145230   0.164   4.186   7.198  1.0033 -1.0013  1.6639
14884SOL    HW245231   0.019   4.146   7.184  0.6755  1.0819 -2.6572
14885SOL     OW45232   7.494   3.854   0.157 -0.1208  0.0647 -0.4618
14885SOL    HW145233   7.561   3.922   0.163  1.1067 -1.2223  1.2130
14885SOL    HW245234   7.418   3.892   0.201  0.4027  0.5230  0.0689
14886SOL     OW45235   7.466   9.023   6.514 -0.2092  0.8268 -0.4315
14886SOL    HW145236   7.497   8.934   6.533 -0.3054  0.4133 -2.0571
14886SOL    HW245237   7.371   9.014   6.504 -0.0247  0.6281 -2.7290
14887SOL     OW45238   3.102   1.797   3.329 -0.1080 -0.0105 -0.3820
14887SOL    HW145239   3.171   1.748   3.375 -0.3189 -0.3340 -0.4099
14887SOL    HW245240   3.029   1.799   3.391  0.5648  2.0085  0.4444
14888SOL     OW45241   6.894   2.590   1.047  0.1203 -0.3506 -0.1545
14888SOL    HW145242   6.831   2.538   1.096 -0.0974 -0.3369 -0.4196
14888SOL    HW245243   6.952   2.627   1.114 -0.5076  0.1221  0.1326
14889SOL     OW45244   0.856   6.610   0.699  0.0541  0.6200  0.2649
14889SOL    HW145245   0.889   6.545   0.761  0.3014  0.1161 -0.3825
14889SOL    HW245246   0.836   6.560   0.620 -0.8293  1.1558  0.1340
14890SOL     OW45247   5.439   8.372   2.858 -0.1608  0.2007 -0.3484
14890SOL    HW145248   5.351   8.349   2.827 -0.4643  1.2597 -0.3275
14890SOL    HW245249   5.488   8.394   2.779  0.7329 -2.3148 -0.5757
14891SOL     OW45250   1.697   9.784   4.849 -0.6030  0.6886  0.1651
14891SOL    HW145251   1.635   9.854   4.830 -0.9234  0.6506  1.0345
14891SOL    HW245252   1.645   9.716   4.891  0.0679  0.7673  1.1436
14892SOL     OW45253   2.890   6.373   4.037 -0.3106  0.1897 -0.5137
14892SOL    HW145254   2.874   6.309   3.967 -0.3731  1.7970 -2.0517
14892SOL    HW245255   2.973   6.415   4.011 -0.5266  1.0602  0.1866
14893SOL     OW45256   1.719   1.184   9.663  0.2575  0.2591 -0.1160
14893SOL    HW145257   1.704   1.119   9.594 -2.2086  0.0078  0.5699
14893SOL    HW245258   1.693   1.267   9.624  0.7330  0.4252 -0.0896
14894SOL     OW45259   4.144   1.952   5.120  0.4393  0.1634 -0.3421
14894SOL    HW145260   4.120   1.977   5.209 -1.7289 -0.4868 -0.6760
14894SOL    HW245261   4.110   1.863   5.109  0.1681  0.4249 -1.9586
14895SOL     OW45262   2.016   3.951   4.166  0.0355 -0.4103 -0.7732
14895SOL    HW145263   1.950   3.919   4.228 -0.6588  0.4504 -1.0462
14895SOL    HW245264   2.038   4.039   4.197 -0.2273 -0.0210 -1.6549
14896SOL     OW45265   6.458   3.463   1.508  0.1047 -0.1766  0.1810
14896SOL    HW145266   6.443   3.478   1.601  0.3256  1.0770  0.0453
14896SOL    HW245267   6.465   3.368   1.499 -0.2954 -0.3378  1.3760
14897SOL     OW45268   0.846   1.825   7.062  0.1775  0.0983 -0.2224
14897SOL    HW145269   0.806   1.907   7.091  1.4525  0.0058  2.0816
14897SOL    HW245270   0.781   1.758   7.084  0.3493  0.2340  0.7729
14898SOL     OW45271   1.111   1.776   4.077 -0.1167 -0.2365  0.4809
14898SOL    HW145272   1.206   1.765   4.071 -0.1567 -0.5521  0.4084
14898SOL    HW245273   1.087   1.816   3.994 -0.0129  0.0909  0.6073
14899SOL     OW45274   4.333   7.784   1.254  0.1600 -0.4091  0.0253
14899SOL    HW145275   4.360   7.860   1.306 -0.2701  0.4529 -0.9557
14899SOL    HW245276   4.247   7.761   1.287  1.1272 -1.8054  1.7138
14900SOL     OW45277   7.987   4.752   0.415  0.0333  0.3310 -0.0034
14900SOL    HW145278   7.901   4.791   0.432 -0.1488 -0.2722  0.5133
14900SOL    HW245279   8.028   4.811   0.352 -0.9652  0.3474 -0.6590
14901SOL     OW45280   6.995   3.511   8.965  0.0618  0.1253 -0.1628
14901SOL    HW145281   6.982   3.420   8.992 -2.9963  0.8075  1.0361
14901SOL    HW245282   6.956   3.515   8.878 -1.8897  0.7285  0.7028
14902SOL     OW45283   4.788   1.300   3.306  0.2615  0.0497 -0.4147
14902SOL    HW145284   4.699   1.273   3.285  0.5928 -1.1051 -0.3714
14902SOL    HW245285   4.782   1.335   3.395 -0.2778  0.7043 -0.6922
14903SOL     OW45286   8.079   1.814   1.481 -0.5540  0.0505  0.2000
14903SOL    HW145287   8.079   1.905   1.449  1.0482 -0.1881 -0.5704
14903SOL    HW245288   8.010   1.771   1.431  0.3215  0.2705 -1.2519
14904SOL     OW45289   2.308   2.470   6.370  0.5542  0.2283  0.5288
14904SOL    HW145290   2.240   2.477   6.303  1.9294 -1.3329 -1.1061
14904SOL    HW245291   2.334   2.561   6.386 -0.9272  0.7483  0.1796
14905SOL     OW45292   2.752   9.810   7.154  0.0232 -0.5323  0.0046
14905SOL    HW145293   2.740   9.803   7.060  0.7717 -2.0853  0.0029
14905SOL    HW245294   2.671   9.776   7.192  0.2329 -1.1285 -0.0766
14906SOL     OW45295   2.976   6.596   5.505  0.5422 -0.1155 -0.6982
14906SOL    HW145296   2.893   6.564   5.540  1.2466  0.4675  1.6813
14906SOL    HW245297   3.041   6.532   5.533  1.0848  0.0437 -1.5334
14907SOL     OW45298   7.061   1.468   9.293  0.6872 -0.6598  0.5090
14907SOL    HW145299   7.062   1.497   9.202  3.4395 -0.9571  0.3540
14907SOL    HW245300   7.117   1.532   9.338  1.0957 -1.7313  1.5546
14908SOL     OW45301   9.457   6.490   6.791 -1.0346 -0.1421 -0.1365
14908SOL    HW145302   9.398   6.536   6.851 -1.7872  0.2686 -1.1690
14908SOL    HW245303   9.429   6.399   6.795 -1.0626 -0.1211  0.1587
14909SOL     OW45304   1.128   4.276   4.684  0.4075 -0.2265  0.4940
14909SOL    HW145305   1.086   4.191   4.697 -0.8791  0.7077  3.1976
14909SOL    HW245306   1.221   4.260   4.701  0.2446 -1.1428  0.5571
14910SOL     OW45307   9.466   3.427   8.526 -0.8560 -0.2945  0.1642
14910SOL    HW145308   9.487   3.464   8.612  0.4849  0.3840 -0.4222
14910SOL    HW245309   9.516   3.481   8.464 -0.6210 -1.6872 -0.9162
14911SOL     OW45310   5.867   1.818   7.418  1.0401 -0.3743 -0.0977
14911SOL    HW145311   5.833   1.887   7.362 -0.0632 -1.4586 -0.8383
14911SOL    HW245312   5.800   1.749   7.414  1.8223 -1.2528  1.0646
14912SOL     OW45313   2.045   3.635   4.026  0.2854  0.3499 -0.4851
14912SOL    HW145314   2.070   3.720   3.991  0.5788  1.4533  2.2029
14912SOL    HW245315   1.961   3.650   4.069  0.5413 -0.6031  0.3877
14913SOL     OW45316   2.290   3.951   1.814  0.0158 -0.3258  0.0619
14913SOL    HW145317   2.362   3.948   1.752  0.5005  1.2672  0.4988
14913SOL    HW245318   2.325   3.910   1.894  1.0833  1.9163  0.8337
14914SOL     OW45319   7.635   4.892   6.077 -0.2355 -0.1231  0.2912
14914SOL    HW145320   7.726   4.875   6.102  0.6622  0.1028 -2.4819
14914SOL    HW245321   7.610   4.817   6.024 -2.0412 -0.5914  1.6893
14915SOL     OW45322   9.901   6.447   1.619  0.1631  0.2818 -0.8236
14915SOL    HW145323   9.832   6.461   1.683  0.0138  0.8517 -1.0998
14915SOL    HW245324   9.941   6.533   1.608  0.6800  0.0290 -0.9344
14916SOL     OW45325   2.595   6.998   6.537  0.1060  0.3685 -0.3856
14916SOL    HW145326   2.510   7.031   6.564 -0.7572 -0.4961 -1.8975
14916SOL    HW245327   2.657   7.067   6.562 -0.6486 -0.0580  3.0104
14917SOL     OW45328   8.985   0.424   8.289 -0.2454  0.0717  0.1913
14917SOL    HW145329   8.981   0.363   8.216  2.2335  0.5642 -0.4565
14917SOL    HW245330   9.078   0.429   8.311 -0.8189  0.5224  2.9112
14918SOL     OW45331   2.978   2.127   0.346  0.5475 -0.0368 -0.0635
14918SOL    HW145332   3.043   2.176   0.396  1.6826 -0.4146 -1.1115
14918SOL    HW245333   2.963   2.180   0.268  0.8811 -0.7575 -0.6298
14919SOL     OW45334   0.663   6.769   2.551 -0.1696 -0.4237 -0.3355
14919SOL    HW145335   0.751   6.741   2.525 -0.3879 -2.0045  0.5306
14919SOL    HW245336   0.670   6.788   2.644  0.3139  4.0380 -1.0514
14920SOL     OW45337   9.226   5.292   2.704  0.1201  0.0786  0.1461
14920SOL    HW145338   9.146   5.271   2.753  1.0913 -0.9230  1.3779
14920SOL    HW245339   9.241   5.215   2.650 -0.5604  0.8956 -1.2481
14921SOL     OW45340   9.180   1.509   3.319 -0.4898 -0.4927 -0.0486
14921SOL    HW145341   9.153   1.432   3.369 -0.9059  0.4525  1.2229
14921SOL    HW245342   9.118   1.577   3.344  0.8491  0.7078  0.1236
14922SOL     OW45343   4.020   5.401   3.050  0.1266  0.5322 -0.3184
14922SOL    HW145344   4.070   5.331   3.009 -1.4152 -0.8663  0.0795
14922SOL    HW245345   4.036   5.391   3.144  1.0289  1.6458 -0.3321
14923SOL     OW45346   2.038   7.747   9.822  0.6491  0.0217  0.1531
14923SOL    HW145347   2.076   7.775   9.906  2.2311  0.3657 -0.6435
14923SOL    HW245348   2.105   7.768   9.757 -0.7159  0.1611 -1.2701
14924SOL     OW45349   2.716   0.269   9.079 -0.5498  0.1816 -0.5872
14924SOL    HW145350   2.764   0.230   9.005 -1.1284 -0.9373 -0.4061
14924SOL    HW245351   2.784   0.306   9.135  0.0122 -0.3299 -0.9127
14925SOL     OW45352   8.100   0.301   9.624  0.2668 -0.1231  0.4910
14925SOL    HW145353   8.071   0.231   9.566 -1.1252 -0.6717  1.8083
14925SOL    HW245354   8.196   0.294   9.623  0.3619  0.3229 -2.2187
14926SOL     OW45355   0.195   8.100   2.621  0.0618  0.2509 -0.1806
14926SOL    HW145356   0.191   8.074   2.530  0.4412  0.9330 -0.4031
14926SOL    HW245357   0.288   8.104   2.641  0.0226  1.3525 -0.1495
14927SOL     OW45358   3.537   8.677   4.446 -0.0449 -0.5519 -0.0502
14927SOL    HW145359   3.452   8.652   4.480  1.2738 -1.9317  2.5673
14927SOL    HW245360   3.559   8.759   4.490  0.9824 -1.5004  1.2915
14928SOL     OW45361   9.273   3.630   8.330 -0.4094  0.0578  0.0758
14928SOL    HW145362   9.341   3.697   8.342 -0.1809  0.0641 -1.1454
14928SOL    HW245363   9.284   3.571   8.405 -0.8697  1.5739  1.4120
14929SOL     OW45364   8.323   7.864   7.395  0.2689 -0.4395 -0.5492
14929SOL    HW145365   8.280   7.783   7.422 -0.0765 -0.3459 -0.8073
14929SOL    HW245366   8.275   7.891   7.316 -1.2497  1.3247  0.8919
14930SOL     OW45367   7.869   8.204   0.938  0.7943  0.1675 -0.6334
14930SOL    HW145368   7.944   8.180   0.993 -1.0032 -0.0853  1.8749
14930SOL    HW245369   7.856   8.297   0.955 -0.5837 -0.1973  0.4892
14931SOL     OW45370   1.901   8.262   9.173 -0.3690  0.2578 -0.5041
14931SOL    HW145371   1.808   8.282   9.179 -0.1346  0.9467  1.6066
14931SOL    HW245372   1.925   8.235   9.262  1.6001  0.7940 -0.8381
14932SOL     OW45373   0.930   1.475   7.724 -0.3137 -0.1112  0.2967
14932SOL    HW145374   0.912   1.386   7.695 -0.0135 -0.5804  1.4886
14932SOL    HW245375   1.023   1.488   7.705  0.1408 -0.7888  1.9130
14933SOL     OW45376   7.104   8.976   9.927 -0.1395 -0.2717  0.0669
14933SOL    HW145377   7.161   8.976  10.004  0.1752  0.3307 -0.1574
14933SOL    HW245378   7.091   8.883   9.907  2.2123 -0.4738 -0.9239
14934SOL     OW45379   4.722   3.845   3.288 -0.6204  0.2526  0.3463
14934SOL    HW145380   4.700   3.920   3.233 -0.8710  0.8502  1.2350
14934SOL    HW245381   4.677   3.862   3.370 -0.6628 -0.8751  0.5634
14935SOL     OW45382  -0.019   6.065   4.730 -0.4215  0.2718 -0.1045
14935SOL    HW145383  -0.000   6.005   4.658  0.7037 -0.3124  0.6341
14935SOL    HW245384   0.067   6.086   4.766 -0.8663  1.7041  0.1601
14936SOL     OW45385   1.106   7.969   7.508 -0.7347 -0.5901  0.4859
14936SOL    HW145386   1.200   7.975   7.527 -0.6927 -1.6506  0.6970
14936SOL    HW245387   1.064   8.000   7.588 -0.6343  2.9198 -0.6617
14937SOL     OW45388   9.606   2.934   5.147 -0.1669 -0.5886 -0.1813
14937SOL    HW145389   9.597   2.880   5.226  1.5833 -0.8433 -0.1279
14937SOL    HW245390   9.696   2.968   5.151 -0.8604  1.4886 -0.7705
14938SOL     OW45391   5.862   8.090   5.588  0.4758  0.2556 -0.0669
14938SOL    HW145392   5.855   8.041   5.669 -0.5009  1.7878  0.8324
14938SOL    HW245393   5.943   8.139   5.597  0.3237  0.4925  0.0421
14939SOL     OW45394   4.774   0.017   1.108  0.7953  0.1099 -0.0042
14939SOL    HW145395   4.691  -0.013   1.072  1.1338 -1.2144  0.2730
14939SOL    HW245396   4.837   0.005   1.038  0.8988  0.4204  0.0308
14940SOL     OW45397   9.473   2.532   7.817 -0.4704  0.0922  0.4987
14940SOL    HW145398   9.452   2.514   7.909 -1.4717  0.1693  0.2940
14940SOL    HW245399   9.392   2.566   7.780 -0.2919 -0.6361 -0.6073
14941SOL     OW45400   2.435   5.242   7.296 -0.1832 -0.4197  0.0444
14941SOL    HW145401   2.386   5.185   7.355  0.5400  0.1285  1.2136
14941SOL    HW245402   2.527   5.227   7.318  0.1721 -0.8320 -1.5512
14942SOL     OW45403   1.689   8.893   1.462 -0.3894 -0.3761  0.1353
14942SOL    HW145404   1.777   8.931   1.456 -0.1568 -1.0656 -1.3482
14942SOL    HW245405   1.630   8.967   1.455  0.0276  0.2796  2.6026
14943SOL     OW45406   2.787   0.428   6.902  0.0632 -1.3858 -0.2961
14943SOL    HW145407   2.847   0.486   6.856  0.6890 -0.0168  2.0639
14943SOL    HW245408   2.821   0.340   6.886  1.7076 -0.7588 -0.4022
14944SOL     OW45409   1.346   6.689   3.551 -0.1230 -0.1347 -0.2440
14944SOL    HW145410   1.405   6.642   3.610 -2.3622 -1.9251  0.7201
14944SOL    HW245411   1.331   6.773   3.595 -0.1338 -0.6108  0.6862
14945SOL     OW45412   2.212   8.469   9.624 -0.2126  0.0422 -0.1330
14945SOL    HW145413   2.131   8.508   9.658 -0.9426 -1.6715  0.2142
14945SOL    HW245414   2.218   8.501   9.534 -1.1945  0.3155 -0.1120
14946SOL     OW45415   1.976   3.469   4.729 -0.9295 -0.0692  0.3093
14946SOL    HW145416   2.052   3.522   4.706 -1.3187  0.0156 -0.8717
14946SOL    HW245417   1.943   3.507   4.810 -0.2307  0.4518  0.3517
14947SOL     OW45418   6.133   8.345   9.413 -0.2205  0.7319  0.0365
14947SOL    HW145419   6.172   8.390   9.488  2.6276 -1.9561  0.4022
14947SOL    HW245420   6.192   8.364   9.340 -0.2595 -0.4533 -0.3296
14948SOL     OW45421   0.904   6.181   9.634  0.3783  0.1871  0.1377
14948SOL    HW145422   0.986   6.217   9.601  0.6383 -0.1879  0.3635
14948SOL    HW245423   0.881   6.237   9.709  0.0869  0.6864 -0.3215
14949SOL     OW45424   2.750   4.325   3.235  0.3038  0.5424 -0.0808
14949SOL    HW145425   2.796   4.251   3.195  0.4229  0.2848  0.5278
14949SOL    HW245426   2.810   4.399   3.225  0.0829  0.6180 -0.9075
14950SOL     OW45427   9.869   3.676   6.447  0.1461 -0.0232 -0.2213
14950SOL    HW145428   9.795   3.658   6.389  0.6189  0.3836 -0.9830
14950SOL    HW245429   9.914   3.592   6.456 -1.2221 -0.6314  1.4815
14951SOL     OW45430   5.093   1.723   5.855  0.1535 -0.2063  0.1647
14951SOL    HW145431   5.150   1.680   5.791 -1.0491  1.2563 -2.0136
14951SOL    HW245432   5.024   1.658   5.873 -1.6054  0.5845 -3.0252
14952SOL     OW45433   7.048   8.716   9.899  0.2430  0.0591  0.3246
14952SOL    HW145434   6.958   8.733   9.870  0.1359  0.0095  0.6183
14952SOL    HW245435   7.051   8.622   9.917  0.2755  0.1040  0.5671
14953SOL     OW45436   4.235   0.734   0.309 -0.7906 -0.1386 -0.7039
14953SOL    HW145437   4.255   0.808   0.366  0.9649 -0.4893 -0.8091
14953SOL    HW245438   4.249   0.767   0.220  1.8769 -1.0355 -0.6984
14954SOL     OW45439   5.618   4.301   3.553  0.3690 -0.0304 -0.4546
14954SOL    HW145440   5.679   4.339   3.490 -0.0566 -0.7991 -1.3533
14954SOL    HW245441   5.581   4.376   3.599  1.0855  0.5104 -0.7452
14955SOL     OW45442   7.115   0.323   5.723  0.2753  0.0805 -0.7537
14955SOL    HW145443   7.118   0.378   5.645  0.5329  1.8658  0.4645
14955SOL    HW245444   7.043   0.358   5.775  1.6231  0.5257  0.9128
14956SOL     OW45445   6.715   4.595   9.377 -0.2661 -0.3062 -0.2885
14956SOL    HW145446   6.674   4.678   9.401 -1.1193  0.1308 -2.9281
14956SOL    HW245447   6.808   4.608   9.392 -0.3768  1.2070 -0.7753
14957SOL     OW45448   4.996   3.797   3.251 -0.4136  0.2390  0.2639
14957SOL    HW145449   4.919   3.847   3.280  0.5483  1.1066  1.4053
14957SOL    HW245450   4.991   3.799   3.155 -0.7292  2.0219  0.2785
14958SOL     OW45451   2.153   7.016   3.022 -0.4322 -0.7885 -0.2721
14958SOL    HW145452   2.239   6.979   3.041 -0.5597 -1.2663 -0.6032
14958SOL    HW245453   2.111   6.951   2.965 -1.8007 -1.5817  1.5236
14959SOL     OW45454   7.478   1.463   5.361 -0.2239  0.2575  0.1684
14959SOL    HW145455   7.421   1.443   5.436 -0.2761  0.3266  0.1476
14959SOL    HW245456   7.441   1.542   5.323  1.0542  1.5029  1.3791
14960SOL     OW45457   7.704   7.641   2.081 -0.1478  0.1661  0.1888
14960SOL    HW145458   7.759   7.563   2.078  0.2038  0.2854  2.1673
14960SOL    HW245459   7.622   7.615   2.038  0.2459 -1.0406  0.1465
14961SOL     OW45460   3.359   0.560   4.836  0.7897  0.4857 -0.0318
14961SOL    HW145461   3.335   0.468   4.842  0.6740  0.3781 -1.7178
14961SOL    HW245462   3.455   0.560   4.839  0.8141  0.2413 -0.8018
14962SOL     OW45463   3.563   2.824   7.651 -0.7751 -0.3617 -0.3389
14962SOL    HW145464   3.634   2.773   7.613 -0.9441  0.2749 -1.5400
14962SOL    HW245465   3.590   2.839   7.742 -0.6343 -2.3997  0.0120
14963SOL     OW45466   8.733   1.276   7.961 -0.4010 -0.2043  0.0903
14963SOL    HW145467   8.827   1.263   7.947 -0.3301  0.5561 -0.1905
14963SOL    HW245468   8.723   1.277   8.056  0.3226  2.4961  0.2271
14964SOL     OW45469   3.637   4.930   4.159 -0.0756 -0.0172  0.5943
14964SOL    HW145470   3.664   4.974   4.240  0.5418 -0.5505  0.6826
14964SOL    HW245471   3.604   5.001   4.104  2.2106  0.8289  0.1852
14965SOL     OW45472   0.415   2.296   0.178  0.4249 -0.1631 -0.3692
14965SOL    HW145473   0.447   2.332   0.096  1.7717 -0.6844 -0.0985
14965SOL    HW245474   0.485   2.238   0.208 -0.2258 -0.3218  0.9290
14966SOL     OW45475   4.138   4.123   9.619  0.1406  0.0368 -0.4041
14966SOL    HW145476   4.117   4.040   9.577 -0.1905 -0.1317  0.0898
14966SOL    HW245477   4.191   4.169   9.554  1.4333 -1.0887 -0.1873
14967SOL     OW45478   4.753   1.604   0.048 -0.1638  0.2424  0.0784
14967SOL    HW145479   4.758   1.700   0.042 -0.5968  0.2843  0.3791
14967SOL    HW245480   4.668   1.581   0.012 -0.9281  0.1474  1.8580
14968SOL     OW45481   4.202   1.643   9.457  0.7008  0.3052  0.6142
14968SOL    HW145482   4.171   1.689   9.378 -1.9477 -1.5938  0.3945
14968SOL    HW245483   4.277   1.591   9.426  0.7963  0.9295 -0.2427
14969SOL     OW45484   3.882   5.649   1.972  0.1827 -0.3377  0.1976
14969SOL    HW145485   3.944   5.623   2.040  0.5945  0.1640  0.0158
14969SOL    HW245486   3.834   5.722   2.010 -0.6578 -1.0398  0.5310
14970SOL     OW45487   5.672   0.445   0.705 -0.1492  0.0598  0.2806
14970SOL    HW145488   5.593   0.485   0.666 -1.2126 -1.8279  0.3795
14970SOL    HW245489   5.744   0.482   0.654 -0.7452  3.8534  1.8119
14971SOL     OW45490   2.948   4.748   3.609  0.9008  0.0377  0.7752
14971SOL    HW145491   3.011   4.814   3.579 -0.6693  1.3617  0.2245
14971SOL    HW245492   2.874   4.799   3.642 -0.5793 -1.4421 -0.1171
14972SOL     OW45493   0.255   2.191   0.418 -0.2427  0.0729  0.4306
14972SOL    HW145494   0.334   2.137   0.419  0.3035  0.8422  1.8268
14972SOL    HW245495   0.269   2.254   0.347  0.5781  0.4575  0.9331
14973SOL     OW45496   7.618   7.517   2.345  0.0934  0.0196 -0.2689
14973SOL    HW145497   7.571   7.504   2.428 -0.6925 -1.0602 -0.8644
14973SOL    HW245498   7.551   7.546   2.284  0.5689  0.2668 -0.6824
14974SOL     OW45499   1.652   7.815   2.442  0.6747 -0.2000  0.0932
14974SOL    HW145500   1.650   7.881   2.373  1.0384 -1.3187 -1.0016
14974SOL    HW245501   1.644   7.866   2.523  1.5906  1.2443 -0.6881
14975SOL     OW45502   4.878   5.852   0.895 -0.4617  0.1361  0.0324
14975SOL    HW145503   4.956   5.866   0.950 -0.4728 -2.0772  0.6988
14975SOL    HW245504   4.805   5.858   0.956 -0.5478 -1.2089  0.0909
14976SOL     OW45505   5.097   9.356   9.216  0.0308 -0.1833 -0.5763
14976SOL    HW145506   5.040   9.430   9.194  0.0048  0.3573  1.1953
14976SOL    HW245507   5.183   9.381   9.181 -0.5187 -0.5130 -2.2833
14977SOL     OW45508   5.552   8.100   4.829 -0.0610 -0.1329  0.0749
14977SOL    HW145509   5.589   8.167   4.772  0.2871 -0.4227 -0.0385
14977SOL    HW245510   5.627   8.062   4.875 -0.0448 -1.6450 -1.1494
14978SOL     OW45511   0.675   0.222   8.522  0.3286 -0.3228 -0.0538
14978SOL    HW145512   0.744   0.242   8.586 -0.8968  1.7787  0.7119
14978SOL    HW245513   0.597   0.266   8.556 -1.4047 -2.5015 -0.9620
14979SOL     OW45514   1.516   8.117   4.854 -0.4130  0.0249 -0.4152
14979SOL    HW145515   1.442   8.174   4.834 -1.6461 -1.1132  0.7118
14979SOL    HW245516   1.542   8.141   4.943 -0.7368 -0.9113 -0.0529
14980SOL     OW45517   6.661   1.219   6.909 -0.9698 -0.0914  0.0347
14980SOL    HW145518   6.642   1.294   6.853 -0.9320 -0.0112  0.1287
14980SOL    HW245519   6.575   1.178   6.924 -0.7748 -1.0761 -1.4203
14981SOL     OW45520   3.423   4.716   0.259 -0.6074  0.0933 -0.3146
14981SOL    HW145521   3.381   4.690   0.177 -1.6905  3.3909 -0.9417
14981SOL    HW245522   3.367   4.677   0.327 -1.6380  0.0656 -1.1509
14982SOL     OW45523   9.878   2.312   8.761  0.3996  0.0667  0.5527
14982SOL    HW145524   9.791   2.294   8.726  0.5326  1.6715 -0.6909
14982SOL    HW245525   9.863   2.337   8.852 -0.3471 -0.3973  0.5607
14983SOL     OW45526   9.615   0.906   6.705 -0.2972 -0.5749 -0.0454
14983SOL    HW145527   9.614   0.997   6.677 -1.3381 -0.6755 -0.3658
14983SOL    HW245528   9.664   0.906   6.787  0.3841  0.1480 -0.4488
14984SOL     OW45529   3.874   2.070   4.804  0.3008 -0.1791  0.3855
14984SOL    HW145530   3.943   2.065   4.739 -1.5602  0.9650 -1.8426
14984SOL    HW245531   3.893   2.150   4.853  0.8300 -0.1618  0.1591
14985SOL     OW45532   4.956   6.646   8.304 -0.3664  0.0983  0.1928
14985SOL    HW145533   4.887   6.680   8.246 -0.7740 -1.2032 -0.1077
14985SOL    HW245534   4.951   6.551   8.294 -0.2336 -0.1501  2.1359
14986SOL     OW45535   6.770   4.187   8.242  0.2150 -0.4101 -0.0558
14986SOL    HW145536   6.847   4.129   8.247 -0.2256 -0.9403  1.0960
14986SOL    HW245537   6.806   4.273   8.224  1.0191 -0.7904 -0.3214
14987SOL     OW45538   0.053   0.185   5.969  0.3531  0.0476  0.2032
14987SOL    HW145539   0.119   0.237   6.015 -0.9789  1.7270  0.3353
14987SOL    HW245540   0.052   0.220   5.880 -0.6225  0.3121  0.3104
14988SOL     OW45541   3.041   6.852   7.765 -0.2446 -0.5106 -0.1424
14988SOL    HW145542   3.037   6.932   7.817  1.0306 -0.8997  0.5793
14988SOL    HW245543   2.957   6.850   7.719 -2.5172 -1.3199  3.6194
14989SOL     OW45544   9.734   8.843   8.747 -0.4474 -0.1605  0.1024
14989SOL    HW145545   9.657   8.873   8.699 -0.1613  1.0951  0.3777
14989SOL    HW245546   9.718   8.870   8.838 -0.9302 -2.4007  0.7401
14990SOL     OW45547   5.066   2.738   1.007 -0.3551 -0.1213  0.1928
14990SOL    HW145548   5.140   2.717   1.064 -0.5434 -0.0122  0.4782
14990SOL    HW245549   5.005   2.665   1.018  0.4277 -1.0790 -1.3192
14991SOL     OW45550   0.753   1.929   1.000 -0.0173  0.2678  0.6765
14991SOL    HW145551   0.665   1.965   1.007  0.5542  1.7526  0.5264
14991SOL    HW245552   0.795   1.951   1.083 -0.0165 -1.1552  1.0856
14992SOL     OW45553   2.307   5.084   6.375 -0.3252 -0.1655 -0.0388
14992SOL    HW145554   2.392   5.067   6.416 -0.5711  0.7426  0.9023
14992SOL    HW245555   2.320   5.163   6.323 -0.6863  0.2370  0.4634
14993SOL     OW45556   1.609   4.568   0.281  0.3520 -0.2204  0.7312
14993SOL    HW145557   1.577   4.478   0.292  0.3229 -0.0863  1.9198
14993SOL    HW245558   1.569   4.598   0.199 -1.6197 -0.4723  1.5325
14994SOL     OW45559   4.264   3.997   1.453 -0.1137 -0.3819 -0.2204
14994SOL    HW145560   4.309   4.079   1.432  0.4198 -0.3790  0.8755
14994SOL    HW245561   4.171   4.017   1.439  0.1044  0.0622 -1.0632
14995SOL     OW45562   3.997   7.481   7.084  0.3203 -0.4353 -0.2532
14995SOL    HW145563   4.008   7.520   7.171 -0.0530 -1.0181  0.0562
14995SOL    HW245564   3.953   7.549   7.033 -2.0936 -1.0879  0.8192
14996SOL     OW45565   0.079   8.542   3.114  0.1319 -0.2644 -0.3292
14996SOL    HW145566   0.161   8.492   3.123  0.1403 -0.1871  0.0299
14996SOL    HW245567   0.089   8.588   3.031 -0.5242 -2.0483 -1.4497
14997SOL     OW45568   6.582   6.583   6.003 -0.2233  0.2679 -0.2624
14997SOL    HW145569   6.504   6.638   6.003 -0.1529  0.3715  0.3997
14997SOL    HW245570   6.596   6.560   6.095  0.5519  0.2894 -0.3687
14998SOL     OW45571   2.061   7.612   4.532  0.2707 -0.2425  0.0337
14998SOL    HW145572   1.973   7.642   4.510  0.2594  0.0451  0.4617
14998SOL    HW245573   2.081   7.655   4.615  1.1898  0.4534 -0.5345
14999SOL     OW45574   3.245   2.966   2.445  0.3776 -0.2971  0.1220
14999SOL    HW145575   3.206   2.906   2.381 -1.5061 -0.0315  0.9753
14999SOL    HW245576   3.172   2.996   2.499  1.2210  2.6697 -0.1622
15000SOL     OW45577   4.852   3.866   0.539 -0.1322 -0.5046 -0.0867
15000SOL    HW145578   4.946   3.869   0.520 -0.3039 -1.7343 -1.2472
15000SOL    HW245579   4.817   3.948   0.505  0.8683  1.2368  2.7189
15001SOL     OW45580   3.097   5.014   9.792 -0.0016  0.3043 -0.1463
15001SOL    HW145581   3.148   4.985   9.716 -1.1459 -0.3148 -0.7061
15001SOL    HW245582   3.122   5.106   9.804  0.7462  0.2026 -0.8049
15002SOL     OW45583   6.203   1.015   8.438  0.3688  0.1421  0.1212
15002SOL    HW145584   6.126   1.070   8.427 -0.2478 -0.9788 -1.6424
15002SOL    HW245585   6.238   1.004   8.350  2.4770  0.4626  0.8579
15003SOL     OW45586   9.905   3.548   7.349  0.8979  0.3644 -0.1345
15003SOL    HW145587   9.835   3.484   7.339  1.0359  0.3246 -0.9507
15003SOL    HW245588   9.970   3.522   7.284  1.9133  0.0923  0.9570
15004SOL     OW45589   4.892   8.004   6.306 -0.1706  0.0151 -0.2020
15004SOL    HW145590   4.866   7.957   6.227  0.5416 -0.5451 -0.1167
15004SOL    HW245591   4.811   8.013   6.357 -0.9544  1.7435 -1.6504
15005SOL     OW45592   4.098   0.507   0.951 -0.0415 -0.3482 -0.1080
15005SOL    HW145593   4.114   0.417   0.923  0.3779 -0.2864 -0.0710
15005SOL    HW245594   4.111   0.505   1.046  1.2025  0.0109 -0.2614
15006SOL     OW45595   6.844   1.409   5.207 -0.5705  0.0111 -0.8501
15006SOL    HW145596   6.763   1.445   5.243 -0.1839 -0.2501  0.3030
15006SOL    HW245597   6.817   1.327   5.164 -1.1176  0.6022 -1.6572
15007SOL     OW45598   2.998   6.528   0.342  0.1693  0.0608 -0.4850
15007SOL    HW145599   2.951   6.472   0.403  0.4554 -0.5171 -0.7900
15007SOL    HW245600   2.964   6.505   0.255  0.9191 -0.2955 -0.7022
15008SOL     OW45601   9.430   4.541   5.923  1.1125 -0.9149 -0.1386
15008SOL    HW145602   9.432   4.550   6.018  1.3195 -0.2368 -0.2045
15008SOL    HW245603   9.445   4.629   5.890 -1.4963 -0.6394 -0.7977
15009SOL     OW45604   8.502   6.933   3.479 -0.5159 -0.4962  0.0879
15009SOL    HW145605   8.522   6.993   3.550  1.4471 -0.5516 -0.3575
15009SOL    HW245606   8.546   6.851   3.502 -2.1258 -1.4223  0.0909
15010SOL     OW45607   2.928   9.200   6.110  0.0769  0.0462  0.6052
15010SOL    HW145608   2.914   9.146   6.031  1.8861 -0.6937  0.7262
15010SOL    HW245609   3.022   9.220   6.108 -0.1389  1.3013  1.7939
15011SOL     OW45610   7.229   7.176   4.932  0.0857  0.2804  0.2507
15011SOL    HW145611   7.168   7.139   4.869 -0.0547  1.8824 -0.5956
15011SOL    HW245612   7.314   7.141   4.906  0.1659  1.6133 -1.4374
15012SOL     OW45613   3.330   2.189   0.456 -0.0343  0.1938 -0.2284
15012SOL    HW145614   3.315   2.232   0.540 -0.4652 -1.3424  0.5195
15012SOL    HW245615   3.424   2.201   0.439  0.0352  0.5931  0.4129
15013SOL     OW45616   8.876   8.666   6.550 -0.3957  0.1470  0.1232
15013SOL    HW145617   8.947   8.636   6.607 -2.1669 -1.2835  1.6833
15013SOL    HW245618   8.899   8.632   6.464  0.5281 -0.7912  0.7160
15014SOL     OW45619   5.513   7.145   2.816  0.1313  0.1776  0.1581
15014SOL    HW145620   5.475   7.148   2.728  0.9085  0.5957 -0.1661
15014SOL    HW245621   5.605   7.127   2.802  0.4622  1.2354  0.8298
15015SOL     OW45622   7.388   2.006   9.593  0.0861  0.4359  0.3098
15015SOL    HW145623   7.303   2.015   9.549 -0.0427  3.4308  0.9589
15015SOL    HW245624   7.452   2.032   9.528  0.5434 -1.4349 -0.0503
15016SOL     OW45625   3.122   4.184   8.238 -0.1023  0.2017  0.2213
15016SOL    HW145626   3.082   4.109   8.195  1.7022 -0.7229  0.0462
15016SOL    HW245627   3.090   4.181   8.328 -0.6426 -0.3280  0.0142
15017SOL     OW45628   6.071   2.970   9.439  0.0999  0.8273 -0.3821
15017SOL    HW145629   6.024   2.889   9.417  3.3995 -1.1290 -0.9214
15017SOL    HW245630   6.089   3.011   9.354 -0.4188  1.4438 -0.1986
15018SOL     OW45631   6.171   4.373   5.978  0.1642 -0.8921 -0.0376
15018SOL    HW145632   6.101   4.348   6.039 -2.4982  0.2061 -2.3914
15018SOL    HW245633   6.186   4.466   5.996  1.0585 -1.1362  0.4857
15019SOL     OW45634   1.524   4.674  10.016 -0.9133  1.0834 -0.2726
15019SOL    HW145635   1.490   4.738   9.953 -0.5675  0.7562 -0.8068
15019SOL    HW245636   1.543   4.597   9.962  0.6289  1.2379  0.0177
15020SOL     OW45637   9.234   8.674   1.884 -0.0720  0.7583  0.7032
15020SOL    HW145638   9.185   8.629   1.815  1.4708  0.9477 -0.5775
15020SOL    HW245639   9.308   8.713   1.839  0.4263  1.7910  2.3284
15021SOL     OW45640   6.410   3.632   1.029  0.3326 -0.0484 -0.6827
15021SOL    HW145641   6.336   3.582   0.994 -1.2313  0.7467  1.2842
15021SOL    HW245642   6.453   3.571   1.090 -0.6633  0.4674  0.5728
15022SOL     OW45643   6.152   3.120   2.289 -0.4098 -0.7100 -0.2144
15022SOL    HW145644   6.060   3.144   2.277 -0.9888 -1.7421  1.7687
15022SOL    HW245645   6.177   3.083   2.204 -2.0848 -1.2018 -0.5418
15023SOL     OW45646   8.735   8.618   2.007  0.1353 -0.7301  0.6961
15023SOL    HW145647   8.819   8.641   1.965 -0.4638 -0.2450 -0.2773
15023SOL    HW245648   8.672   8.620   1.935 -0.6408 -1.5313  1.3438
15024SOL     OW45649   6.348   5.112   1.650  0.4413 -0.1689 -0.0515
15024SOL    HW145650   6.271   5.055   1.641  1.0924 -1.1075  0.1976
15024SOL    HW245651   6.312   5.201   1.647 -0.4885 -0.5535 -1.5022
15025SOL     OW45652   6.970   8.805   0.320  0.0345  0.2717  0.4946
15025SOL    HW145653   6.957   8.745   0.393 -3.7969 -2.1047 -1.7752
15025SOL    HW245654   6.941   8.890   0.354  2.2779  0.2411  2.7698
15026SOL     OW45655   4.193   4.102   7.765 -0.1260  0.2978 -0.0293
15026SOL    HW145656   4.242   4.061   7.695 -0.1984  0.0509  0.0634
15026SOL    HW245657   4.230   4.066   7.846  0.0446  0.6770  0.0650
15027SOL     OW45658   4.432   8.014   3.572 -0.6699 -0.3158 -0.3530
15027SOL    HW145659   4.391   7.928   3.584 -0.0976 -0.6885 -1.0219
15027SOL    HW245660   4.361   8.077   3.589 -1.7244 -0.9523 -2.1382
15028SOL     OW45661   2.133   7.954   5.436  0.7133  0.3217 -0.2162
15028SOL    HW145662   2.179   8.038   5.440 -1.7192  1.7196  0.6961
15028SOL    HW245663   2.048   7.975   5.396  0.8887 -2.1706 -2.0982
15029SOL     OW45664   6.180   4.998   5.654 -0.4115 -0.2503  0.9840
15029SOL    HW145665   6.165   4.993   5.749  0.1304  0.2022  1.0991
15029SOL    HW245666   6.126   4.928   5.618 -0.4895 -0.5439  1.6455
15030SOL     OW45667   1.132   2.078   6.998 -0.0958  0.5173 -0.6715
15030SOL    HW145668   1.083   2.113   7.073 -0.8213 -1.8497  0.0785
15030SOL    HW245669   1.065   2.061   6.932  0.3714  1.4014 -1.3896
15031SOL     OW45670   3.886   6.718   8.831 -0.3015  0.0320 -0.1043
15031SOL    HW145671   3.964   6.717   8.886 -0.2583  1.3262 -0.1235
15031SOL    HW245672   3.896   6.794   8.774 -1.3391 -0.0658 -0.4530
15032SOL     OW45673   8.459   6.701   4.649  0.0719 -0.0291  0.3711
15032SOL    HW145674   8.418   6.632   4.598 -0.9434  0.2796  0.7531
15032SOL    HW245675   8.503   6.756   4.584 -0.2720 -0.2620 -0.0605
15033SOL     OW45676   5.965   1.743   6.470 -0.0730 -0.7621 -0.5325
15033SOL    HW145677   6.048   1.783   6.494 -0.3199 -0.0471 -0.8372
15033SOL    HW245678   5.899   1.794   6.516 -0.5188  0.3067 -2.2560
15034SOL     OW45679   6.064   6.632   4.752  0.1660  0.0968 -0.0483
15034SOL    HW145680   6.116   6.552   4.759 -0.9266 -0.7959 -1.4462
15034SOL    HW245681   6.044   6.656   4.843 -1.9386 -2.9275  0.4437
15035SOL     OW45682   2.983   8.038   3.498 -0.1782  0.0416  0.2752
15035SOL    HW145683   2.924   8.110   3.518  0.0286  0.4649 -0.5951
15035SOL    HW245684   2.928   7.972   3.456  0.1523  0.9434 -1.6734
15036SOL     OW45685   7.032   2.733   4.008  0.0104 -0.3063  0.2051
15036SOL    HW145686   7.011   2.640   4.000  0.7843 -0.6348  1.7100
15036SOL    HW245687   6.969   2.767   4.071  0.5124 -0.0810  0.5917
15037SOL     OW45688   7.851   6.757   5.712  0.0289 -0.3045  0.8677
15037SOL    HW145689   7.881   6.842   5.679  1.4756 -0.9705  0.4226
15037SOL    HW245690   7.797   6.722   5.641 -1.0849  0.4841  1.2957
15038SOL     OW45691   7.212   1.064   7.174  0.3771  0.2773 -0.2261
15038SOL    HW145692   7.208   1.153   7.209  0.1557 -0.0543  0.6192
15038SOL    HW245693   7.287   1.065   7.114  0.8823  0.8193  0.3993
15039SOL     OW45694   9.714   6.286   5.827 -0.3979  0.6859  0.5173
15039SOL    HW145695   9.653   6.305   5.755 -1.8072  0.3738  1.5735
15039SOL    HW245696   9.657   6.270   5.902  0.7909 -2.7866  0.8851
15040SOL     OW45697   0.499   4.847   3.972 -0.3563  0.0356 -0.1980
15040SOL    HW145698   0.476   4.932   3.934  1.0945 -0.2696 -1.8960
15040SOL    HW245699   0.578   4.865   4.024  0.0159 -0.2690 -0.6456
15041SOL     OW45700   3.451   3.359   9.381  0.2750  0.3217  0.3983
15041SOL    HW145701   3.401   3.386   9.458 -1.6701 -1.7744 -0.0349
15041SOL    HW245702   3.465   3.265   9.393  0.3951  0.0494 -1.5307
15042SOL     OW45703   7.421   3.906   7.028 -0.2814 -0.1588  0.6435
15042SOL    HW145704   7.486   3.912   7.098 -0.7034  0.2859  1.0034
15042SOL    HW245705   7.441   3.823   6.984  2.0318  1.0182 -0.7656
15043SOL     OW45706   1.004   3.699   2.031 -0.1477  0.5089  0.5871
15043SOL    HW145707   0.949   3.628   2.065  1.1234 -0.8118 -0.0052
15043SOL    HW245708   1.005   3.763   2.102 -2.1419  0.4470  0.7470
15044SOL     OW45709   0.576   6.817   1.987  0.2025 -0.0680  0.1205
15044SOL    HW145710   0.529   6.734   1.978  0.9693 -0.5466  0.4737
15044SOL    HW245711   0.624   6.809   2.069  1.5081  0.0924 -0.5955
15045SOL     OW45712   7.589   9.935   8.929  0.5572 -0.1271  0.1293
15045SOL    HW145713   7.546   9.890   9.002  2.2213 -0.1764  1.1233
15045SOL    HW245714   7.682   9.927   8.947  0.9581  1.7042 -0.8990
15046SOL     OW45715   8.496   3.006   1.632  0.0050  0.3165 -0.2538
15046SOL    HW145716   8.579   2.985   1.677 -1.1513  0.7117  2.2255
15046SOL    HW245717   8.433   2.943   1.668 -0.9931  0.6013 -1.4452
15047SOL     OW45718   1.884   2.609   0.224 -0.0324  0.3009  0.3548
15047SOL    HW145719   1.875   2.693   0.180  0.0081 -1.1777 -2.7251
15047SOL    HW245720   1.956   2.566   0.179 -0.9040 -1.9035  0.9563
15048SOL     OW45721   8.111   8.896   5.406  0.8649  0.0438  0.7332
15048SOL    HW145722   8.031   8.947   5.392  0.6913 -0.4099  0.0212
15048SOL    HW245723   8.162   8.910   5.326  1.5036  0.3424  1.1926
15049SOL     OW45724   8.422   5.357   1.849 -0.3799 -0.0760  0.6645
15049SOL    HW145725   8.509   5.320   1.866  0.5250  1.7639  0.3583
15049SOL    HW245726   8.379   5.357   1.934  0.9993  1.5419  1.4167
15050SOL     OW45727   6.541   8.954   8.145  0.0223  1.1179  0.6855
15050SOL    HW145728   6.521   8.902   8.223 -0.1145  0.6387  0.3344
15050SOL    HW245729   6.636   8.965   8.148 -0.0075  1.2897  1.0390
15051SOL     OW45730   6.712   9.796   1.703  0.7443  0.2007  0.1038
15051SOL    HW145731   6.654   9.810   1.778  0.2483 -0.5660 -0.1297
15051SOL    HW245732   6.798   9.822   1.736  0.3296  1.1369  0.5257
15052SOL     OW45733   6.076   7.398   8.833  0.7683  0.0391  0.0285
15052SOL    HW145734   6.170   7.409   8.823  0.9642 -0.7564  0.9048
15052SOL    HW245735   6.066   7.334   8.903 -0.4351  0.5926  0.3907
15053SOL     OW45736   8.385   9.824   7.367  0.3078  0.4396 -0.4194
15053SOL    HW145737   8.368   9.761   7.298  0.2855  0.1774 -0.1751
15053SOL    HW245738   8.462   9.790   7.413 -0.0067  0.3173  0.0317
15054SOL     OW45739   0.030   5.335   5.202  0.5398 -0.2155  0.4532
15054SOL    HW145740   0.117   5.295   5.194  0.8114  0.4055  0.3061
15054SOL    HW245741   0.036   5.417   5.154  0.2204  0.3866  1.4094
15055SOL     OW45742   7.283   3.450   4.791 -0.1159  0.3435  0.2156
15055SOL    HW145743   7.275   3.529   4.738 -1.5533  0.9711  1.2971
15055SOL    HW245744   7.233   3.469   4.871 -1.1268 -1.9072  0.2017
15056SOL     OW45745   5.251   0.852   6.174 -0.4325 -0.4628  0.4614
15056SOL    HW145746   5.328   0.800   6.196 -0.4766 -0.9491 -0.4775
15056SOL    HW245747   5.211   0.873   6.259 -3.5690 -6.6317  1.1432
15057SOL     OW45748   8.045   3.294   0.589 -0.1198  0.7769 -0.0935
15057SOL    HW145749   8.074   3.230   0.654 -0.6697 -1.0087 -1.5295
15057SOL    HW245750   7.962   3.328   0.623  1.0858  2.2280  1.6085
15058SOL     OW45751   9.853   7.884   2.343 -0.2507  0.1074  0.2736
15058SOL    HW145752   9.866   7.825   2.269 -1.0417  0.3326 -0.0538
15058SOL    HW245753   9.883   7.833   2.419  1.9041  0.3720 -0.3196
15059SOL     OW45754   0.123   7.489   0.700  0.0125 -0.0016  0.2801
15059SOL    HW145755   0.081   7.455   0.621 -0.2059 -1.1560  0.8638
15059SOL    HW245756   0.184   7.555   0.668  0.3871 -0.8844 -0.9257
15060SOL     OW45757   7.385   7.508   8.203 -0.7773 -0.0308 -0.4968
15060SOL    HW145758   7.454   7.444   8.220  1.6556  2.1616 -1.4584
15060SOL    HW245759   7.307   7.470   8.243  1.0520 -2.4308  1.0845
15061SOL     OW45760   0.659   7.393   6.440  0.4529 -0.0027 -0.2933
15061SOL    HW145761   0.717   7.348   6.379 -1.3943 -1.0020 -1.4310
15061SOL    HW245762   0.632   7.325   6.502  0.8686  0.5707  0.5409
15062SOL     OW45763   8.810   8.765   2.256  0.2724 -0.3572  0.1378
15062SOL    HW145764   8.730   8.805   2.289 -0.5269 -2.3164  0.7107
15062SOL    HW245765   8.781   8.702   2.190  1.6439  1.4513 -2.3789
15063SOL     OW45766   8.101   0.103   0.203 -0.1739  0.3393  0.2769
15063SOL    HW145767   8.145   0.040   0.147 -0.8167  0.6269 -0.5789
15063SOL    HW245768   8.126   0.188   0.168 -0.0350  0.5430  0.8604
15064SOL     OW45769   7.592   3.219   1.995 -0.2959  0.1913 -0.6317
15064SOL    HW145770   7.544   3.299   2.017 -3.5893 -1.1065 -2.3811
15064SOL    HW245771   7.565   3.198   1.905 -2.6432 -4.7265  0.8248
15065SOL     OW45772   4.658   0.202   9.714 -0.0610 -0.0998 -0.1164
15065SOL    HW145773   4.688   0.277   9.662  0.6138 -0.8840 -0.9067
15065SOL    HW245774   4.738   0.167   9.753 -0.3859 -0.3427  0.3394
15066SOL     OW45775   7.725   9.877   4.839 -0.1006  0.1426 -0.1280
15066SOL    HW145776   7.747   9.955   4.788  0.5457 -1.5113 -2.5350
15066SOL    HW245777   7.804   9.823   4.836 -1.3309 -1.7247 -0.7378
15067SOL     OW45778   1.785   0.580   7.085  0.1375 -0.2851  0.1058
15067SOL    HW145779   1.705   0.534   7.112 -0.2091  0.1453 -0.1691
15067SOL    HW245780   1.855   0.517   7.100 -0.0372 -0.0726  1.9477
15068SOL     OW45781   7.900   3.260   1.851 -0.2774 -0.2478 -0.0027
15068SOL    HW145782   7.971   3.274   1.912  1.2080 -1.6094 -1.3339
15068SOL    HW245783   7.832   3.216   1.902  0.6185 -0.6903  0.8274
15069SOL     OW45784   2.017   3.762   6.588  0.0901  0.3773 -0.5115
15069SOL    HW145785   2.053   3.673   6.581 -0.5257  0.1164 -0.3581
15069SOL    HW245786   2.078   3.815   6.536  0.9649  0.0228  0.1179
15070SOL     OW45787   0.183   6.713   1.097  0.1878 -0.2359  0.5151
15070SOL    HW145788   0.189   6.788   1.039  2.1096 -0.3598  0.4900
15070SOL    HW245789   0.166   6.750   1.183 -2.9817 -0.0648 -0.0620
15071SOL     OW45790   2.945   0.376   0.431  0.7592  0.3486  0.7364
15071SOL    HW145791   2.931   0.321   0.354  1.7384  0.5756  0.3898
15071SOL    HW245792   2.870   0.437   0.430 -0.3721 -0.9949  1.1689
15072SOL     OW45793   1.282   9.250   8.789 -0.4417  0.0535 -0.7332
15072SOL    HW145794   1.327   9.289   8.864  0.5989 -1.7151 -0.3883
15072SOL    HW245795   1.311   9.302   8.714 -1.0039  1.4506 -0.0107
15073SOL     OW45796   9.153   7.442   4.932  0.0632  0.0878 -0.6285
15073SOL    HW145797   9.111   7.367   4.975 -0.6593  1.2775  0.8218
15073SOL    HW245798   9.143   7.424   4.838 -2.3274 -0.4734 -0.3324
15074SOL     OW45799   7.061   0.256   9.292 -0.1482 -0.4016 -0.0442
15074SOL    HW145800   7.051   0.182   9.352 -1.8074  0.0234  0.2429
15074SOL    HW245801   7.145   0.240   9.249 -0.4945 -2.4960 -0.0621
15075SOL     OW45802   9.836   9.833   3.924 -0.0587 -0.9004  0.4722
15075SOL    HW145803   9.778   9.778   3.976 -0.1922 -0.8992  0.3247
15075SOL    HW245804   9.778   9.896   3.881 -0.1360 -1.8460 -0.8673
15076SOL     OW45805   3.177   1.045   8.388 -0.3200  0.4238  0.2116
15076SOL    HW145806   3.229   1.055   8.308 -0.7824  1.2563  0.0075
15076SOL    HW245807   3.231   0.989   8.444  1.1012  1.7681  0.2591
15077SOL     OW45808   9.289   6.486   3.848  0.0554 -0.0667 -0.4160
15077SOL    HW145809   9.244   6.446   3.922 -0.0008  2.1378  0.8601
15077SOL    HW245810   9.373   6.514   3.884  0.9685 -0.8894 -1.8082
15078SOL     OW45811   9.642   6.502   7.402 -0.0031 -0.3668 -0.1653
15078SOL    HW145812   9.687   6.421   7.423  0.0883 -0.7126 -1.5846
15078SOL    HW245813   9.707   6.555   7.357 -0.0501  0.5270  0.7814
15079SOL     OW45814   0.284   8.553   4.578 -0.5728 -0.2455 -0.1508
15079SOL    HW145815   0.336   8.502   4.515  0.4645  0.7220 -0.1054
15079SOL    HW245816   0.215   8.592   4.526  0.6536  1.0691 -0.8543
15080SOL     OW45817   8.637   1.543   6.821  0.5009 -0.5064  0.0376
15080SOL    HW145818   8.575   1.473   6.845 -1.1688  1.2412  1.0666
15080SOL    HW245819   8.654   1.590   6.902  2.5655 -0.4014 -0.4021
15081SOL     OW45820   8.326   7.979   2.446 -0.5564 -0.2612 -0.2686
15081SOL    HW145821   8.385   7.925   2.498 -0.2173 -0.1983 -0.5808
15081SOL    HW245822   8.373   8.061   2.434 -0.6510 -0.2568 -0.6276
15082SOL     OW45823   2.640   7.882   9.755  0.0702  0.0461  0.1032
15082SOL    HW145824   2.671   7.874   9.665  1.9556  0.5744  0.6648
15082SOL    HW245825   2.720   7.886   9.808 -0.8420  3.2128  1.4815
15083SOL     OW45826   4.088   5.770   4.566 -0.7873  0.0559 -0.6145
15083SOL    HW145827   4.131   5.837   4.618 -0.1159  0.1911 -1.3193
15083SOL    HW245828   4.097   5.800   4.475  0.0297 -1.2500 -0.9958
15084SOL     OW45829   7.821   9.688   9.452 -0.2774 -0.0012 -0.5028
15084SOL    HW145830   7.864   9.684   9.367 -0.0756 -2.9831 -0.3546
15084SOL    HW245831   7.728   9.676   9.433 -0.2811 -0.2444 -0.3383
15085SOL     OW45832   4.941   7.766   2.412  0.4935  0.2739 -0.1908
15085SOL    HW145833   4.880   7.699   2.381 -0.2069  0.7388  0.1383
15085SOL    HW245834   4.921   7.843   2.358  1.3111  0.2206 -0.5892
15086SOL     OW45835   8.495   9.912   3.545 -0.1852 -0.0617 -0.3377
15086SOL    HW145836   8.500   9.920   3.450 -0.0764 -0.2376 -0.3495
15086SOL    HW245837   8.571   9.857   3.568 -1.4491 -1.9423 -0.3909
15087SOL     OW45838   8.553   4.349   3.787 -0.0790 -0.1765 -0.3825
15087SOL    HW145839   8.565   4.365   3.693  0.0771  1.1440 -0.1673
15087SOL    HW245840   8.459   4.331   3.796 -0.5329  1.7925 -0.5738
15088SOL     OW45841   8.215   7.269   1.307  0.1729 -0.6892  0.2802
15088SOL    HW145842   8.224   7.277   1.402 -1.7197 -1.4576  0.5763
15088SOL    HW245843   8.234   7.177   1.289 -0.6815 -0.8415  0.1048
15089SOL     OW45844   8.321   5.579   2.434 -0.5000  0.4238 -0.5042
15089SOL    HW145845   8.409   5.600   2.402  0.0265 -0.7794  0.1162
15089SOL    HW245846   8.313   5.627   2.516  0.3287 -0.9283  0.4098
15090SOL     OW45847   6.352   4.793   1.199  0.4713  0.3700  0.2429
15090SOL    HW145848   6.261   4.780   1.169  0.6155  1.8267 -0.9224
15090SOL    HW245849   6.369   4.717   1.254 -0.8843 -0.8628 -0.9240
15091SOL     OW45850   3.354   5.494   6.297  0.1977 -0.0842  0.3509
15091SOL    HW145851   3.311   5.408   6.298  0.9561 -0.4865 -0.2826
15091SOL    HW245852   3.418   5.487   6.227  1.6512  0.3115  1.5974
15092SOL     OW45853   4.694   9.410   2.924 -0.8889 -0.2989  0.1229
15092SOL    HW145854   4.707   9.350   2.851  0.7269 -1.2624  1.1454
15092SOL    HW245855   4.763   9.475   2.914 -1.5642  0.4225  0.0060
15093SOL     OW45856   7.229   5.269   2.423 -0.2510  0.0391  0.0992
15093SOL    HW145857   7.167   5.296   2.491  3.0475  1.5104  2.8516
15093SOL    HW245858   7.244   5.348   2.372  0.3177  0.0742  0.3145
15094SOL     OW45859   7.486   9.836   9.197 -0.3490 -0.4108 -0.2749
15094SOL    HW145860   7.554   9.788   9.245  0.4973  0.8870 -0.1336
15094SOL    HW245861   7.441   9.887   9.264 -1.4112 -1.1608 -0.3904
15095SOL     OW45862   0.381   8.698   8.304 -0.6914 -0.0213  0.0478
15095SOL    HW145863   0.418   8.611   8.320  0.0295  0.2481 -0.1160
15095SOL    HW245864   0.451   8.746   8.259 -0.9468  0.7686  0.4776
15096SOL     OW45865   9.080   1.779   0.749  0.1417 -0.0630 -0.1914
15096SOL    HW145866   9.155   1.831   0.775 -0.8007  0.9902  0.5199
15096SOL    HW245867   9.090   1.696   0.796  0.5588  0.2951  0.3568
15097SOL     OW45868   0.885   1.250   9.276  0.3982 -0.1581 -1.1489
15097SOL    HW145869   0.798   1.283   9.254 -0.3005 -1.3204 -0.2715
15097SOL    HW245870   0.898   1.277   9.367  1.0383  0.1822 -1.3400
15098SOL     OW45871   5.250   8.699   6.687  0.0608  0.3178 -0.6218
15098SOL    HW145872   5.337   8.738   6.684 -0.5047  1.5600 -1.3378
15098SOL    HW245873   5.229   8.678   6.596 -0.0263 -0.8494 -0.3561
15099SOL     OW45874   3.319   7.541   1.537  0.5427  0.4169  0.6455
15099SOL    HW145875   3.302   7.490   1.616  2.1444  0.0982  0.8194
15099SOL    HW245876   3.414   7.559   1.539  0.8450 -0.4995 -1.6961
15100SOL     OW45877   8.764   2.645   3.263  0.1912 -0.1976 -0.0938
15100SOL    HW145878   8.773   2.556   3.231  1.0997  0.1115 -0.7372
15100SOL    HW245879   8.832   2.654   3.329 -0.8226 -0.4146  1.0090
15101SOL     OW45880   3.630   4.443   4.436  0.0553  0.4168  0.0308
15101SOL    HW145881   3.579   4.524   4.429  0.4812  0.9569  2.5146
15101SOL    HW245882   3.716   4.471   4.467  0.3296 -0.9627  0.5743
15102SOL     OW45883   1.618   5.602   9.103 -0.2840 -0.3658 -1.0190
15102SOL    HW145884   1.554   5.535   9.079 -0.6989 -0.1148 -0.6270
15102SOL    HW245885   1.568   5.683   9.107 -0.2882 -0.4204  0.8518
15103SOL     OW45886   6.681   4.916   9.944  0.3128 -0.4035 -0.1003
15103SOL    HW145887   6.617   4.965   9.892  0.6242  0.8100  0.6054
15103SOL    HW245888   6.766   4.953   9.919  0.5461 -0.5105  0.5063
15104SOL     OW45889   2.618   6.590   8.623 -0.4367  0.1401  0.0480
15104SOL    HW145890   2.537   6.543   8.605 -0.5135 -0.3574  1.5546
15104SOL    HW245891   2.662   6.537   8.690 -0.4627  2.1178  1.7066
15105SOL     OW45892   5.997   2.376   0.083  0.2477 -0.2675 -1.0331
15105SOL    HW145893   6.065   2.430   0.123  1.0666 -1.5741 -0.5932
15105SOL    HW245894   6.039   2.335   0.007 -0.0436 -1.0679 -0.7786
15106SOL     OW45895   7.422   2.186   1.795  0.3173  0.1617  0.1131
15106SOL    HW145896   7.438   2.158   1.705 -4.4521  0.1462 -1.0204
15106SOL    HW245897   7.439   2.108   1.848 -2.0972 -1.7005 -1.6199
15107SOL     OW45898   9.382   5.335   7.788 -0.0485  0.6155 -0.1960
15107SOL    HW145899   9.410   5.353   7.698 -1.2030 -0.5380 -0.8030
15107SOL    HW245900   9.420   5.407   7.839  0.2983  1.5058 -1.6506
15108SOL     OW45901   3.578   4.750   6.204  0.2396 -0.0471 -0.2136
15108SOL    HW145902   3.584   4.763   6.109 -0.2604 -0.2107 -0.2704
15108SOL    HW245903   3.583   4.655   6.215 -0.5639 -0.0871 -0.1457
15109SOL     OW45904   6.104   0.876   7.687  0.0004  0.4051  0.4995
15109SOL    HW145905   6.020   0.921   7.692 -0.7486 -1.0130  0.9124
15109SOL    HW245906   6.168   0.947   7.675 -1.2895  1.4441 -0.4757
15110SOL     OW45907   7.401   2.468   6.924 -0.0022  0.1242 -0.0403
15110SOL    HW145908   7.428   2.383   6.889 -0.4657 -0.5050  1.0747
15110SOL    HW245909   7.357   2.511   6.850  1.2221 -0.1226 -0.9398
15111SOL     OW45910   9.608   6.968   6.455  0.1855 -0.0182 -0.4675
15111SOL    HW145911   9.601   6.980   6.360  3.6937 -1.1304 -1.0172
15111SOL    HW245912   9.528   6.921   6.479 -1.4813  1.5401 -2.5423
15112SOL     OW45913   5.381   2.292   6.728  0.5031 -0.0776 -0.0400
15112SOL    HW145914   5.444   2.229   6.694 -0.9150 -1.0954 -0.9071
15112SOL    HW245915   5.344   2.249   6.806  0.3821  0.1957  0.0535
15113SOL     OW45916   4.354   0.462   2.625  0.1310 -0.1429  0.0848
15113SOL    HW145917   4.342   0.414   2.543  0.4871 -2.0420  1.0878
15113SOL    HW245918   4.434   0.426   2.663  0.6505  1.5872  0.6940
15114SOL     OW45919   3.892   7.889   2.082  0.0806 -0.3416  0.1534
15114SOL    HW145920   3.954   7.871   2.152 -0.8922 -0.9361  0.9009
15114SOL    HW245921   3.944   7.888   2.002  1.4671  1.7164  0.9468
15115SOL     OW45922   9.746   5.877   9.209  0.0666 -0.4761  0.0151
15115SOL    HW145923   9.808   5.924   9.154 -0.0052 -0.8091 -0.3537
15115SOL    HW245924   9.731   5.936   9.283  0.8399 -0.4070  0.1276
15116SOL     OW45925   9.503   3.949   0.850  0.1121 -0.2087  0.1285
15116SOL    HW145926   9.427   3.890   0.847 -0.0768  0.0659 -0.7817
15116SOL    HW245927   9.578   3.891   0.838  0.1475 -0.6009  1.8814
15117SOL     OW45928   4.598   7.867   4.708 -0.0017 -0.2939  0.8116
15117SOL    HW145929   4.688   7.897   4.696  0.2894  0.2971  3.6678
15117SOL    HW245930   4.554   7.888   4.625  1.7718  2.1576  0.3711
15118SOL     OW45931   1.644   1.010   7.304  0.1407 -0.3310  0.3910
15118SOL    HW145932   1.602   0.966   7.231  1.6187 -2.2213  0.6108
15118SOL    HW245933   1.736   1.018   7.278  0.6720 -0.9413  1.9544
15119SOL     OW45934   7.062   1.094   2.182 -0.3921  0.4478 -0.1922
15119SOL    HW145935   7.115   1.161   2.225 -0.0875  1.0689 -1.4594
15119SOL    HW245936   7.126   1.033   2.145 -0.4508  1.5108 -2.2245
15120SOL     OW45937   0.206   3.886   4.716  0.1193 -0.3185 -0.5521
15120SOL    HW145938   0.150   3.905   4.640  2.2580  1.0087 -1.9055
15120SOL    HW245939   0.174   3.945   4.784 -0.4276  0.0677 -1.1277
15121SOL     OW45940   3.236   5.695   4.697  0.1848 -0.3799 -0.0007
15121SOL    HW145941   3.142   5.683   4.684  0.3024 -1.4083  0.0344
15121SOL    HW245942   3.248   5.693   4.792 -0.0285  2.0667  0.1339
15122SOL     OW45943   2.934   1.357   8.312 -0.2491  0.4704  0.3369
15122SOL    HW145944   2.978   1.429   8.357  2.5560 -0.4204 -0.7247
15122SOL    HW245945   2.986   1.280   8.335 -1.4861 -0.7446 -0.7686
15123SOL     OW45946   1.832   9.722   6.962 -0.3091 -0.4427 -0.5806
15123SOL    HW145947   1.876   9.799   6.927  0.2194  0.2669  1.5241
15123SOL    HW245948   1.756   9.757   7.010  0.7798 -1.0227  1.7015
15124SOL     OW45949   8.416   8.525   4.743  0.3730  0.0421 -0.7148
15124SOL    HW145950   8.442   8.547   4.654  0.4302  0.6140 -0.5591
15124SOL    HW245951   8.430   8.430   4.749  2.0875  0.2486 -0.7544
15125SOL     OW45952   0.259   3.007   1.539  0.2307  0.4141 -0.0819
15125SOL    HW145953   0.235   3.094   1.508  3.1309  1.6761  0.8474
15125SOL    HW245954   0.337   2.984   1.488  0.9492 -0.5195  1.3705
15126SOL     OW45955   9.116   1.109   1.593 -0.4004  0.0642 -0.1022
15126SOL    HW145956   9.099   1.145   1.506 -1.3350 -0.2842 -0.0688
15126SOL    HW245957   9.053   1.152   1.650 -0.5308 -0.5179  0.2052
15127SOL     OW45958   9.297   9.246   2.195  0.4558  0.1506  0.4339
15127SOL    HW145959   9.218   9.276   2.150  0.2021 -0.7302  0.2701
15127SOL    HW245960   9.308   9.307   2.267 -0.8422 -0.1598  0.9290
15128SOL     OW45961   2.656   7.850   2.519  0.6956  0.1298  0.0967
15128SOL    HW145962   2.634   7.942   2.532  1.7302  0.2346  1.3306
15128SOL    HW245963   2.661   7.839   2.424 -0.1828  1.1434 -0.0904
15129SOL     OW45964   9.471   0.717   7.354  0.0252  0.2124  0.0209
15129SOL    HW145965   9.431   0.777   7.291  0.7570  0.5764 -0.1199
15129SOL    HW245966   9.544   0.768   7.392  0.8879 -0.6970 -0.3622
15130SOL     OW45967   7.626   4.675   3.722  0.4662  0.3518 -0.5456
15130SOL    HW145968   7.661   4.596   3.762  1.9293  0.3030 -1.8256
15130SOL    HW245969   7.612   4.735   3.795  0.5609 -0.6263  0.3011
15131SOL     OW45970   1.801   4.818   8.320  0.0046  0.0870  0.4855
15131SOL    HW145971   1.883   4.864   8.336  1.4359 -1.5061 -1.6438
15131SOL    HW245972   1.740   4.886   8.291  1.4720  0.9418 -0.7535
15132SOL     OW45973   9.371  -0.029   9.731  0.0076  0.4378 -0.3811
15132SOL    HW145974   9.301  -0.009   9.792 -0.4535  2.3003 -1.4381
15132SOL    HW245975   9.434   0.043   9.742  2.0628 -1.4353  0.9009
15133SOL     OW45976   4.689   3.386   3.426 -0.0604 -0.4449  0.3526
15133SOL    HW145977   4.680   3.473   3.386 -0.4891 -0.6533 -0.0134
15133SOL    HW245978   4.774   3.389   3.470  0.5860 -0.3316 -0.8614
15134SOL     OW45979   9.582   3.058   2.996  0.5608 -0.1962 -0.0953
15134SOL    HW145980   9.658   3.079   3.050 -0.1205  2.0896  0.1043
15134SOL    HW245981   9.615   3.057   2.906  1.0117 -0.1846  0.0703
15135SOL     OW45982   5.652   2.189   2.964  0.3698  0.1082 -0.0535
15135SOL    HW145983   5.728   2.242   2.938  1.0378 -0.9269 -0.2673
15135SOL    HW245984   5.690   2.107   2.996 -0.6437 -0.2250  0.3194
15136SOL     OW45985   3.471   1.315   9.728  0.3650  0.2977 -0.4020
15136SOL    HW145986   3.466   1.328   9.633 -0.3861 -0.9920 -0.5687
15136SOL    HW245987   3.432   1.394   9.765 -0.4230  0.3061 -1.2075
15137SOL     OW45988   1.708   5.875   3.059 -0.1136  0.1250  0.2979
15137SOL    HW145989   1.623   5.909   3.087 -0.7095 -1.7134  0.8708
15137SOL    HW245990   1.693   5.844   2.970  0.6778  2.1010 -0.5893
15138SOL     OW45991   9.389   0.433   3.548  0.1062  0.1176 -0.3676
15138SOL    HW145992   9.437   0.486   3.612 -0.7298  0.6640 -0.1668
15138SOL    HW245993   9.384   0.489   3.471  1.1046 -0.5373 -0.9296
15139SOL     OW45994   4.660   6.577   1.683  0.5304 -0.0221 -0.6887
15139SOL    HW145995   4.623   6.553   1.768 -1.1575  1.1471 -1.0325
15139SOL    HW245996   4.629   6.509   1.623  1.7458 -0.8636 -0.3902
15140SOL     OW45997   7.327   3.431   8.703  0.2527 -0.2762  0.3735
15140SOL    HW145998   7.355   3.523   8.703 -0.1796 -0.1305  1.5302
15140SOL    HW245999   7.359   3.396   8.619  2.2169  0.3813  0.7954
15141SOL     OW46000   8.663   6.334   4.700  0.1057 -0.5366 -0.5471
15141SOL    HW146001   8.722   6.338   4.775  0.5357  0.9303 -0.9254
15141SOL    HW246002   8.720   6.332   4.624 -0.2489  1.8139 -0.9583
15142SOL     OW46003   8.706   3.454   8.761  0.0597  0.2182  0.5143
15142SOL    HW146004   8.645   3.514   8.806 -2.1313 -0.4138 -1.4205
15142SOL    HW246005   8.716   3.381   8.822 -0.8942  0.4730  1.0032
15143SOL     OW46006   6.043   0.252   0.463  0.1266 -0.3947 -0.3412
15143SOL    HW146007   6.075   0.178   0.516  0.6368  0.4490  0.5561
15143SOL    HW246008   6.022   0.320   0.527 -0.2330  0.2814 -1.1652
15144SOL     OW46009   4.152   9.784   4.300 -0.3778  0.3994  0.3916
15144SOL    HW146010   4.181   9.721   4.366 -0.4063  1.6826  1.6807
15144SOL    HW246011   4.078   9.742   4.257 -0.0864 -0.6424  0.8768
15145SOL     OW46012   2.333   8.494   6.367  0.1317 -0.1055  0.2923
15145SOL    HW146013   2.241   8.506   6.343 -0.1542 -1.1843  0.7885
15145SOL    HW246014   2.362   8.581   6.396 -0.4865  0.4261 -0.6349
15146SOL     OW46015   6.906   0.855   3.129 -0.2767 -0.5706 -0.4903
15146SOL    HW146016   6.944   0.942   3.144  0.0174 -0.7310 -0.3051
15146SOL    HW246017   6.971   0.794   3.164 -0.4261 -0.8713 -0.7314
15147SOL     OW46018   1.192   1.698   4.506  0.2585 -0.0914 -0.3786
15147SOL    HW146019   1.183   1.791   4.526  1.2750  0.1969 -1.1857
15147SOL    HW246020   1.191   1.655   4.591  1.0824  0.7820  0.0882
15148SOL     OW46021   5.190   7.286   0.285 -0.1497  0.1640  0.5350
15148SOL    HW146022   5.267   7.234   0.308  0.8676  1.0917 -0.6240
15148SOL    HW246023   5.194   7.293   0.190 -0.8194  1.5030  0.5897
15149SOL     OW46024   3.116   3.226   6.991  0.4228  0.4261 -0.2920
15149SOL    HW146025   3.068   3.143   6.998  0.3154  0.6581  2.6352
15149SOL    HW246026   3.057   3.291   7.028  1.2166  1.5252 -0.9027
15150SOL     OW46027   1.308   9.776   7.905 -0.3213  0.5229 -0.3814
15150SOL    HW146028   1.226   9.728   7.892 -0.8179  0.6899  1.7521
15150SOL    HW246029   1.287   9.867   7.884 -1.2175  0.8668  1.7705
15151SOL     OW46030   7.875   4.159   0.453 -0.5053  0.2071 -0.3162
15151SOL    HW146031   7.863   4.067   0.476  0.9593 -0.0899 -0.6445
15151SOL    HW246032   7.966   4.165   0.422  0.0096  2.1121  1.3597
15152SOL     OW46033   0.154   5.949   2.103 -0.4754  0.2896 -0.8618
15152SOL    HW146034   0.083   5.941   2.039 -1.2169 -0.4996  0.0297
15152SOL    HW246035   0.126   5.895   2.176  0.8271  0.3790 -0.2772
15153SOL     OW46036   0.256   9.901   9.589  0.0680 -0.1858  0.3564
15153SOL    HW146037   0.341   9.898   9.546 -0.9720  1.3497 -2.0026
15153SOL    HW246038   0.271   9.864   9.676  2.8639 -0.9946 -0.3951
15154SOL     OW46039   5.925   9.905   6.792  0.4828  0.0991 -0.0418
15154SOL    HW146040   6.011   9.949   6.793  0.5455  0.0170 -0.9765
15154SOL    HW246041   5.926   9.851   6.871  0.6691  1.2512  0.7898
15155SOL     OW46042   6.060   3.985   9.740 -0.8104 -0.2378 -0.5891
15155SOL    HW146043   6.016   4.007   9.822  1.2856 -3.2617  1.5693
15155SOL    HW246044   6.019   3.903   9.712 -1.3390  0.6346 -2.5604
15156SOL     OW46045   8.473   7.706   3.714 -0.8839  0.2002  0.2410
15156SOL    HW146046   8.471   7.767   3.641 -0.4869  0.5459  0.5187
15156SOL    HW246047   8.451   7.759   3.791 -1.7976 -0.2561  0.3118
15157SOL     OW46048   5.487   8.674   6.343 -0.2129  0.3588 -0.2082
15157SOL    HW146049   5.540   8.729   6.401 -0.2384  1.3013 -1.0549
15157SOL    HW246050   5.533   8.590   6.343  0.5013  0.7319  0.1688
15158SOL     OW46051   6.035   9.326   7.878  0.0627  0.3023  0.4176
15158SOL    HW146052   5.981   9.264   7.829  2.3785 -1.1933 -0.4162
15158SOL    HW246053   6.022   9.409   7.833  0.4284 -0.5815 -1.4540
15159SOL     OW46054   6.262   0.210   1.918 -0.5199  0.5239 -0.4952
15159SOL    HW146055   6.209   0.132   1.902 -1.7032  1.0811  0.5381
15159SOL    HW246056   6.283   0.206   2.012  1.6139  0.1336 -0.9274
15160SOL     OW46057   3.868   1.418   0.671  0.9951  0.2924  0.2448
15160SOL    HW146058   3.819   1.352   0.721 -0.2048  0.1628 -1.0313
15160SOL    HW246059   3.872   1.382   0.582  0.4254  1.8780 -0.4547
15161SOL     OW46060   2.340   6.427   5.612  0.8809 -0.4107 -0.4991
15161SOL    HW146061   2.298   6.473   5.684  1.2688 -0.6446 -0.1202
15161SOL    HW246062   2.413   6.483   5.586  1.3151 -0.7711 -0.0789
15162SOL     OW46063   8.114   5.661   8.260 -0.8246 -0.4131 -0.0144
15162SOL    HW146064   8.194   5.671   8.311 -0.6199  1.8420 -0.6700
15162SOL    HW246065   8.096   5.567   8.261  0.4964 -0.7028  2.1297
15163SOL     OW46066   9.696   4.214   1.876  0.1918 -0.2130  0.0960
15163SOL    HW146067   9.754   4.138   1.872  0.2897 -0.1682  0.5802
15163SOL    HW246068   9.709   4.249   1.964  0.2724  0.4620 -0.1807
15164SOL     OW46069   6.752   5.306   2.874 -0.1830 -0.2182  0.5992
15164SOL    HW146070   6.686   5.240   2.852  0.5296 -0.8636  0.3555
15164SOL    HW246071   6.767   5.353   2.792 -0.5702  0.1437  0.7329
15165SOL     OW46072   0.050   3.316   9.085  0.2779 -0.2085  0.0343
15165SOL    HW146073  -0.028   3.366   9.062  2.2497  2.1563 -2.1275
15165SOL    HW246074   0.112   3.382   9.116  1.5360 -1.9844  1.4881
15166SOL     OW46075   2.916   4.313   4.093 -0.2217  0.1746  0.5586
15166SOL    HW146076   2.922   4.348   4.182  0.7477 -0.0539  0.5997
15166SOL    HW246077   2.836   4.260   4.094  0.1954 -0.4871  1.5518
15167SOL     OW46078   9.854   4.098   0.678  0.3855  0.1485 -0.5306
15167SOL    HW146079   9.771   4.137   0.704  0.3632  0.0047 -0.3793
15167SOL    HW246080   9.871   4.132   0.591  0.6900  1.0003 -0.1439
15168SOL     OW46081   8.675   1.227   0.496 -0.5298 -0.2819  0.0733
15168SOL    HW146082   8.588   1.255   0.468 -0.0854  0.3749 -0.6974
15168SOL    HW246083   8.666   1.132   0.508 -1.0795 -0.3964 -1.0706
15169SOL     OW46084   1.025   6.719   3.847 -0.0776  0.0989 -0.5985
15169SOL    HW146085   1.049   6.626   3.844 -1.9417 -0.4590  0.2889
15169SOL    HW246086   0.957   6.724   3.914  0.0891  2.1483 -0.5273
15170SOL     OW46087   0.582   4.439   1.944 -0.0004  0.0173  0.2066
15170SOL    HW146088   0.525   4.398   2.009  0.8973  0.0941  1.0482
15170SOL    HW246089   0.612   4.520   1.985  1.5189 -0.5079  0.1768
15171SOL     OW46090   8.425   9.445   6.445 -0.4653 -0.8123 -0.2085
15171SOL    HW146091   8.366   9.372   6.462  1.8491 -2.2874  2.3938
15171SOL    HW246092   8.377   9.523   6.475 -0.6753 -2.1311  3.4491
15172SOL     OW46093   3.058   0.285   8.741  0.0118  0.2090  0.0091
15172SOL    HW146094   2.983   0.258   8.794  1.2680  0.3587  1.9172
15172SOL    HW246095   3.120   0.213   8.749 -0.0128 -0.0644 -1.8365
15173SOL     OW46096   1.201   2.197   4.213 -0.1913 -0.0371  0.6265
15173SOL    HW146097   1.184   2.136   4.285 -1.8515 -1.0201 -0.5058
15173SOL    HW246098   1.289   2.174   4.183 -0.0172 -0.5362  1.4781
15174SOL     OW46099   5.264   8.346   8.761  0.0387  0.3301  0.2341
15174SOL    HW146100   5.227   8.372   8.845  0.1290 -1.9287  1.0361
15174SOL    HW246101   5.359   8.358   8.772  0.1555 -1.0598  0.9037
15175SOL     OW46102   3.854   1.199   6.372 -0.2360  0.7106 -0.0488
15175SOL    HW146103   3.786   1.263   6.350  1.0072  2.6040  1.3036
15175SOL    HW246104   3.818   1.150   6.446 -1.5817 -0.9039 -1.6811
15176SOL     OW46105   6.809   4.891   8.301  0.4112  0.8050  0.0525
15176SOL    HW146106   6.732   4.930   8.341  0.4647  0.9116  0.0509
15176SOL    HW246107   6.882   4.948   8.327  0.5101  0.6225  0.1752
15177SOL     OW46108   1.954   9.595   1.153  0.1507 -0.1761  0.3339
15177SOL    HW146109   1.932   9.667   1.094  2.0497 -0.5520 -0.9337
15177SOL    HW246110   1.870   9.567   1.190 -0.8897  1.1987 -0.8890
15178SOL     OW46111   3.020   4.387   0.144 -0.3566 -0.3839 -0.1506
15178SOL    HW146112   2.928   4.361   0.142 -0.6181  0.3850  0.9466
15178SOL    HW246113   3.029   4.439   0.224  1.3476 -1.5634  0.5024
15179SOL     OW46114   9.470   5.329   5.260 -0.2465  0.3347  0.0171
15179SOL    HW146115   9.546   5.274   5.243  1.0656  2.0042  0.1638
15179SOL    HW246116   9.467   5.338   5.355  0.2222  1.3407 -0.0431
15180SOL     OW46117   5.476   1.314   6.093  0.0533  0.5076  0.2057
15180SOL    HW146118   5.449   1.251   6.026 -1.1018  0.7345  0.4244
15180SOL    HW246119   5.539   1.267   6.147 -0.6670 -0.4097  0.2634
15181SOL     OW46120   0.449   1.905   7.181 -0.0513 -0.1422  0.0858
15181SOL    HW146121   0.408   1.836   7.234 -1.3216  0.3974 -0.1637
15181SOL    HW246122   0.480   1.860   7.103  0.9002 -0.7628  0.8055
15182SOL     OW46123   4.380   8.722   5.856  0.4963 -0.1014 -0.6628
15182SOL    HW146124   4.333   8.642   5.878  1.4274 -0.5999 -0.4170
15182SOL    HW246125   4.407   8.710   5.765  2.4542 -1.0345 -0.0155
15183SOL     OW46126   0.031   4.818   4.008  0.6293  0.0666  0.2142
15183SOL    HW146127   0.106   4.759   4.005  0.4043 -0.3515  1.9329
15183SOL    HW246128   0.047   4.881   3.938  1.3625 -1.4399 -1.0448
15184SOL     OW46129   2.059   4.418   4.990  0.0694 -0.3089  0.3022
15184SOL    HW146130   2.147   4.395   4.957  0.8327  3.3895 -0.7337
15184SOL    HW246131   2.001   4.355   4.948  1.7824  0.0530 -2.9908
15185SOL     OW46132   7.226   4.388   6.758  0.0119 -0.3228  0.5559
15185SOL    HW146133   7.268   4.465   6.719  1.6001 -1.3198  0.1710
15185SOL    HW246134   7.248   4.316   6.699  0.6909 -1.5069  2.1556
15186SOL     OW46135   0.698   7.172   0.510 -0.6854  0.4047  0.1363
15186SOL    HW146136   0.749   7.097   0.481 -0.9102  0.2026  0.2568
15186SOL    HW246137   0.715   7.178   0.604 -2.3141 -0.8101  0.5579
15187SOL     OW46138   3.734   7.159   9.234 -0.2075  0.0496 -0.1382
15187SOL    HW146139   3.802   7.108   9.191 -0.0636 -0.3485  0.5406
15187SOL    HW246140   3.658   7.153   9.176 -0.2938 -1.2105  0.0881
15188SOL     OW46141   9.323   7.190   0.935  0.2889  0.2035 -1.0080
15188SOL    HW146142   9.256   7.209   1.000  0.9218  0.9163 -0.5457
15188SOL    HW246143   9.291   7.112   0.889 -0.9238  0.6248 -0.9102
15189SOL     OW46144   7.269   8.935   0.795 -0.5975 -0.3195  0.4522
15189SOL    HW146145   7.198   8.875   0.819 -1.2267 -0.0350 -0.6227
15189SOL    HW246146   7.322   8.943   0.874 -1.7098 -0.6299  1.2481
15190SOL     OW46147   4.213   0.522   4.285  0.0373 -0.5584  0.3377
15190SOL    HW146148   4.135   0.497   4.335 -0.2942  0.2722  0.2558
15190SOL    HW246149   4.220   0.617   4.298  1.3283 -0.7017  0.7487
15191SOL     OW46150   2.689   9.509   5.074  0.2731 -0.1284  0.3268
15191SOL    HW146151   2.737   9.566   5.134 -0.1348 -0.1429  0.6802
15191SOL    HW246152   2.755   9.449   5.039  0.7687  0.7885 -0.3329
15192SOL     OW46153   8.318   9.648   3.182  0.4692  0.4016 -0.1115
15192SOL    HW146154   8.356   9.562   3.199 -1.0610 -0.2562  0.1193
15192SOL    HW246155   8.390   9.699   3.145  1.1603 -1.2623 -1.1814
15193SOL     OW46156   0.220   3.828   5.382  0.7513 -0.3679  0.0984
15193SOL    HW146157   0.309   3.795   5.388  0.9364  0.2885  1.5253
15193SOL    HW246158   0.209   3.852   5.290  3.0411  2.0932  0.3259
15194SOL     OW46159   8.627   4.418   6.356  0.3644 -0.5263 -0.1982
15194SOL    HW146160   8.695   4.485   6.358 -0.5840  0.4464  1.3936
15194SOL    HW246161   8.667   4.341   6.397  1.7144 -1.2816 -2.7143
15195SOL     OW46162   1.854   3.760   1.758  0.0814  0.1760  0.3522
15195SOL    HW146163   1.875   3.853   1.757  0.4598  0.0936  0.3319
15195SOL    HW246164   1.930   3.718   1.716  0.5468 -0.2608  1.5783
15196SOL     OW46165   3.030   9.456   1.066  0.0544  0.1841  0.0317
15196SOL    HW146166   3.018   9.402   1.145 -0.7558 -1.2784 -1.0396
15196SOL    HW246167   3.116   9.430   1.032  0.3657  0.7520  0.3752
15197SOL     OW46168   4.902   6.296   3.153  0.2221  0.2780 -0.2211
15197SOL    HW146169   4.920   6.203   3.165 -0.6631  0.1827  0.4438
15197SOL    HW246170   4.916   6.335   3.239 -0.6501  0.5456 -0.1926
15198SOL     OW46171   7.469   1.348   8.676  0.3687  0.5218 -0.4355
15198SOL    HW146172   7.419   1.319   8.600 -1.1362  0.5903  0.4877
15198SOL    HW246173   7.488   1.268   8.724  0.6290  0.5666 -0.4583
15199SOL     OW46174   4.371   2.001   3.355  0.2162 -0.4112  0.4095
15199SOL    HW146175   4.321   1.965   3.429 -2.3445 -0.6755 -1.2954
15199SOL    HW246176   4.334   2.088   3.341 -0.7953 -1.0885 -1.6864
15200SOL     OW46177   1.702   3.310   5.328 -0.1809 -0.2476  0.2997
15200SOL    HW146178   1.758   3.234   5.340 -0.9067 -0.6088  1.6708
15200SOL    HW246179   1.702   3.325   5.233  1.4229 -0.8182  0.1760
15201SOL     OW46180   2.065   6.975   4.589 -0.2789 -0.3480  0.6560
15201SOL    HW146181   2.017   7.008   4.665  0.1606  1.3806  0.2352
15201SOL    HW246182   2.001   6.978   4.518 -0.8791 -2.5724  1.0368
15202SOL     OW46183   7.475   7.511   2.593  0.0021 -0.0826 -0.4731
15202SOL    HW146184   7.509   7.449   2.657  0.5096  1.3066  0.6737
15202SOL    HW246185   7.401   7.553   2.637  0.0585  0.5506 -0.9707
15203SOL     OW46186   7.459   0.551   9.284 -0.2084  0.1741 -0.8611
15203SOL    HW146187   7.469   0.468   9.331  0.8629  0.6673 -0.1802
15203SOL    HW246188   7.546   0.590   9.285 -0.9015  1.8038 -0.2330
15204SOL     OW46189   7.646   7.306   4.382 -0.2322  0.0826 -0.3189
15204SOL    HW146190   7.631   7.377   4.444 -0.2883 -0.1606 -0.0558
15204SOL    HW246191   7.725   7.332   4.334 -0.0837  0.1821 -0.0216
15205SOL     OW46192   2.245   0.440   6.607 -0.2626 -0.1543  0.5877
15205SOL    HW146193   2.309   0.371   6.591  0.4466  0.7748 -0.8176
15205SOL    HW246194   2.162   0.404   6.578 -0.1395 -0.8690  1.0968
15206SOL     OW46195   3.527   9.893   0.963 -0.0707  0.4703  0.0862
15206SOL    HW146196   3.482   9.865   1.043 -0.8243  0.9330 -0.1649
15206SOL    HW246197   3.478   9.970   0.934 -0.0517  0.0824 -1.0325
15207SOL     OW46198   1.701   7.531   3.790  0.1031  0.2217 -0.5398
15207SOL    HW146199   1.713   7.451   3.738  0.9188  0.9838 -1.5830
15207SOL    HW246200   1.615   7.564   3.764 -0.5185 -0.6357  0.3744
15208SOL     OW46201   0.321   6.824   7.166 -0.4496  0.0094 -0.1105
15208SOL    HW146202   0.349   6.903   7.212 -0.4051 -0.1743  0.1775
15208SOL    HW246203   0.279   6.856   7.086 -1.1361  0.3535  0.3807
15209SOL     OW46204   6.936   9.112   9.268 -0.6332  0.4962 -0.2631
15209SOL    HW146205   7.004   9.045   9.258 -1.0208  0.1163 -0.3726
15209SOL    HW246206   6.853   9.064   9.260 -0.9129  1.0764 -0.9052
15210SOL     OW46207   0.616   7.844   5.152  0.0893  0.7034  0.2274
15210SOL    HW146208   0.619   7.936   5.124  1.6340  0.9049  0.9560
15210SOL    HW246209   0.589   7.848   5.243  0.7565  0.4999  0.4425
15211SOL     OW46210   7.053   7.663   1.333 -0.1567 -0.2488 -0.2282
15211SOL    HW146211   7.134   7.614   1.349  0.1770  0.3204 -0.1449
15211SOL    HW246212   7.007   7.612   1.266  2.2616  1.5447 -3.6026
15212SOL     OW46213   1.846   3.059   5.307  0.3582  0.3245  0.1218
15212SOL    HW146214   1.802   2.977   5.285 -0.2518  0.9784 -1.2180
15212SOL    HW246215   1.920   3.063   5.246  0.2710  0.8554  0.0464
15213SOL     OW46216   5.398   6.106   3.019  0.0093  0.4273  1.0126
15213SOL    HW146217   5.409   6.186   2.967  2.5114 -0.2639  0.3330
15213SOL    HW246218   5.432   6.036   2.963 -0.3003 -0.8279  2.3366
15214SOL     OW46219   4.035   4.504   0.749 -0.0845  0.0319 -0.6079
15214SOL    HW146220   4.130   4.496   0.738  0.2626 -0.7617  2.1828
15214SOL    HW246221   4.025   4.572   0.816 -1.4889 -0.0759 -0.6855
15215SOL     OW46222   4.597   6.324   2.540  0.1880 -0.1797 -0.1310
15215SOL    HW146223   4.620   6.377   2.616  0.4147  0.4097 -0.5906
15215SOL    HW246224   4.563   6.243   2.575 -5.3628  2.1531  0.8323
15216SOL     OW46225   4.463   7.143   3.516 -0.0286  0.3441 -0.7159
15216SOL    HW146226   4.522   7.104   3.580 -0.2850 -0.3865 -0.9201
15216SOL    HW246227   4.482   7.237   3.521 -0.5675  0.4014  0.9736
15217SOL     OW46228   9.552   7.868   3.732 -0.2305 -0.1122 -0.1589
15217SOL    HW146229   9.468   7.906   3.759 -1.8463 -3.2378 -0.4016
15217SOL    HW246230   9.577   7.809   3.803  1.6392  0.4811 -0.2585
15218SOL     OW46231   2.574   0.992   2.371  0.7673 -0.3581 -0.7129
15218SOL    HW146232   2.512   1.056   2.336  0.1387  0.2285  1.3434
15218SOL    HW246233   2.634   1.043   2.426  1.3542 -1.3028 -0.4506
15219SOL     OW46234   5.487   7.149   7.719 -0.0974  0.3726  0.0299
15219SOL    HW146235   5.452   7.060   7.720  0.7545  0.0179  1.1576
15219SOL    HW246236   5.522   7.161   7.631  0.2672 -0.6081  0.0324
15220SOL     OW46237   7.658   1.527   9.646  0.4401 -0.5364  0.4653
15220SOL    HW146238   7.614   1.455   9.691  1.5809 -1.4700  0.1472
15220SOL    HW246239   7.698   1.486   9.569  1.8819  0.2397  0.7743
15221SOL     OW46240   4.627   9.517   2.433 -0.0054 -0.3747 -0.4241
15221SOL    HW146241   4.658   9.427   2.422  0.4187 -0.2947  0.0752
15221SOL    HW246242   4.640   9.558   2.347  1.2836 -0.3497 -0.2392
15222SOL     OW46243   9.313   2.320   3.004  0.1386 -0.3300 -0.3063
15222SOL    HW146244   9.221   2.343   2.992 -0.1386 -1.5647 -0.7593
15222SOL    HW246245   9.328   2.327   3.098  0.2616  2.1918 -0.4549
15223SOL     OW46246   2.289   0.522   6.288 -0.0664 -0.0363  0.1890
15223SOL    HW146247   2.220   0.587   6.273  0.8944  1.2059  0.9532
15223SOL    HW246248   2.244   0.450   6.331 -1.2679 -0.1471 -1.1965
15224SOL     OW46249   1.741   9.028   3.593 -0.6290 -0.2696 -0.4482
15224SOL    HW146250   1.804   9.011   3.523 -1.0693  0.4367 -1.0282
15224SOL    HW246251   1.686   8.949   3.595 -0.4292 -0.4151 -0.6897
15225SOL     OW46252   2.816   7.577   2.162  0.5887 -0.3835 -0.4026
15225SOL    HW146253   2.850   7.576   2.073  1.7894  0.2592  0.0137
15225SOL    HW246254   2.812   7.485   2.187  2.0827 -0.5083 -0.4964
15226SOL     OW46255   2.920   5.622   5.775 -0.1245 -0.2800  0.4882
15226SOL    HW146256   3.010   5.591   5.759 -0.7550 -1.0070 -2.0335
15226SOL    HW246257   2.877   5.547   5.816 -0.1982 -0.7873 -0.5051
15227SOL     OW46258   4.460   3.565   4.182  0.0927  0.4190 -0.0410
15227SOL    HW146259   4.523   3.495   4.198  1.0753  1.5461  1.1606
15227SOL    HW246260   4.492   3.639   4.233 -1.5523  1.4054 -0.3671
15228SOL     OW46261   5.314   4.672   0.852  0.6654 -0.1137 -0.0670
15228SOL    HW146262   5.239   4.666   0.912 -1.2084 -0.0982 -2.2438
15228SOL    HW246263   5.342   4.582   0.840 -0.2192 -0.3231 -0.6351
15229SOL     OW46264   0.958   1.590   8.218 -0.0538  0.2293 -0.0224
15229SOL    HW146265   0.938   1.647   8.144  0.0211  0.3970  0.0875
15229SOL    HW246266   0.916   1.506   8.196 -0.6442  0.4922  0.0692
15230SOL     OW46267   0.842   2.258   5.635  0.0199  0.5013  0.5475
15230SOL    HW146268   0.807   2.203   5.705 -1.1131  2.3786  1.5334
15230SOL    HW246269   0.768   2.271   5.575  1.0681 -1.3872 -1.2962
15231SOL     OW46270   4.824   1.221   1.263 -0.6729  0.3175 -0.0039
15231SOL    HW146271   4.791   1.132   1.251 -1.4360  0.5734  0.0972
15231SOL    HW246272   4.826   1.259   1.175  1.5796 -0.4275 -0.3205
15232SOL     OW46273   5.482   3.314   4.536 -0.5597  0.3696  0.2811
15232SOL    HW146274   5.519   3.226   4.522 -1.9692 -0.0997 -0.6319
15232SOL    HW246275   5.458   3.314   4.629 -1.4998 -0.6014  0.0572
15233SOL     OW46276   5.420   9.594   5.350  1.1518 -0.3144 -0.2512
15233SOL    HW146277   5.501   9.604   5.400 -0.2093 -1.5580  2.4497
15233SOL    HW246278   5.379   9.515   5.386 -1.2677  0.2483 -1.4964
15234SOL     OW46279   8.478   3.165   9.351 -0.3160 -0.7046 -0.1284
15234SOL    HW146280   8.474   3.240   9.292 -0.9252 -0.4187  0.2656
15234SOL    HW246281   8.515   3.201   9.432 -3.9673  0.0865  1.3641
15235SOL     OW46282   1.929   5.836   9.700  0.5303 -0.0193 -0.5536
15235SOL    HW146283   2.002   5.776   9.687  1.1603  0.7836 -0.8503
15235SOL    HW246284   1.942   5.904   9.633  1.4584  1.9680  1.5128
15236SOL     OW46285   2.162   5.613   1.324 -0.5887 -0.3106 -0.0650
15236SOL    HW146286   2.103   5.587   1.395 -0.7432 -1.3640 -0.5719
15236SOL    HW246287   2.184   5.532   1.279  0.5592  0.1812 -0.4266
15237SOL     OW46288   3.812   1.452   0.099  0.3368 -0.2024 -0.3282
15237SOL    HW146289   3.906   1.430   0.104  0.9121  1.1624 -3.2864
15237SOL    HW246290   3.799   1.481   0.009 -2.3250  2.4689  0.7578
15238SOL     OW46291   5.385   8.226   4.231 -0.1554  0.5247  0.1255
15238SOL    HW146292   5.479   8.239   4.244  0.1626 -0.8596 -0.5986
15238SOL    HW246293   5.380   8.153   4.169 -1.7139  0.3555  0.4252
15239SOL     OW46294   0.065   1.297   8.930 -0.3117 -0.2979  0.4972
15239SOL    HW146295   0.116   1.238   8.985 -0.8263 -1.2740 -0.0479
15239SOL    HW246296   0.019   1.353   8.992  1.4772  0.6846  0.9962
15240SOL     OW46297   0.696   0.610   9.388  0.2285  0.0132 -0.2949
15240SOL    HW146298   0.632   0.635   9.454 -0.6524 -0.3366 -0.9952
15240SOL    HW246299   0.647   0.555   9.327  1.6208 -1.7419  0.0937
15241SOL     OW46300   3.340   7.470   7.738 -0.0316 -0.1665 -0.2822
15241SOL    HW146301   3.313   7.379   7.749 -1.2244  0.3071  0.9543
15241SOL    HW246302   3.275   7.507   7.678 -1.5751  0.6771  1.7936
15242SOL     OW46303   1.361   1.733   9.228  0.3641 -0.3466 -0.3930
15242SOL    HW146304   1.456   1.724   9.222  0.3888 -0.6433  0.3965
15242SOL    HW246305   1.327   1.644   9.217  0.1610 -0.2142 -0.8752
15243SOL     OW46306   4.544   1.264   3.191 -0.3723 -0.4592  0.0580
15243SOL    HW146307   4.487   1.189   3.176  0.3547 -0.7118 -1.6389
15243SOL    HW246308   4.488   1.340   3.173 -0.5937 -0.6478 -0.0569
15244SOL     OW46309   0.393   4.252   2.619 -0.7695 -0.2727  0.3578
15244SOL    HW146310   0.480   4.284   2.642 -0.4300 -1.0485  0.2002
15244SOL    HW246311   0.336   4.328   2.628 -0.2169  0.0514  1.2436
15245SOL     OW46312   7.971   0.041   1.203 -0.5329  0.1229  0.3282
15245SOL    HW146313   8.028   0.110   1.169  1.4484 -0.9032  1.3595
15245SOL    HW246314   8.023  -0.002   1.270 -2.6635 -0.7580  1.5207
15246SOL     OW46315   0.974   1.199   4.590 -0.1294  0.4234  0.3815
15246SOL    HW146316   1.069   1.192   4.590  0.4219  4.3102 -2.5543
15246SOL    HW246317   0.954   1.252   4.667  0.1549  0.1794  0.6242
15247SOL     OW46318   0.735   1.844   1.949  0.0193 -0.4363  0.6392
15247SOL    HW146319   0.788   1.905   1.899 -0.1452 -1.6478 -1.0873
15247SOL    HW246320   0.770   1.849   2.038 -0.2329  2.3932  0.6684
15248SOL     OW46321   8.603   0.714   6.312  0.2861 -0.8416 -0.3514
15248SOL    HW146322   8.648   0.647   6.364  0.9817 -1.2194 -1.3995
15248SOL    HW246323   8.671   0.779   6.294 -0.3303  0.0385  0.4725
15249SOL     OW46324   4.381   4.902   9.218 -0.5857  0.1695 -0.4383
15249SOL    HW146325   4.289   4.904   9.245 -1.3663  1.6628 -2.9125
15249SOL    HW246326   4.421   4.835   9.274 -2.9265  0.1696  1.3897
15250SOL     OW46327   7.007   7.361   4.892  0.2811 -0.0579 -0.4553
15250SOL    HW146328   7.080   7.418   4.867  0.2013  0.2070 -0.0949
15250SOL    HW246329   6.994   7.379   4.985 -0.2255 -0.1278 -0.5117
15251SOL     OW46330   7.840   0.120   9.989  0.0887  0.1055  0.2386
15251SOL    HW146331   7.880   0.183   9.928 -1.3082  0.2454 -0.5641
15251SOL    HW246332   7.800   0.054   9.933  0.6038 -0.9409  1.0606
15252SOL     OW46333   7.511   0.032   0.949  0.3269 -0.4863 -0.1470
15252SOL    HW146334   7.431   0.051   0.900  1.2846  0.5551 -1.3854
15252SOL    HW246335   7.480   0.007   1.036 -1.2944  2.2136  0.1675
15253SOL     OW46336   5.708   8.947   3.074  0.1856  0.6393 -0.6704
15253SOL    HW146337   5.614   8.964   3.065  0.3984  1.9174 -0.6899
15253SOL    HW246338   5.720   8.923   3.166 -0.2760 -0.4394 -0.8775
15254SOL     OW46339   6.373   2.112   7.849  0.5214 -0.4609  0.2654
15254SOL    HW146340   6.361   2.205   7.828  0.6442 -0.6301 -0.6047
15254SOL    HW246341   6.467   2.103   7.861  0.5674 -0.5826 -0.1933
15255SOL     OW46342   8.290   6.097   6.332 -0.1681 -0.6597  0.1346
15255SOL    HW146343   8.340   6.153   6.273  0.1282 -1.2098 -0.1516
15255SOL    HW246344   8.248   6.033   6.274 -0.8183 -0.4983  0.4160
15256SOL     OW46345   5.741   6.224   9.903  0.1872  0.2908 -0.4342
15256SOL    HW146346   5.820   6.173   9.886  0.1388 -0.7422  2.0472
15256SOL    HW246347   5.768   6.289   9.968 -1.1042 -0.5500  1.0155
15257SOL     OW46348   6.752   3.197   7.096  0.0049 -0.3111 -0.1911
15257SOL    HW146349   6.783   3.268   7.040 -0.4897 -0.7781 -1.0894
15257SOL    HW246350   6.810   3.199   7.172 -0.1712  1.2219 -0.0574
15258SOL     OW46351   7.143   7.614   3.959  0.9557  0.1390  0.4551
15258SOL    HW146352   7.206   7.550   3.992  0.1585 -0.5963  0.5722
15258SOL    HW246353   7.197   7.686   3.926  1.8226  0.0860  1.7013
15259SOL     OW46354   1.181   9.510   5.004  0.1819  0.2953  0.3938
15259SOL    HW146355   1.232   9.455   4.943  0.1941  0.3006  0.3987
15259SOL    HW246356   1.139   9.447   5.062 -1.1922  0.1924 -0.6638
15260SOL     OW46357   2.276   5.960   5.435  0.0316 -0.1050  0.4383
15260SOL    HW146358   2.282   6.014   5.357 -0.5340  0.3965  0.7391
15260SOL    HW246359   2.304   6.017   5.507  0.2330 -0.4634  0.6551
15261SOL     OW46360   9.041   3.891   8.005  0.0218 -0.4730  0.1252
15261SOL    HW146361   8.951   3.867   7.986  0.1697 -0.1304 -1.0695
15261SOL    HW246362   9.039   3.926   8.095 -1.7434  2.9838 -1.0666
15262SOL     OW46363   5.757   5.432   6.463  0.3269  0.2277  0.2427
15262SOL    HW146364   5.758   5.412   6.557 -0.9861  0.0827  0.2330
15262SOL    HW246365   5.696   5.505   6.454  1.0376  0.7658 -0.4206
15263SOL     OW46366   4.117   2.727   1.103 -0.3730  0.0586 -0.5545
15263SOL    HW146367   4.180   2.675   1.154 -0.2048 -0.2704 -1.0875
15263SOL    HW246368   4.165   2.753   1.025 -1.0743 -0.7096 -1.2610
15264SOL     OW46369   4.298   0.405   3.267 -0.6789 -0.5258 -0.0408
15264SOL    HW146370   4.344   0.327   3.238 -1.5276 -0.3674 -1.9878
15264SOL    HW246371   4.366   0.473   3.272 -0.2844 -0.8875 -0.4262
15265SOL     OW46372   8.483   8.207   2.752  0.8011 -0.0405  0.0644
15265SOL    HW146373   8.389   8.219   2.766  0.9312  0.2478  0.7575
15265SOL    HW246374   8.505   8.126   2.800  0.3796 -1.8308 -2.5605
15266SOL     OW46375   9.265   6.901   6.187 -0.1237 -0.6915  0.3328
15266SOL    HW146376   9.229   6.989   6.176 -0.5473 -0.5559  2.4274
15266SOL    HW246377   9.356   6.908   6.159 -0.5516  0.0216 -0.9545
15267SOL     OW46378   7.354   0.609   9.054  0.4622  0.2330 -0.3525
15267SOL    HW146379   7.266   0.646   9.057  1.0626  1.6813  0.8490
15267SOL    HW246380   7.372   0.584   9.145  1.0633 -0.6029 -0.6986
15268SOL     OW46381   9.086   9.432   3.250 -0.1985  0.3143  0.3987
15268SOL    HW146382   9.000   9.436   3.291 -0.5166  2.1979 -0.3748
15268SOL    HW246383   9.075   9.475   3.166  1.0812 -1.0906 -0.5448
15269SOL     OW46384   8.555   9.849   0.122 -0.4459  0.0457  0.3312
15269SOL    HW146385   8.568   9.891   0.207 -1.8081  0.3946  0.3922
15269SOL    HW246386   8.463   9.867   0.101 -0.7605 -1.9400 -0.1664
15270SOL     OW46387   0.927   1.838   7.740 -0.3454  0.3358 -0.2242
15270SOL    HW146388   1.018   1.829   7.710 -0.4480 -1.4182 -0.0859
15270SOL    HW246389   0.926   1.921   7.788  1.3248  0.1203  0.2485
15271SOL     OW46390   3.118   3.790   3.423  0.1492 -0.0303 -0.4978
15271SOL    HW146391   3.172   3.826   3.493 -0.0974  1.9722 -1.2629
15271SOL    HW246392   3.049   3.856   3.410 -0.4663 -0.8985 -1.8394
15272SOL     OW46393   5.866   6.390   8.174  0.3654 -0.7823 -0.2940
15272SOL    HW146394   5.898   6.459   8.233 -0.9632 -1.3321  1.1330
15272SOL    HW246395   5.935   6.324   8.175  1.0829 -0.0583 -0.6691
15273SOL     OW46396   6.967   8.140   3.450 -0.0242 -0.3819 -0.0723
15273SOL    HW146397   6.969   8.193   3.370 -1.1091  0.0478  0.1708
15273SOL    HW246398   7.040   8.174   3.502  1.8466 -1.8584 -1.5809
15274SOL     OW46399   6.432   2.293   9.578 -0.8991 -0.2411  0.0396
15274SOL    HW146400   6.526   2.308   9.578 -0.7954 -0.8295  0.5638
15274SOL    HW246401   6.393   2.381   9.587 -0.4110  0.0125 -0.3183
15275SOL     OW46402   3.485   3.964   4.934  0.0240 -0.5510  0.3537
15275SOL    HW146403   3.534   4.006   4.863  0.1132  0.8004  1.1964
15275SOL    HW246404   3.538   3.887   4.956  2.0582  1.0699  1.5099
15276SOL     OW46405   1.909   8.910   1.824 -0.3145 -0.4044  0.2041
15276SOL    HW146406   1.857   8.988   1.803  0.4867  0.1117  0.0932
15276SOL    HW246407   1.879   8.844   1.762 -0.3826  0.0836 -0.2894
15277SOL     OW46408   2.978   3.825   3.945 -0.1691 -0.2439 -0.2387
15277SOL    HW146409   2.922   3.805   4.019  1.3347  0.3576  1.1239
15277SOL    HW246410   2.919   3.833   3.870 -1.6180 -1.8331  0.6924
15278SOL     OW46411   3.643   9.641   0.871 -0.1273  0.6113 -0.2922
15278SOL    HW146412   3.662   9.729   0.905 -1.5468  0.5524  0.7548
15278SOL    HW246413   3.547   9.637   0.868 -0.0677 -0.6728 -0.9747
15279SOL     OW46414   9.288   6.678   8.855  0.0037  0.7648 -0.0958
15279SOL    HW146415   9.305   6.768   8.884 -0.7113  0.4527  1.4151
15279SOL    HW246416   9.218   6.648   8.913  0.3078 -0.8078 -0.5126
15280SOL     OW46417   9.572   1.048   5.387  0.5827  0.0895  0.2735
15280SOL    HW146418   9.519   0.984   5.340  2.5629 -1.6811  0.2800
15280SOL    HW246419   9.598   1.112   5.320  1.8550 -1.3800 -0.7016
15281SOL     OW46420   7.717   0.380   0.093 -0.3429 -0.3286 -0.0381
15281SOL    HW146421   7.626   0.349   0.087 -0.8048  0.9749 -0.1579
15281SOL    HW246422   7.769   0.307   0.060 -1.2613 -1.4641  0.8901
15282SOL     OW46423   7.870   9.745   9.167 -1.2700  0.4048  0.1419
15282SOL    HW146424   7.841   9.660   9.134 -1.7328  1.2919 -1.8854
15282SOL    HW246425   7.888   9.796   9.088  0.2832  1.7782  1.3207
15283SOL     OW46426   4.204   7.531   6.393 -0.0862 -0.4193 -0.1284
15283SOL    HW146427   4.172   7.601   6.336 -0.9467 -0.9389 -0.3015
15283SOL    HW246428   4.142   7.459   6.380 -1.0627 -0.1511  2.3747
15284SOL     OW46429   4.083   9.106   1.870 -0.2029 -0.3019  0.1018
15284SOL    HW146430   4.001   9.080   1.827 -0.2593 -0.5414  0.3563
15284SOL    HW246431   4.068   9.089   1.963  0.4012 -1.0419  0.0630
15285SOL     OW46432   7.575   3.948   5.044  0.2782  0.1061 -0.2584
15285SOL    HW146433   7.634   4.022   5.025 -0.9342  1.5854  1.4040
15285SOL    HW246434   7.568   3.947   5.140 -1.0819 -1.0985 -0.3438
15286SOL     OW46435   0.536   1.570   7.554  0.3830 -0.0461  0.0017
15286SOL    HW146436   0.568   1.590   7.642 -0.3364 -1.5282  0.6293
15286SOL    HW246437   0.448   1.536   7.568  0.2444 -0.2534 -1.2989
15287SOL     OW46438   0.322   2.679   8.956 -0.0153 -0.0640 -0.2952
15287SOL    HW146439   0.228   2.671   8.939  0.2864 -1.4163 -1.5995
15287SOL    HW246440   0.334   2.769   8.985 -1.6188  0.3208 -0.7340
15288SOL     OW46441   9.152   4.164   6.632  0.5630 -0.7233 -0.2335
15288SOL    HW146442   9.141   4.084   6.581 -0.3064 -0.2553 -0.8180
15288SOL    HW246443   9.091   4.156   6.705 -0.0900 -0.2815 -0.7150
15289SOL     OW46444   0.310   8.469   5.069 -0.4855  0.2318  0.2519
15289SOL    HW146445   0.285   8.561   5.058 -0.0095  0.2922 -0.4306
15289SOL    HW246446   0.354   8.447   4.987 -0.6058 -0.6128  0.4089
15290SOL     OW46447   1.659   6.624   7.579 -0.4589  0.5310  0.2583
15290SOL    HW146448   1.626   6.694   7.523  0.2615  0.9239  0.3166
15290SOL    HW246449   1.684   6.554   7.519 -1.9122 -0.0199  0.2394
15291SOL     OW46450   0.459   0.502   8.294 -0.6117  0.2439 -0.1164
15291SOL    HW146451   0.424   0.518   8.206  1.0180  0.8269 -0.6964
15291SOL    HW246452   0.553   0.487   8.280 -0.4933 -0.6608  1.4327
15292SOL     OW46453   7.268   0.325   8.928  0.7849  0.2140  0.3962
15292SOL    HW146454   7.356   0.363   8.925  0.3566  1.5200  2.3899
15292SOL    HW246455   7.209   0.400   8.927 -0.4082 -0.6597 -1.8159
15293SOL     OW46456   0.111   8.631   3.752  0.3646  0.2721 -0.5957
15293SOL    HW146457   0.064   8.608   3.832  1.1937 -0.8868 -0.4090
15293SOL    HW246458   0.043   8.662   3.692 -0.4747 -0.2737  0.0441
15294SOL     OW46459   9.937   0.187   4.001 -0.0427 -0.5739 -0.7671
15294SOL    HW146460   9.846   0.164   4.019 -0.2357  0.6486 -0.0683
15294SOL    HW246461   9.936   0.227   3.914  0.0876 -1.9266 -1.4154
15295SOL     OW46462   6.076   8.966   5.941 -0.1369  0.0327 -0.1621
15295SOL    HW146463   5.981   8.965   5.934 -0.3824 -0.2359  2.2358
15295SOL    HW246464   6.101   9.056   5.920 -0.7509 -0.2015 -2.0600
15296SOL     OW46465   8.743   9.410   6.864  0.3699 -0.2895  1.0854
15296SOL    HW146466   8.733   9.326   6.908  1.2961 -1.0580 -0.1056
15296SOL    HW246467   8.706   9.396   6.777  0.2441  0.6308  0.9802
15297SOL     OW46468   9.668   3.960   8.145 -0.1326  0.1195 -0.5958
15297SOL    HW146469   9.750   4.000   8.117  1.2245 -2.1678 -0.1198
15297SOL    HW246470   9.658   3.884   8.088 -0.2799 -1.3725  1.3006
15298SOL     OW46471   2.843   7.515   7.531 -0.3957 -0.5856 -0.0959
15298SOL    HW146472   2.905   7.587   7.519 -1.5830  0.3414 -1.0411
15298SOL    HW246473   2.883   7.440   7.488  0.8236 -0.4910  0.8238
15299SOL     OW46474   3.655   3.845   0.269  0.9575  0.3839 -0.3584
15299SOL    HW146475   3.656   3.784   0.342 -1.0298  0.1083 -0.4952
15299SOL    HW246476   3.681   3.929   0.308  2.1655 -0.2005  0.1509
15300SOL     OW46477   5.051   6.892   7.364 -0.0423  0.4853 -0.1236
15300SOL    HW146478   5.045   6.978   7.323 -0.5979  1.8243  2.5566
15300SOL    HW246479   5.000   6.834   7.308  0.3742  1.8668 -2.0022
15301SOL     OW46480   8.165   6.474   1.116 -0.8106 -0.4400 -0.4539
15301SOL    HW146481   8.115   6.526   1.179 -1.2238  0.3096 -1.3750
15301SOL    HW246482   8.256   6.486   1.142 -0.9854 -0.2910  0.1085
15302SOL     OW46483   5.200   7.735   8.582  0.4802  0.1980  0.0830
15302SOL    HW146484   5.279   7.788   8.586  1.1183 -0.6277 -1.0623
15302SOL    HW246485   5.232   7.644   8.586 -0.3958 -0.1480 -0.5208
15303SOL     OW46486   0.634   5.813   7.779 -0.1677  0.7717  0.1353
15303SOL    HW146487   0.606   5.874   7.847  0.2117  0.5205  0.5238
15303SOL    HW246488   0.718   5.780   7.810  0.9090  2.0131 -1.3398
15304SOL     OW46489   0.327   0.872   6.701  0.1412  0.2015  0.2467
15304SOL    HW146490   0.285   0.948   6.661  1.1582 -0.3294 -2.0028
15304SOL    HW246491   0.399   0.908   6.752  0.5852  0.7804 -0.7579
15305SOL     OW46492   7.018   6.502   1.416  0.2675 -0.1616 -0.2817
15305SOL    HW146493   7.039   6.433   1.479 -0.9326 -0.5685 -0.3081
15305SOL    HW246494   6.923   6.512   1.421 -0.0240 -0.9058 -2.6996
15306SOL     OW46495   1.255   9.295   7.958 -0.5866 -0.6789  0.0211
15306SOL    HW146496   1.254   9.220   7.898  3.1908 -0.7877 -0.1477
15306SOL    HW246497   1.291   9.260   8.039 -1.0565  0.4730  0.7475
15307SOL     OW46498   1.085   7.948   0.576  0.3229 -0.0146 -0.0160
15307SOL    HW146499   1.003   7.985   0.542  0.0044 -0.6435  0.0534
15307SOL    HW246500   1.088   7.978   0.667 -0.3593 -0.8309  0.2931
15308SOL     OW46501   5.116   9.223   3.397  0.0784 -0.3688  0.0761
15308SOL    HW146502   5.049   9.280   3.434  0.4605 -0.0045  0.2082
15308SOL    HW246503   5.070   9.170   3.331  0.0367  1.2368 -1.2484
15309SOL     OW46504   0.349   5.851   3.020  0.2884  0.2795  0.3800
15309SOL    HW146505   0.439   5.868   2.993 -0.3172  0.4836 -1.7324
15309SOL    HW246506   0.307   5.938   3.020 -0.5318 -0.0646 -1.3524
15310SOL     OW46507   1.042   1.255   6.004  0.3180  0.2222  0.1626
15310SOL    HW146508   1.080   1.170   5.982  0.0740  0.3393 -0.7696
15310SOL    HW246509   1.097   1.289   6.073  1.1208 -0.1883 -0.2620
15311SOL     OW46510   7.535   0.576   5.692 -0.2447 -0.6220  0.5700
15311SOL    HW146511   7.623   0.540   5.704  1.4385  3.4193  2.1147
15311SOL    HW246512   7.492   0.566   5.777  0.0471  0.4395  0.8561
15312SOL     OW46513   5.856   5.738   2.850 -0.3284 -0.2293 -0.0931
15312SOL    HW146514   5.928   5.745   2.913  0.4350 -1.2909 -0.8035
15312SOL    HW246515   5.782   5.707   2.901 -0.2981  0.8652  0.6489
15313SOL     OW46516   9.716   4.198   9.585 -0.3563  0.6003  0.3130
15313SOL    HW146517   9.804   4.174   9.614 -0.5467  0.5311  0.8372
15313SOL    HW246518   9.728   4.281   9.538  0.2127 -0.1672 -0.9618
15314SOL     OW46519   7.400   7.993   5.575  0.1258  0.1038  0.0639
15314SOL    HW146520   7.381   8.086   5.570  1.5020  0.3707 -0.7336
15314SOL    HW246521   7.466   7.985   5.643 -0.8573 -0.4662  0.9818
15315SOL     OW46522   6.461   4.447   6.135  0.3748 -0.1578  0.5556
15315SOL    HW146523   6.462   4.371   6.078 -0.9652  0.0442  0.2389
15315SOL    HW246524   6.401   4.509   6.093 -2.2820 -0.7679  3.0894
15316SOL     OW46525   7.244   6.394   4.341  0.3031 -0.0407  0.3208
15316SOL    HW146526   7.169   6.349   4.301  0.7144  0.2892 -0.8614
15316SOL    HW246527   7.266   6.464   4.279  1.8093 -0.3407  0.4808
15317SOL     OW46528   3.582   6.564   2.589 -0.3194 -0.7357 -0.2219
15317SOL    HW146529   3.603   6.634   2.651  0.1218 -1.6141  0.6623
15317SOL    HW246530   3.549   6.493   2.644 -0.9325 -1.1629 -1.1179
15318SOL     OW46531   6.774   9.873   2.088 -0.3958 -0.4212  0.4028
15318SOL    HW146532   6.811   9.796   2.130  0.5648 -0.0770  0.2102
15318SOL    HW246533   6.787   9.944   2.151  1.5126  0.2030 -0.6263
15319SOL     OW46534   8.560   9.899   5.893  0.3015  0.8529 -0.1129
15319SOL    HW146535   8.466   9.882   5.898  0.3362  0.9324  1.0627
15319SOL    HW246536   8.589   9.852   5.814 -0.6115  0.3139 -0.1367
15320SOL     OW46537   6.060   7.651   2.119 -0.4593 -0.0234  0.2176
15320SOL    HW146538   6.109   7.733   2.125  0.5315 -0.3822 -1.7980
15320SOL    HW246539   5.968   7.677   2.123 -0.1527  0.9562  1.5469
15321SOL     OW46540   3.974   7.884   8.873 -0.1648  0.3667 -0.1818
15321SOL    HW146541   3.891   7.882   8.921  1.0715  1.9794  2.2550
15321SOL    HW246542   3.986   7.976   8.850  1.5541  0.4281  0.7682
15322SOL     OW46543   1.301   8.628   8.639  0.7478  0.6794  0.0347
15322SOL    HW146544   1.393   8.643   8.618  0.9755 -0.1321  0.4200
15322SOL    HW246545   1.302   8.551   8.695 -0.2998 -0.1865 -1.0965
15323SOL     OW46546   2.655   4.030   3.085 -0.3122 -0.0153  0.1941
15323SOL    HW146547   2.673   3.956   3.144 -2.0014 -1.9703 -1.5920
15323SOL    HW246548   2.741   4.063   3.061  0.4548 -0.1902  2.4224
15324SOL     OW46549   7.727   2.023   0.623 -0.1070  0.1332 -0.3597
15324SOL    HW146550   7.746   2.088   0.555 -0.5222  1.1148  0.4352
15324SOL    HW246551   7.640   2.047   0.655  0.0332 -0.3861  0.4339
15325SOL     OW46552   7.085   8.671   1.318 -0.3307 -0.0629  0.2494
15325SOL    HW146553   7.176   8.702   1.319 -1.1029  2.7227 -2.0079
15325SOL    HW246554   7.053   8.690   1.406  0.6184  1.2130  0.3556
15326SOL     OW46555   4.460   1.389   8.721  0.4771 -0.1623  0.1089
15326SOL    HW146556   4.518   1.374   8.646  1.5321 -0.1623  0.9173
15326SOL    HW246557   4.423   1.302   8.739 -0.2455 -0.0560 -0.7649
15327SOL     OW46558   5.516   4.340   4.700  0.2377 -0.0809 -0.3573
15327SOL    HW146559   5.519   4.310   4.610  0.2694 -0.6532 -0.1681
15327SOL    HW246560   5.423   4.355   4.717  0.3575  1.5107 -0.9572
15328SOL     OW46561   2.348   3.303   6.647  0.4602 -0.0700  0.8409
15328SOL    HW146562   2.269   3.283   6.697  0.4703  1.0063  1.3130
15328SOL    HW246563   2.319   3.365   6.581  0.6448 -0.7456  0.1188
15329SOL     OW46564   2.048   1.831   8.161 -0.5001 -0.0431 -0.1987
15329SOL    HW146565   2.011   1.902   8.109 -0.8790 -0.2061 -0.1551
15329SOL    HW246566   2.014   1.751   8.121 -1.2835 -0.1540  0.6550
15330SOL     OW46567   3.345   7.708   9.479  0.0051 -0.3033  0.2452
15330SOL    HW146568   3.315   7.792   9.512 -0.1557 -0.5044  0.6151
15330SOL    HW246569   3.287   7.689   9.405 -0.5701 -0.5303  0.7459
15331SOL     OW46570   4.283   8.233   9.926  0.0954 -0.0869  0.2843
15331SOL    HW146571   4.234   8.153   9.914  1.6801 -1.2587  1.1969
15331SOL    HW246572   4.314   8.256   9.838  2.0137 -2.1416  0.3256
15332SOL     OW46573   0.984   4.180   0.007  0.2404  0.3586  0.2299
15332SOL    HW146574   0.904   4.217   0.045  0.5255  1.7946 -0.4956
15332SOL    HW246575   0.970   4.085   0.011 -0.4865  0.4837  2.2444
15333SOL     OW46576   1.640   2.769   2.184  0.1449 -0.0910  0.0685
15333SOL    HW146577   1.658   2.858   2.212 -0.5928  0.0931 -0.0309
15333SOL    HW246578   1.642   2.717   2.264  0.3762  0.0466  0.1512
15334SOL     OW46579   1.275   0.948   5.120 -0.3252 -0.0136  0.8871
15334SOL    HW146580   1.279   1.017   5.187  3.4825  2.8907 -1.8542
15334SOL    HW246581   1.337   0.882   5.150 -1.1082 -0.3863  1.7231
15335SOL     OW46582   3.769   5.561   3.220  0.6094 -0.0742  0.2603
15335SOL    HW146583   3.703   5.579   3.153 -1.2347 -0.3480  1.9134
15335SOL    HW246584   3.839   5.625   3.203 -1.2786  2.0255  0.0147
15336SOL     OW46585   7.723   3.648   4.350  0.4214  0.2648 -0.4360
15336SOL    HW146586   7.733   3.699   4.430 -0.2257  1.6406 -1.1963
15336SOL    HW246587   7.642   3.598   4.363  1.2324 -0.8903  0.4460
15337SOL     OW46588   4.786   1.362   7.909 -0.1699  0.3328 -0.0776
15337SOL    HW146589   4.832   1.278   7.912  0.3949  0.6545  0.4647
15337SOL    HW246590   4.849   1.423   7.871 -0.0923  0.8062  0.7926
15338SOL     OW46591   0.426   8.472   4.359  0.3135 -0.1735 -0.8325
15338SOL    HW146592   0.451   8.556   4.320  3.1611 -0.0987  0.8969
15338SOL    HW246593   0.492   8.410   4.327  0.4606 -0.9162  0.8241
15339SOL     OW46594   8.148   8.715   8.772  0.2538  0.7170 -0.0484
15339SOL    HW146595   8.136   8.696   8.679 -0.0674  0.9604 -0.0606
15339SOL    HW246596   8.173   8.632   8.811  0.8354  0.7090 -0.4295
15340SOL     OW46597   5.290   9.256   2.398  0.1299 -0.5421 -0.2785
15340SOL    HW146598   5.308   9.349   2.381  1.0570 -0.7662 -0.6041
15340SOL    HW246599   5.265   9.253   2.490  0.5325 -0.0252 -0.1438
15341SOL     OW46600   8.980   9.271   8.661 -0.0596  0.7313 -0.2357
15341SOL    HW146601   9.039   9.225   8.601  1.2699  0.3614  1.2874
15341SOL    HW246602   8.938   9.201   8.711 -0.0100  1.0725  0.2912
15342SOL     OW46603   5.829   0.863   3.019  0.0792 -0.3375  0.0056
15342SOL    HW146604   5.784   0.812   2.952 -0.0736 -0.7001  0.3790
15342SOL    HW246605   5.786   0.949   3.017  1.5429  0.4388 -1.8987
15343SOL     OW46606   5.867   6.142   6.669  0.0501  0.3934  0.1944
15343SOL    HW146607   5.776   6.122   6.646  0.5529 -2.5521  0.3316
15343SOL    HW246608   5.912   6.147   6.584  0.0149  0.4478  0.1785
15344SOL     OW46609   9.767   9.250   1.462  0.2655 -0.8919  0.2773
15344SOL    HW146610   9.687   9.267   1.413 -0.2032  0.8771  1.5198
15344SOL    HW246611   9.837   9.255   1.397 -0.5438 -1.5433 -0.6688
15345SOL     OW46612   8.075   6.253   3.346 -0.3409 -0.4129 -0.5670
15345SOL    HW146613   8.029   6.219   3.423  0.5012  2.0245  1.1322
15345SOL    HW246614   8.072   6.348   3.356  1.3382 -0.0622 -2.6428
15346SOL     OW46615   1.492   7.435   1.341  0.1960 -0.0698 -0.2135
15346SOL    HW146616   1.518   7.527   1.341  0.3433 -0.1025 -0.8029
15346SOL    HW246617   1.505   7.406   1.431  0.0039  0.5248  0.0141
15347SOL     OW46618   3.131   7.052   8.389  0.4580 -0.1423 -0.4461
15347SOL    HW146619   3.151   7.022   8.300  1.0400  0.8199 -0.6512
15347SOL    HW246620   3.121   7.147   8.381  2.3206  0.2166  0.7993
15348SOL     OW46621   6.309   8.193   6.592 -0.3849 -0.0727 -0.5502
15348SOL    HW146622   6.274   8.122   6.645 -0.0159  0.0189 -0.1843
15348SOL    HW246623   6.395   8.163   6.564  0.9035  1.2267  1.7236
15349SOL     OW46624   1.867   8.281   6.686 -0.4696  0.0772  0.2053
15349SOL    HW146625   1.843   8.191   6.709  1.1737 -0.5932 -0.5869
15349SOL    HW246626   1.943   8.300   6.740 -1.7124  1.6119  1.5368
15350SOL     OW46627   7.624   9.665   1.969 -0.1851  0.4102 -0.0273
15350SOL    HW146628   7.712   9.658   1.931  0.2454 -0.6953  1.1159
15350SOL    HW246629   7.588   9.576   1.963 -1.6323  1.0290 -1.3460
15351SOL     OW46630   7.972   3.811   7.732  0.4643  0.3014 -0.1165
15351SOL    HW146631   7.980   3.892   7.681 -2.3641  0.8422  0.1327
15351SOL    HW246632   7.962   3.841   7.822  0.5964 -0.4114  0.1418
15352SOL     OW46633   9.355   3.937   5.634 -0.5775  0.6393 -0.1042
15352SOL    HW146634   9.392   3.897   5.555  0.1036  0.0774  0.4888
15352SOL    HW246635   9.270   3.894   5.646 -0.1653 -0.1206  0.1233
15353SOL     OW46636   6.377   5.396   6.325 -0.3039  0.8330  0.3010
15353SOL    HW146637   6.336   5.456   6.263  0.5141  2.0000  0.8319
15353SOL    HW246638   6.463   5.378   6.287 -0.8927 -0.8087 -0.3242
15354SOL     OW46639   6.707   7.732   5.693  0.9842 -0.2629 -0.0295
15354SOL    HW146640   6.751   7.773   5.767 -0.4892  0.5642  0.4367
15354SOL    HW246641   6.693   7.804   5.631  1.0331 -0.6819 -0.5317
15355SOL     OW46642   2.683   6.488   5.009  0.1388 -0.7169 -0.2805
15355SOL    HW146643   2.598   6.515   4.975  0.9396  0.3525 -1.5649
15355SOL    HW246644   2.684   6.393   4.997 -0.5021 -0.6271 -1.1547
15356SOL     OW46645   9.126   5.104   5.415  0.6229 -0.1443 -0.3841
15356SOL    HW146646   9.041   5.074   5.450 -0.2484  0.4567 -1.8898
15356SOL    HW246647   9.172   5.139   5.491 -0.3607 -0.7212  0.5168
15357SOL     OW46648   9.268   3.772   4.035 -0.3887  0.3262  0.2381
15357SOL    HW146649   9.298   3.711   4.103 -0.7662 -2.5379 -1.9897
15357SOL    HW246650   9.308   3.856   4.059  1.6354 -1.1600  2.5283
15358SOL     OW46651   8.469   1.992   5.062  0.0362  0.2507 -0.5863
15358SOL    HW146652   8.474   2.012   5.156  0.3233 -0.7374 -0.3721
15358SOL    HW246653   8.375   1.992   5.043  0.0285  1.9115 -0.6496
15359SOL     OW46654   0.584   0.928   4.437  0.2581 -0.7152  0.4564
15359SOL    HW146655   0.628   0.986   4.500 -2.1494  0.7809  0.8843
15359SOL    HW246656   0.559   0.852   4.489  0.0990 -0.4141  0.8264
15360SOL     OW46657   0.139   0.733   2.639  0.4466 -0.0542 -0.4416
15360SOL    HW146658   0.173   0.713   2.727 -2.3790 -0.7248  0.6060
15360SOL    HW246659   0.158   0.655   2.588 -0.0115 -0.6523  0.2818
15361SOL     OW46660   3.736   8.288   2.561  0.4505  0.4357  0.8225
15361SOL    HW146661   3.686   8.207   2.571 -0.0582  0.9715  2.9078
15361SOL    HW246662   3.746   8.298   2.466 -1.5414 -0.7935  0.4335
15362SOL     OW46663   3.213   8.747   3.565 -0.3831 -0.0178 -0.4572
15362SOL    HW146664   3.169   8.684   3.507  1.4292  0.1554 -2.0962
15362SOL    HW246665   3.283   8.784   3.512  0.6333  1.0249  1.5138
15363SOL     OW46666   0.150   9.360   9.376 -0.0629 -0.4394  0.0953
15363SOL    HW146667   0.157   9.271   9.341  0.0301  0.1997 -1.5865
15363SOL    HW246668   0.103   9.409   9.308 -1.0379  0.5694  1.4388
15364SOL     OW46669   1.451   5.563   3.674 -0.1198  0.1832  0.4373
15364SOL    HW146670   1.490   5.476   3.667 -1.1445 -0.2613  0.1318
15364SOL    HW246671   1.432   5.574   3.767  2.2759  1.1179  0.8944
15365SOL     OW46672   5.683   6.347   0.918 -0.1092  0.1550 -0.5175
15365SOL    HW146673   5.763   6.372   0.872  0.4712  0.8495  0.8274
15365SOL    HW246674   5.615   6.349   0.850  0.9030  0.0502 -1.5693
15366SOL     OW46675   5.458   9.980   8.494 -0.0390  1.2315  0.4815
15366SOL    HW146676   5.381  10.015   8.539 -0.7644  0.8571 -0.4371
15366SOL    HW246677   5.447   9.885   8.499  0.1935  1.1831  0.0494
15367SOL     OW46678   6.837   1.308   4.086  0.3484 -0.1575 -0.2998
15367SOL    HW146679   6.799   1.328   4.172 -0.0432 -2.7054  0.1903
15367SOL    HW246680   6.878   1.390   4.059 -1.4166  1.3660  1.2981
15368SOL     OW46681   3.645   1.795   2.521 -0.2975 -0.1214 -0.2016
15368SOL    HW146682   3.739   1.781   2.509  0.1280  1.6240  0.7870
15368SOL    HW246683   3.636   1.818   2.613 -1.4409  1.4902 -0.6741
15369SOL     OW46684   6.692   2.924   7.815 -0.7910 -0.2135  0.6642
15369SOL    HW146685   6.626   2.869   7.773  0.6986 -2.4328  1.0815
15369SOL    HW246686   6.664   3.014   7.795 -1.8643 -1.1129 -2.3222
15370SOL     OW46687   0.553   0.772   5.539  0.3832  0.3817 -0.3700
15370SOL    HW146688   0.557   0.778   5.635 -0.2352 -0.2956 -0.2978
15370SOL    HW246689   0.645   0.779   5.512  0.8244 -1.6936  0.4198
15371SOL     OW46690   2.186   0.625   3.109 -0.7616  0.2320 -0.0093
15371SOL    HW146691   2.184   0.655   3.018 -0.9271  1.1455  0.2836
15371SOL    HW246692   2.135   0.690   3.157 -2.7817 -1.5474  0.3779
15372SOL     OW46693   8.172   1.525   2.736  0.2229 -0.7530 -0.0382
15372SOL    HW146694   8.091   1.570   2.758  0.7807  1.2935 -1.7664
15372SOL    HW246695   8.147   1.463   2.668 -0.1600 -1.3293  0.6257
15373SOL     OW46696   3.201   1.431   9.459  0.0097 -0.6283  0.1567
15373SOL    HW146697   3.221   1.351   9.508  2.7353  0.3446  0.8027
15373SOL    HW246698   3.265   1.432   9.387 -1.1438  0.1250 -0.9087
15374SOL     OW46699   7.311   3.563   5.285 -0.0323 -0.3101  0.0237
15374SOL    HW146700   7.344   3.598   5.368 -0.5669 -2.7944  1.3940
15374SOL    HW246701   7.218   3.548   5.302  0.0510 -1.7285 -0.6782
15375SOL     OW46702   1.283   6.937   8.333  0.6061 -0.0983 -0.2994
15375SOL    HW146703   1.351   6.963   8.396  0.5691  0.0717 -0.3283
15375SOL    HW246704   1.319   6.860   8.289  0.4628 -0.4583  0.2069
15376SOL     OW46705   9.939   6.838   4.178 -0.3703  0.2761 -0.9683
15376SOL    HW146706  10.006   6.869   4.117  0.7897  0.8792  0.5436
15376SOL    HW246707   9.904   6.918   4.218  0.1739 -0.1702  0.4456
15377SOL     OW46708   1.488   4.535   5.802  0.3204  0.2233  0.2884
15377SOL    HW146709   1.578   4.522   5.770  0.3373 -0.3789  0.5732
15377SOL    HW246710   1.494   4.613   5.857  0.8085 -0.1843  0.8269
15378SOL     OW46711   2.921   6.957   1.149 -0.1553  0.5186 -0.1419
15378SOL    HW146712   2.961   6.901   1.083  1.5234 -0.3487  1.4888
15378SOL    HW246713   2.902   7.039   1.104 -0.6723 -0.6123 -2.0715
15379SOL     OW46714   2.892   7.153   0.206 -0.2753  0.0714 -0.0653
15379SOL    HW146715   2.935   7.144   0.291  0.3100 -0.8386 -0.4500
15379SOL    HW246716   2.863   7.245   0.204  0.5733  0.3736  0.7020
15380SOL     OW46717   9.211   1.606   5.565  0.5120 -0.3904  0.5421
15380SOL    HW146718   9.170   1.665   5.628  2.2697  0.1851  1.2290
15380SOL    HW246719   9.222   1.657   5.486 -0.3896 -0.6597  0.2348
15381SOL     OW46720   6.059   4.754   7.277 -0.1513 -0.3869  0.5712
15381SOL    HW146721   6.119   4.761   7.352 -0.7487 -0.1935  1.0336
15381SOL    HW246722   6.028   4.664   7.280  0.2616 -0.5453  0.2130
15382SOL     OW46723   9.117   5.342   7.837 -0.3962 -0.2154  0.7439
15382SOL    HW146724   9.212   5.349   7.832 -0.5273  0.9968 -0.9960
15382SOL    HW246725   9.086   5.433   7.834 -1.6824 -0.6327 -2.1739
15383SOL     OW46726   9.533   8.912   1.387  0.2435  0.6258 -0.7933
15383SOL    HW146727   9.525   8.969   1.464  2.8847  1.0364 -0.7316
15383SOL    HW246728   9.612   8.861   1.403 -1.2423 -2.0827 -1.5373
15384SOL     OW46729   6.611   0.547   5.038 -0.7407  0.3916  0.0121
15384SOL    HW146730   6.698   0.560   5.000  0.3945 -1.0377  1.9110
15384SOL    HW246731   6.564   0.628   5.019  1.6410  2.0106  0.5072
15385SOL     OW46732   5.681   5.165   3.986  0.3158  0.0694  0.8460
15385SOL    HW146733   5.667   5.216   3.906 -0.7397  1.3833  1.8354
15385SOL    HW246734   5.605   5.107   3.990  0.2849  0.1195  0.9771
15386SOL     OW46735   1.125   2.836   8.748  0.5065  0.7367 -0.1147
15386SOL    HW146736   1.050   2.807   8.696  0.5266  1.7027 -0.7104
15386SOL    HW246737   1.085   2.871   8.828  0.3780  0.5869 -0.1109
15387SOL     OW46738   2.718   4.381   1.929 -0.0018  0.0834  0.1261
15387SOL    HW146739   2.745   4.441   1.998 -0.0769 -1.7601  1.8438
15387SOL    HW246740   2.643   4.423   1.888  0.6026  1.6245  0.5550
15388SOL     OW46741   2.326   6.014   4.220 -0.6236  0.1181  0.1772
15388SOL    HW146742   2.324   6.010   4.315  0.6208 -0.4988  0.2060
15388SOL    HW246743   2.364   5.930   4.194 -0.0566  0.6638 -0.8137
15389SOL     OW46744   9.999   6.745   6.500  0.2216  0.0149  0.0007
15389SOL    HW146745   9.965   6.755   6.412  0.0532  3.4722  0.3406
15389SOL    HW246746   9.923   6.722   6.553  0.0864 -0.7639 -0.5103
15390SOL     OW46747   8.771   0.214   9.851  0.1416  0.0971 -0.1954
15390SOL    HW146748   8.832   0.285   9.831  0.9598 -0.7167 -0.6510
15390SOL    HW246749   8.709   0.214   9.778 -0.3424  0.8407  0.2031
15391SOL     OW46750   7.463   3.811   1.171 -0.0517  0.3529  0.1441
15391SOL    HW146751   7.502   3.756   1.239 -1.4186  0.1211  0.7797
15391SOL    HW246752   7.422   3.749   1.110 -0.5717  0.6131  0.2206
15392SOL     OW46753   1.482   4.794   9.715 -0.1578  0.7950  0.0468
15392SOL    HW146754   1.417   4.751   9.659  1.3184 -1.3514 -0.1505
15392SOL    HW246755   1.518   4.864   9.660 -1.7631  1.5676 -0.0779
15393SOL     OW46756   4.485   7.267   2.723 -0.1783  0.4621  0.4253
15393SOL    HW146757   4.537   7.340   2.688  0.8765 -0.4917 -0.1035
15393SOL    HW246758   4.466   7.213   2.646  2.7590 -2.0440  1.2325
15394SOL     OW46759   4.957   1.337   4.236  0.2000 -0.5477  0.0353
15394SOL    HW146760   5.004   1.421   4.231 -0.0980 -0.1114  2.7028
15394SOL    HW246761   5.025   1.271   4.226  1.0099  0.0686  1.2531
15395SOL     OW46762   6.246   8.414   6.121  0.0536 -0.1269 -0.3494
15395SOL    HW146763   6.274   8.505   6.123  2.0279 -0.6634 -0.7078
15395SOL    HW246764   6.280   8.376   6.202  0.1157 -0.7618 -0.6632
15396SOL     OW46765   7.398   1.232   8.169 -0.3529 -0.2911 -0.1560
15396SOL    HW146766   7.312   1.193   8.181  0.3793 -1.5363  1.3703
15396SOL    HW246767   7.400   1.306   8.231 -0.0788 -0.7132  0.3476
15397SOL     OW46768   5.664   3.779   0.343  0.7991 -0.1867 -0.6086
15397SOL    HW146769   5.691   3.724   0.269 -0.1093 -1.5492  0.0399
15397SOL    HW246770   5.611   3.722   0.398  1.0752  0.9276  0.8844
15398SOL     OW46771   5.608   1.379   9.219  0.4312 -0.0802 -0.1591
15398SOL    HW146772   5.536   1.362   9.159 -0.4654  0.6797  0.6611
15398SOL    HW246773   5.599   1.471   9.243 -0.3166 -0.7394  2.4660
15399SOL     OW46774   8.867   5.758   7.890  0.3637  0.1316  0.3581
15399SOL    HW146775   8.783   5.742   7.846  0.3661  0.9954  0.0111
15399SOL    HW246776   8.843   5.808   7.968  0.4549 -0.5444  0.8201
15400SOL     OW46777   4.261   8.380   3.010 -0.7205  0.1244 -0.1003
15400SOL    HW146778   4.187   8.379   3.071 -0.2186 -1.7304  0.5527
15400SOL    HW246779   4.223   8.366   2.924 -1.2307  0.4361  0.0736
15401SOL     OW46780   4.124   2.331   0.203  0.4751  0.5803 -0.4787
15401SOL    HW146781   4.172   2.254   0.173  0.2969 -0.0715  0.8331
15401SOL    HW246782   4.190   2.399   0.213  1.0629 -0.1378  0.7479
15402SOL     OW46783   5.354   5.170   1.698  0.2637  0.0607  0.1034
15402SOL    HW146784   5.397   5.099   1.746  0.1150 -0.3484 -0.3565
15402SOL    HW246785   5.329   5.233   1.766  3.1670  1.2198  0.2750
15403SOL     OW46786   6.250   9.379   5.656  0.3080 -0.2082  0.1065
15403SOL    HW146787   6.284   9.326   5.584  0.2891  1.3404 -1.1174
15403SOL    HW246788   6.160   9.400   5.629  0.3261  0.4408  0.5417
15404SOL     OW46789   0.555   6.000   9.389  0.7200 -0.0481 -0.7496
15404SOL    HW146790   0.611   6.077   9.377 -0.5025  0.7267 -1.6472
15404SOL    HW246791   0.612   5.926   9.370  1.6736  0.6726 -0.7654
15405SOL     OW46792   2.754   0.343   8.611  0.2711  0.0053  0.1863
15405SOL    HW146793   2.783   0.397   8.538  2.2865  0.4358  1.2071
15405SOL    HW246794   2.692   0.397   8.660 -2.0036 -0.7031 -1.7354
15406SOL     OW46795   5.135   3.479   9.741  0.1483 -0.2786 -0.1197
15406SOL    HW146796   5.210   3.421   9.729 -1.0745 -1.7272 -1.1077
15406SOL    HW246797   5.081   3.464   9.663  0.1969  2.8792 -0.8888
15407SOL     OW46798   9.000   0.176   8.108 -0.4370 -0.0658  0.3157
15407SOL    HW146799   8.964   0.100   8.062  1.4388  0.6316 -2.5811
15407SOL    HW246800   8.976   0.251   8.053  0.5937  1.0451  1.3095
15408SOL     OW46801   9.374   4.725   0.230  0.2767  0.2464  0.3724
15408SOL    HW146802   9.444   4.660   0.236 -1.1583 -1.3160  0.8565
15408SOL    HW246803   9.302   4.678   0.189  0.2949  2.5532 -2.6325
15409SOL     OW46804   2.215   1.154   5.874  0.1395  0.3126 -0.0806
15409SOL    HW146805   2.221   1.207   5.795  1.5170 -0.4050 -0.4894
15409SOL    HW246806   2.268   1.201   5.938 -1.3189  1.1207  0.6013
15410SOL     OW46807   0.557   4.152   1.450  0.2666 -0.2504 -0.1130
15410SOL    HW146808   0.641   4.118   1.481 -0.3951 -2.1432 -0.2511
15410SOL    HW246809   0.577   4.190   1.364  0.7998 -1.8187 -0.7262
15411SOL     OW46810   3.590   6.649   6.476 -0.4303 -0.5006  0.7747
15411SOL    HW146811   3.566   6.606   6.558 -0.8587 -0.8083  0.4947
15411SOL    HW246812   3.622   6.578   6.420  0.4498 -0.1984  0.8856
15412SOL     OW46813   2.484   9.225   4.793 -0.0987 -0.5361  0.0418
15412SOL    HW146814   2.564   9.179   4.820  0.2936 -0.5996 -1.1682
15412SOL    HW246815   2.445   9.255   4.875  0.5413 -1.5364  0.7406
15413SOL     OW46816   2.715   8.150   3.542  0.6786  0.4467 -0.3256
15413SOL    HW146817   2.728   8.152   3.447  0.5448 -0.2656 -0.3659
15413SOL    HW246818   2.627   8.187   3.555  0.1170 -0.7421 -0.6093
15414SOL     OW46819   1.490   0.090   1.474 -0.2830  0.5101  0.1246
15414SOL    HW146820   1.421   0.146   1.509 -0.2117 -0.5893  2.1690
15414SOL    HW246821   1.444   0.019   1.431 -0.3773  1.0170 -0.6396
15415SOL     OW46822   3.494   3.951   8.799 -0.0432 -0.2729  0.2018
15415SOL    HW146823   3.441   3.900   8.738  1.5282  0.4635 -1.9126
15415SOL    HW246824   3.441   4.029   8.817 -0.7682 -0.7688  0.2613
15416SOL     OW46825   5.611   3.772   8.290 -0.4265  0.2555 -0.4815
15416SOL    HW146826   5.638   3.859   8.259 -1.9024  0.7326 -0.5207
15416SOL    HW246827   5.538   3.748   8.234  0.2408 -1.2308 -0.7512
15417SOL     OW46828   5.537   4.729   4.547  0.2544  0.4227  0.5891
15417SOL    HW146829   5.497   4.704   4.630 -1.3505 -0.1380 -0.3091
15417SOL    HW246830   5.492   4.676   4.482  0.6979  1.6443 -0.7605
15418SOL     OW46831   0.233   7.660   9.851  0.1835  0.2331  0.2099
15418SOL    HW146832   0.280   7.715   9.914  1.6262  0.1089 -0.7227
15418SOL    HW246833   0.299   7.634   9.787 -1.2546  0.4373 -1.4312
15419SOL     OW46834   8.517   9.390   1.430  0.0773  0.0591  0.0974
15419SOL    HW146835   8.576   9.387   1.505  1.9600  0.4042 -1.2928
15419SOL    HW246836   8.446   9.329   1.453  0.2081  0.6874  2.4074
15420SOL     OW46837   2.515   9.247   3.966 -0.4567  0.2660 -0.7545
15420SOL    HW146838   2.604   9.253   3.931  0.7747 -2.5415  1.3892
15420SOL    HW246839   2.523   9.279   4.056 -0.8332 -2.4625  0.3638
15421SOL     OW46840   8.362   3.674   6.399 -0.4143  0.0311 -0.7636
15421SOL    HW146841   8.407   3.721   6.329  1.6611  1.4049  1.3170
15421SOL    HW246842   8.416   3.596   6.415 -0.7231 -0.1381 -0.5331
15422SOL     OW46843   0.997   4.749   1.362  0.1824 -0.3510 -0.3896
15422SOL    HW146844   0.960   4.757   1.274 -1.2328  0.4373  0.2575
15422SOL    HW246845   0.989   4.656   1.383  0.2606 -0.4937 -0.9633
15423SOL     OW46846   0.526   2.501   8.622  0.2885 -0.1619 -0.2314
15423SOL    HW146847   0.538   2.407   8.609 -0.6955 -0.2437 -0.6908
15423SOL    HW246848   0.594   2.542   8.568  1.7923 -0.6009  1.2560
15424SOL     OW46849   5.384   8.523   3.816  0.2122 -0.1476 -0.5507
15424SOL    HW146850   5.427   8.608   3.807  0.9516 -0.6219 -1.8297
15424SOL    HW246851   5.303   8.532   3.766  0.8850 -0.5509 -1.7609
15425SOL     OW46852   9.586   4.630   7.276 -0.1759 -0.1789  0.2641
15425SOL    HW146853   9.522   4.646   7.345 -0.1980 -0.3475  0.2833
15425SOL    HW246854   9.533   4.610   7.198 -0.1433 -1.0807  0.4628
15426SOL     OW46855   9.663   9.952   9.667 -0.4871 -0.4368  0.4645
15426SOL    HW146856   9.592   9.892   9.691  1.2648 -2.0190  2.0188
15426SOL    HW246857   9.643  10.033   9.714 -1.1947 -0.9218  1.0263
15427SOL     OW46858   5.604   0.202   0.415  0.1303  0.2527 -0.2468
15427SOL    HW146859   5.698   0.187   0.405  0.1455 -1.3441  1.6718
15427SOL    HW246860   5.592   0.214   0.509 -1.5968  0.3809 -0.4598
15428SOL     OW46861   4.313   5.214   9.323  0.2034 -0.2584  0.1315
15428SOL    HW146862   4.330   5.149   9.255  0.9370 -1.0649  1.0637
15428SOL    HW246863   4.362   5.183   9.399  0.8152  1.5337  0.5240
15429SOL     OW46864   3.786   9.475   4.520 -0.7523 -0.0810  0.1973
15429SOL    HW146865   3.770   9.570   4.526 -0.9980 -0.1323  0.3562
15429SOL    HW246866   3.746   9.450   4.437 -0.6582 -0.0392  0.1393
15430SOL     OW46867   0.420   0.766   2.505 -0.2975  0.2430  0.3679
15430SOL    HW146868   0.488   0.699   2.498 -1.2311 -1.0228  2.4906
15430SOL    HW246869   0.412   0.801   2.417  0.1613 -2.5168 -0.8688
15431SOL     OW46870   6.237   2.024   7.136  0.9050 -0.0358  0.3596
15431SOL    HW146871   6.231   2.112   7.173 -1.4010 -0.1506  0.4213
15431SOL    HW246872   6.284   1.973   7.202  1.7265  0.9962  0.5917
15432SOL     OW46873   0.887   9.672   1.334 -0.4279 -0.2728 -0.3564
15432SOL    HW146874   0.838   9.721   1.269 -1.6555 -0.9149  0.0527
15432SOL    HW246875   0.935   9.606   1.284 -1.3075 -0.7164 -0.6260
15433SOL     OW46876   9.255   4.807   2.480  0.2141  0.4437  0.0079
15433SOL    HW146877   9.171   4.809   2.525 -0.3900  2.1074 -1.0816
15433SOL    HW246878   9.232   4.805   2.387  1.4256 -2.4682 -0.3128
15434SOL     OW46879   9.810   6.166   8.435 -0.1321 -0.1714 -0.2837
15434SOL    HW146880   9.799   6.258   8.408 -1.5184  0.2786  1.5937
15434SOL    HW246881   9.877   6.169   8.503  1.2886 -0.8868 -1.5972
15435SOL     OW46882   4.110   0.935   1.008 -0.2425  0.0253 -0.1229
15435SOL    HW146883   4.040   0.873   0.990  0.7112 -0.8523 -0.9719
15435SOL    HW246884   4.143   0.910   1.094 -0.4782 -0.0323 -0.0485
15436SOL     OW46885   0.714   7.436   5.811 -0.4810 -0.0735 -0.1027
15436SOL    HW146886   0.672   7.359   5.849 -0.0866 -0.9346 -1.3509
15436SOL    HW246887   0.795   7.403   5.772  1.0870  1.4272  1.6352
15437SOL     OW46888   8.848   5.738   3.752  0.2177 -0.0470 -0.2401
15437SOL    HW146889   8.836   5.824   3.794  0.3482 -0.1676  0.0507
15437SOL    HW246890   8.917   5.696   3.804  1.5945  0.4564 -1.6025
15438SOL     OW46891   3.169   9.159   7.098  0.0964  0.2730 -0.3223
15438SOL    HW146892   3.130   9.087   7.148  1.4025 -0.7446 -0.7160
15438SOL    HW246893   3.263   9.153   7.117  0.3450  1.1997 -1.2201
15439SOL     OW46894   8.118   9.083   5.044  0.0392  0.2477  0.2165
15439SOL    HW146895   8.156   9.151   5.099 -0.5111 -0.1250  1.0740
15439SOL    HW246896   8.068   9.131   4.978  0.6864  0.6959  0.0314
15440SOL     OW46897   0.563   3.813   9.961  0.4520  0.1498 -0.5481
15440SOL    HW146898   0.523   3.823   9.874 -1.3501  1.8108  0.3952
15440SOL    HW246899   0.626   3.885   9.966 -0.2439  0.7481 -0.1084
15441SOL     OW46900   3.454   7.461   2.225 -0.3536 -0.3725 -0.0759
15441SOL    HW146901   3.423   7.551   2.211 -0.2093 -0.0906  1.2805
15441SOL    HW246902   3.548   7.465   2.213 -0.4814 -0.6258 -1.2900
15442SOL     OW46903   6.413   5.295   2.529  0.1645  0.0049  0.4025
15442SOL    HW146904   6.326   5.258   2.549  0.7412 -1.6463 -0.0145
15442SOL    HW246905   6.409   5.315   2.436  1.0882 -2.7533 -0.3385
15443SOL     OW46906   3.952   3.270   0.040 -1.0627 -0.0628 -0.2543
15443SOL    HW146907   4.043   3.287   0.014 -1.3076  0.7427 -0.5968
15443SOL    HW246908   3.902   3.278  -0.041 -1.7599  1.9022  0.3230
15444SOL     OW46909   8.281   8.222   9.708  0.1140  0.1193 -0.7608
15444SOL    HW146910   8.315   8.301   9.667  3.4845 -1.3472 -1.0726
15444SOL    HW246911   8.346   8.154   9.689 -0.6362 -1.8531  2.7503
15445SOL     OW46912   5.115   0.090   4.495 -0.8892  0.2554 -0.0167
15445SOL    HW146913   5.021   0.084   4.512 -0.7927  0.6616  0.7054
15445SOL    HW246914   5.123   0.146   4.418 -1.2509 -0.0819 -0.3043
15446SOL     OW46915   1.616   2.709   1.115 -0.2943  0.3050 -0.2245
15446SOL    HW146916   1.665   2.788   1.094 -0.6572  1.0081  1.3995
15446SOL    HW246917   1.683   2.648   1.149 -0.3512  0.8976  1.0232
15447SOL     OW46918   7.639   6.866   6.924 -0.4029  0.3413 -0.1963
15447SOL    HW146919   7.595   6.803   6.982 -0.9943 -0.0620 -1.0682
15447SOL    HW246920   7.645   6.946   6.976 -4.3614  1.2114 -0.7834
15448SOL     OW46921   9.735   0.703   1.112 -0.9050 -0.7373 -0.1898
15448SOL    HW146922   9.652   0.665   1.083 -1.4646 -1.3214  2.0089
15448SOL    HW246923   9.788   0.629   1.138  0.5293 -0.3944 -1.9290
15449SOL     OW46924   8.292   2.865   1.788 -0.0529  0.0178 -0.1228
15449SOL    HW146925   8.296   2.916   1.869 -1.6496 -0.7027  0.4304
15449SOL    HW246926   8.236   2.791   1.808  1.7330 -1.6970 -1.0966
15450SOL     OW46927   2.411   8.739   6.923 -0.3935 -0.3561 -0.8215
15450SOL    HW146928   2.448   8.787   6.997 -1.6846 -1.3165  0.5081
15450SOL    HW246929   2.487   8.709   6.873  0.6476 -1.7999  1.4950
15451SOL     OW46930   9.431   7.990   9.326 -0.0134  0.0533 -0.4012
15451SOL    HW146931   9.481   7.909   9.319 -0.3339 -0.0309 -2.1159
15451SOL    HW246932   9.411   7.998   9.420 -2.2241 -3.2185 -0.4251
15452SOL     OW46933   2.308   9.184   7.650 -0.1742  0.5367  0.8544
15452SOL    HW146934   2.401   9.187   7.630 -0.1829  1.5210  0.9027
15452SOL    HW246935   2.300   9.225   7.736 -0.6879  0.8166  0.6814
15453SOL     OW46936   2.190   3.477   6.062 -0.0446 -0.2577 -0.1515
15453SOL    HW146937   2.237   3.402   6.097  1.0859  0.4605 -0.0899
15453SOL    HW246938   2.229   3.492   5.976 -1.3565 -0.7036 -0.8481
15454SOL     OW46939   0.391   2.911   9.808  0.5664 -0.0612 -0.6704
15454SOL    HW146940   0.375   3.005   9.805  3.2825  0.4935 -1.0980
15454SOL    HW246941   0.333   2.874   9.741  0.7043  1.5610 -1.7452
15455SOL     OW46942   3.121   9.157   2.735 -0.3728  0.0405  0.6832
15455SOL    HW146943   3.054   9.217   2.703 -1.0432 -0.2311  1.5217
15455SOL    HW246944   3.077   9.072   2.739  0.7298 -0.6531 -1.0343
15456SOL     OW46945   6.983   6.919   5.413 -0.1117 -0.6466 -0.3235
15456SOL    HW146946   7.025   6.840   5.447 -0.3383 -0.0033  1.5756
15456SOL    HW246947   6.916   6.940   5.478 -0.6331  0.6391 -1.2301
15457SOL     OW46948   6.908   3.134   0.462 -0.4943  0.2121 -0.2220
15457SOL    HW146949   6.815   3.146   0.444 -0.2078  3.2545 -0.2295
15457SOL    HW246950   6.917   3.151   0.556 -0.1677 -2.1104  0.2132
15458SOL     OW46951   0.801   9.898   3.417  0.1982 -0.1419  0.1586
15458SOL    HW146952   0.768   9.941   3.339  1.3748  1.2003  0.3599
15458SOL    HW246953   0.744   9.929   3.488 -0.9616 -1.4735 -0.1390
15459SOL     OW46954   3.501   3.724   6.384  0.4115 -0.4746 -0.2353
15459SOL    HW146955   3.535   3.725   6.294  0.6748 -1.3325 -0.1549
15459SOL    HW246956   3.574   3.756   6.437  0.2351  0.0923 -0.3270
15460SOL     OW46957   3.635   3.523   3.408 -0.6123 -0.4450 -0.6460
15460SOL    HW146958   3.583   3.476   3.474  0.0273 -1.7617 -1.0462
15460SOL    HW246959   3.710   3.558   3.457 -1.0838  0.1571 -0.3476
15461SOL     OW46960   9.705   2.839   1.921 -0.4969 -0.5337  0.2028
15461SOL    HW146961   9.752   2.773   1.971 -0.2411 -1.0781 -0.7533
15461SOL    HW246962   9.773   2.894   1.882 -0.6904 -0.2871  0.2053
15462SOL     OW46963   0.034   7.043   2.704  0.1387  0.4919 -0.5297
15462SOL    HW146964  -0.045   7.036   2.758 -0.7574 -0.1809 -1.8913
15462SOL    HW246965   0.084   6.965   2.725  0.8535  1.2862  0.9016
15463SOL     OW46966   2.766   1.457   3.870 -0.5819 -0.1810 -0.0498
15463SOL    HW146967   2.810   1.513   3.934 -1.8969  0.5839  0.2024
15463SOL    HW246968   2.693   1.509   3.837 -0.5628 -0.9624 -1.4014
15464SOL     OW46969   2.676   0.362   7.455 -0.0985  0.1477  0.5940
15464SOL    HW146970   2.603   0.362   7.394  0.8902 -0.3133 -0.6390
15464SOL    HW246971   2.696   0.455   7.468  0.6106  0.2391 -0.9758
15465SOL     OW46972   3.146   1.983   3.566 -0.1598 -0.0239 -0.1256
15465SOL    HW146973   3.113   1.933   3.641  0.5496 -2.1015 -1.1311
15465SOL    HW246974   3.119   1.932   3.490 -1.2261  2.2488 -1.3711
15466SOL     OW46975   2.276   1.382   7.936 -0.0726  0.5023  0.0444
15466SOL    HW146976   2.290   1.458   7.991 -0.5705  0.2462  0.5280
15466SOL    HW246977   2.276   1.307   7.996 -2.3581  0.3611 -0.0297
15467SOL     OW46978   4.999   3.172   9.779  0.5467 -0.1105 -0.2403
15467SOL    HW146979   4.951   3.096   9.749 -3.1762  1.2146  1.6951
15467SOL    HW246980   5.009   3.227   9.701 -0.8592 -0.5914 -0.7912
15468SOL     OW46981   7.355   2.398   7.836 -0.5973 -0.0307  0.7528
15468SOL    HW146982   7.357   2.477   7.781 -1.6347  0.3898  1.2942
15468SOL    HW246983   7.446   2.367   7.835 -0.3140  0.7524 -0.0610
15469SOL     OW46984   0.160   2.092   2.621  0.6121  0.3193  0.2954
15469SOL    HW146985   0.138   2.001   2.599  3.6330 -0.7113  0.9860
15469SOL    HW246986   0.084   2.125   2.668 -1.1937 -1.3175 -1.2988
15470SOL     OW46987   1.743   9.500   5.600 -0.8885  0.2259 -0.2131
15470SOL    HW146988   1.834   9.472   5.596 -1.5201 -2.0085 -0.6264
15470SOL    HW246989   1.736   9.570   5.535  0.1889 -0.7439 -1.4345
15471SOL     OW46990   1.964   7.359   8.371 -0.2093  0.3617  0.1329
15471SOL    HW146991   1.882   7.397   8.402  0.1382 -0.0888  1.7060
15471SOL    HW246992   1.968   7.273   8.412  0.2834 -0.2970 -1.2456
15472SOL     OW46993   4.388   5.056   4.981 -0.0019  0.0857  0.3546
15472SOL    HW146994   4.333   5.006   4.921  2.1987 -0.6071 -1.2368
15472SOL    HW246995   4.429   4.990   5.037 -0.9492  0.6100  1.7049
15473SOL     OW46996   3.859   0.943   4.969  0.0510 -0.4369  0.2594
15473SOL    HW146997   3.801   0.952   5.045 -1.9011 -2.2011 -0.9005
15473SOL    HW246998   3.827   1.008   4.906  2.3981  1.8402  1.2504
15474SOL     OW46999   2.141   8.252   6.578  0.4616  0.1321 -0.6067
15474SOL    HW147000   2.233   8.266   6.554  0.6971  0.7076  0.5547
15474SOL    HW247001   2.123   8.319   6.645 -0.4251 -0.7816  0.0969
15475SOL     OW47002   9.410   8.022   2.353  0.2074 -0.1739 -0.4589
15475SOL    HW147003   9.388   7.955   2.289  0.1756 -0.1492 -0.4743
15475SOL    HW247004   9.500   8.047   2.332  0.4070 -0.5970 -0.1069
15476SOL     OW47005   5.003   2.534   1.872  0.2059 -0.4181  0.1344
15476SOL    HW147006   5.084   2.584   1.861  1.0207 -1.6251  0.4925
15476SOL    HW247007   4.939   2.599   1.900  1.3545  0.3587  1.0702
15477SOL     OW47008   5.085   7.110   7.132  0.0681 -0.0410 -0.2170
15477SOL    HW147009   4.993   7.124   7.154 -0.7626 -2.5601 -1.6537
15477SOL    HW247010   5.133   7.171   7.188 -2.5078  2.4021 -0.4667
15478SOL     OW47011   8.268   2.438   8.206 -0.0693 -0.5479 -0.2128
15478SOL    HW147012   8.231   2.485   8.130 -0.5593  0.3405  0.5552
15478SOL    HW247013   8.329   2.501   8.245 -0.8294 -0.4885  0.9057
15479SOL     OW47014   0.572   5.019   4.857  0.1906  0.3088 -0.3997
15479SOL    HW147015   0.533   4.959   4.795  2.0809 -0.7535 -0.6256
15479SOL    HW247016   0.528   5.000   4.940  2.5410 -3.4996  0.2365
15480SOL     OW47017   3.033   0.063   3.215 -0.5096 -1.0776  0.0227
15480SOL    HW147018   3.044   0.155   3.190 -0.1113 -0.6643  1.5746
15480SOL    HW247019   2.957   0.063   3.273  0.9339 -1.2574  2.0367
15481SOL     OW47020   5.347   6.179   5.176  0.4308  0.3425 -0.3116
15481SOL    HW147021   5.360   6.100   5.124 -2.0326  0.4093 -1.1532
15481SOL    HW247022   5.255   6.202   5.163  0.8725  2.9365  0.5133
15482SOL     OW47023   1.966   9.049   4.029  0.5198  0.1150 -0.4026
15482SOL    HW147024   1.923   9.086   3.952  0.6600  0.4494 -0.3236
15482SOL    HW247025   1.896   9.036   4.093  0.4219 -0.0536 -0.5435
15483SOL     OW47026   8.468   1.596   5.097  0.0696 -0.5381 -0.0234
15483SOL    HW147027   8.389   1.542   5.103  0.2413 -0.7844  0.0323
15483SOL    HW247028   8.486   1.621   5.188  0.6794 -1.3905  0.1064
15484SOL     OW47029   7.924   8.248   0.243 -0.1668  0.4263 -0.2839
15484SOL    HW147030   8.007   8.216   0.276 -1.4061 -2.6178  0.1701
15484SOL    HW247031   7.873   8.269   0.321 -0.6204  0.0430 -0.4701
15485SOL     OW47032   0.187   7.979   0.170 -0.4493 -0.4559  0.1535
15485SOL    HW147033   0.270   7.933   0.153  0.5212  1.4385 -0.5001
15485SOL    HW247034   0.165   8.020   0.087 -1.8095 -0.5108  0.4623
15486SOL     OW47035   1.069   1.657   5.672  0.4133 -0.5123  0.0717
15486SOL    HW147036   1.099   1.736   5.716 -1.9242 -0.0348  0.9757
15486SOL    HW247037   1.029   1.605   5.742  0.3670 -1.6846 -0.8032
15487SOL     OW47038   1.207   2.324   8.823  0.2885 -0.2605  0.1838
15487SOL    HW147039   1.157   2.374   8.888 -1.2618 -1.7779  0.2534
15487SOL    HW247040   1.225   2.386   8.753 -1.8883  0.3515  0.0977
15488SOL     OW47041   2.212   8.418   1.884  0.1365  0.1752  0.0565
15488SOL    HW147042   2.167   8.468   1.815 -0.1835 -0.7160 -0.3969
15488SOL    HW247043   2.143   8.400   1.948  0.0417 -0.4279 -0.2081
15489SOL     OW47044   9.112   0.235   8.989 -0.3234  0.1184  0.3038
15489SOL    HW147045   9.187   0.293   9.000  0.0877 -0.0594 -1.2496
15489SOL    HW247046   9.045   0.289   8.947 -0.3622 -0.2211 -0.0801
15490SOL     OW47047   9.841   1.695   9.068 -0.4016 -0.0109  0.2835
15490SOL    HW147048   9.877   1.650   8.991 -0.3155 -1.3006  1.0422
15490SOL    HW247049   9.839   1.787   9.043  0.7238 -0.2523 -0.8413
15491SOL     OW47050   5.561   2.388   7.232 -0.2474  0.8346  0.2167
15491SOL    HW147051   5.648   2.388   7.272 -0.3022  1.8454  0.3678
15491SOL    HW247052   5.542   2.296   7.216  1.6329  0.6724 -1.5202
15492SOL     OW47053   9.813   7.030   1.988  0.3845 -0.0212  0.1458
15492SOL    HW147054   9.885   7.023   1.925  0.3531  0.7013  0.0195
15492SOL    HW247055   9.836   6.970   2.059  0.8205 -0.2295 -0.1703
15493SOL     OW47056   9.891   8.711   0.480  0.5697 -0.1737 -0.8274
15493SOL    HW147057   9.943   8.778   0.436 -0.6496  0.5137 -1.2728
15493SOL    HW247058   9.892   8.636   0.420 -0.0660  0.3247 -1.4787
15494SOL     OW47059   8.160   1.847   0.520 -0.5535  0.7742 -0.0239
15494SOL    HW147060   8.147   1.887   0.606 -1.6419  0.8341 -0.2048
15494SOL    HW247061   8.252   1.865   0.500  0.5042 -1.4921  2.2408
15495SOL     OW47062   4.557   4.372   6.386  0.4853 -0.1118 -0.0626
15495SOL    HW147063   4.515   4.458   6.382  2.1851  0.7448 -0.6344
15495SOL    HW247064   4.590   4.358   6.297 -1.9426 -2.5663 -0.6882
15496SOL     OW47065   8.859   9.222   0.618  0.2604  0.0409  0.5046
15496SOL    HW147066   8.785   9.235   0.678 -0.1146 -0.3466  0.1256
15496SOL    HW247067   8.826   9.163   0.551  0.8401  0.0664  0.1914
15497SOL     OW47068   0.450   1.266   8.336  0.1771  0.7129  0.5230
15497SOL    HW147069   0.430   1.356   8.362  0.6447  0.5155  1.6206
15497SOL    HW247070   0.446   1.216   8.417  1.0072 -0.0618  0.1092
15498SOL     OW47071   1.803   8.257   1.010  0.0476  0.4554 -0.1384
15498SOL    HW147072   1.795   8.248   0.915  2.6271  1.8746 -0.5948
15498SOL    HW247073   1.805   8.351   1.025  0.7982  0.2531  1.1869
15499SOL     OW47074   9.254   4.211   8.742  0.0276 -0.0582 -0.3330
15499SOL    HW147075   9.198   4.226   8.666 -0.9541  1.1638  0.5859
15499SOL    HW247076   9.216   4.135   8.786 -0.6024  0.4387 -0.0072
15500SOL     OW47077   8.071   5.130   5.679  0.8584 -0.0291 -0.3398
15500SOL    HW147078   8.094   5.100   5.591 -0.9923 -0.7841 -0.6170
15500SOL    HW247079   8.086   5.225   5.677  0.9416 -0.0506 -1.4430
15501SOL     OW47080   0.083   7.421   4.164  0.2839 -0.0836 -0.0415
15501SOL    HW147081   0.172   7.394   4.144  1.0434  0.4641  2.2520
15501SOL    HW247082   0.085   7.442   4.258 -1.3597  3.3156 -0.6177
15502SOL     OW47083   9.273   2.910   4.544  0.2886  0.3710  0.0568
15502SOL    HW147084   9.288   2.969   4.618 -0.9796  1.0618 -0.1922
15502SOL    HW247085   9.218   2.961   4.484  2.0921  0.1956 -1.8560
15503SOL     OW47086   1.305   6.087   0.314 -0.3870  0.2772  0.9504
15503SOL    HW147087   1.245   6.025   0.356 -0.0487  0.0547  1.1055
15503SOL    HW247088   1.388   6.075   0.360 -0.1185  0.3119  0.4849
15504SOL     OW47089   6.587   9.839   7.899  0.7146  0.2058 -0.0201
15504SOL    HW147090   6.621   9.822   7.810 -1.1987  0.2883 -0.8130
15504SOL    HW247091   6.561   9.753   7.931  0.1698  0.3495 -0.0736
15505SOL     OW47092   1.836   1.733   7.804 -0.2848 -0.1329 -0.3916
15505SOL    HW147093   1.843   1.678   7.882  0.1024 -0.0929 -0.3989
15505SOL    HW247094   1.798   1.815   7.835  1.0702  0.3633 -0.0131
15506SOL     OW47095   7.703   7.776   6.521 -0.4680 -0.1054 -0.0565
15506SOL    HW147096   7.619   7.791   6.478 -0.7387 -0.1378  0.4565
15506SOL    HW247097   7.683   7.779   6.615 -0.1599 -1.5304  0.0699
15507SOL     OW47098   6.437   5.580   4.945 -0.1927 -0.0895 -0.3036
15507SOL    HW147099   6.447   5.557   4.853  3.1899 -0.9775  0.1549
15507SOL    HW247100   6.504   5.646   4.961 -0.8260  0.1751  1.4956
15508SOL     OW47101   6.090   3.831   0.985 -0.4417  0.5257  0.3636
15508SOL    HW147102   6.072   3.792   0.900  0.9692 -0.0197  0.2820
15508SOL    HW247103   6.175   3.874   0.974  0.0882 -0.1166  1.6476
15509SOL     OW47104   8.104   8.891   8.298  0.1203 -0.5151 -0.0539
15509SOL    HW147105   8.068   8.806   8.323 -1.4752  0.3945  0.9311
15509SOL    HW247106   8.063   8.911   8.214 -0.0516 -0.4163  0.0529
15510SOL     OW47107   0.148   8.399   4.306  0.3459 -0.1378  0.3543
15510SOL    HW147108   0.241   8.413   4.290  0.5194 -1.8243 -0.3216
15510SOL    HW247109   0.125   8.325   4.250 -1.5802  0.6814 -0.0255
15511SOL     OW47110   2.791   2.381   6.756 -0.4857 -0.1866  0.1094
15511SOL    HW147111   2.802   2.291   6.788  0.6367 -0.9891 -2.2741
15511SOL    HW247112   2.719   2.375   6.693 -0.8090  0.7313  0.3800
15512SOL     OW47113   3.338   9.329   1.340 -0.1566  0.8840 -0.0344
15512SOL    HW147114   3.324   9.399   1.276  0.1856 -0.6318 -1.8437
15512SOL    HW247115   3.257   9.327   1.392 -1.8594  0.0470 -2.5599
15513SOL     OW47116   9.046   3.507   7.895 -0.0603 -0.1467  0.1476
15513SOL    HW147117   9.111   3.544   7.954  1.0278 -2.0768  0.2279
15513SOL    HW247118   8.985   3.461   7.953 -1.1463  1.0428  0.0128
15514SOL     OW47119   3.164   0.774   9.459  0.3869  0.3877 -0.0998
15514SOL    HW147120   3.204   0.847   9.411  1.1348  1.3865  1.9096
15514SOL    HW247121   3.233   0.707   9.461 -0.2513 -0.3762 -1.8251
15515SOL     OW47122   6.690   3.642   6.548 -0.9193  0.0861  0.2668
15515SOL    HW147123   6.652   3.620   6.463  0.2066 -0.8123 -0.0323
15515SOL    HW247124   6.716   3.557   6.585  1.4293  0.6753  0.1138
15516SOL     OW47125   3.158   5.952   1.710 -0.0363 -0.0257  0.1586
15516SOL    HW147126   3.163   5.976   1.802  0.4297 -2.4391  0.8422
15516SOL    HW247127   3.194   6.027   1.663  1.1879  0.6363  2.0492
15517SOL     OW47128   7.929   4.179   6.999  0.0187  0.5486  0.4494
15517SOL    HW147129   7.847   4.194   7.046 -0.0492 -0.7117  0.7673
15517SOL    HW247130   7.914   4.218   6.913 -1.3434 -0.5882  0.1247
15518SOL     OW47131   1.274   2.774   0.062  0.0208 -0.4005  0.5695
15518SOL    HW147132   1.209   2.722   0.109 -0.9792  0.6736  0.4055
15518SOL    HW247133   1.340   2.710   0.036 -2.1965 -2.0624 -1.4940
15519SOL     OW47134   6.974   0.976   4.447 -0.1175  0.3481  0.1436
15519SOL    HW147135   6.948   0.904   4.389  0.9575 -0.3402  0.4617
15519SOL    HW247136   7.070   0.977   4.441  0.1029 -0.2205  2.3947
15520SOL     OW47137   7.076   5.889   5.681  0.0105 -0.2972  0.0074
15520SOL    HW147138   7.080   5.923   5.592 -0.0869 -2.2207 -0.7914
15520SOL    HW247139   7.168   5.876   5.706  0.0203 -0.4700 -0.1161
15521SOL     OW47140   7.817   9.202   1.816 -0.1927 -0.5391  0.5337
15521SOL    HW147141   7.812   9.253   1.735 -1.4245 -0.8771  0.3679
15521SOL    HW247142   7.907   9.169   1.818  0.1503  0.3076 -0.1697
15522SOL     OW47143   8.288   6.032   4.699  0.2204  0.1551  0.3747
15522SOL    HW147144   8.199   6.004   4.677 -0.6679  1.1611  2.4387
15522SOL    HW247145   8.287   6.127   4.684  0.3701  0.4494  2.0914
15523SOL     OW47146   2.785   3.409   6.339  0.6526 -0.2899  0.5517
15523SOL    HW147147   2.768   3.365   6.422  0.2230  2.0577  1.8021
15523SOL    HW247148   2.876   3.387   6.319  1.2983  0.3623  2.5122
15524SOL     OW47149   3.395   1.763   1.754 -0.6299  0.0389  0.0581
15524SOL    HW147150   3.422   1.672   1.745  0.8022  0.4817 -0.3316
15524SOL    HW247151   3.400   1.800   1.666 -0.5736  0.6606  0.3102
15525SOL     OW47152   4.510   6.791   1.965  0.0593  0.4248  0.6338
15525SOL    HW147153   4.579   6.732   1.935  1.0261  1.3184  1.0375
15525SOL    HW247154   4.448   6.734   2.010  0.8619 -0.3144  0.8465
15526SOL     OW47155   6.877   7.185   7.356 -0.7825  0.1084 -0.1143
15526SOL    HW147156   6.874   7.218   7.266 -1.0480 -0.0862 -0.1775
15526SOL    HW247157   6.930   7.105   7.350 -1.8317 -0.5975 -0.3271
15527SOL     OW47158   7.068   6.968   7.576  0.3509 -0.0628 -0.5363
15527SOL    HW147159   7.164   6.977   7.576  0.1850  2.0979 -0.7456
15527SOL    HW247160   7.050   6.907   7.647  1.8741 -0.3950 -0.3989
15528SOL     OW47161   5.652   1.672   3.682 -0.6067 -0.4623  0.1148
15528SOL    HW147162   5.637   1.761   3.711 -0.3925 -0.6786  0.9095
15528SOL    HW247163   5.591   1.619   3.733  1.4367 -1.1256  2.0250
15529SOL     OW47164   2.985   0.030   6.100  0.2626 -0.3685 -0.2051
15529SOL    HW147165   3.018   0.013   6.012  0.9642  0.0785 -0.0329
15529SOL    HW247166   2.890   0.033   6.089  0.4002  1.1478 -1.2237
15530SOL     OW47167   2.417   7.808   5.176 -0.7357 -0.0010 -0.8693
15530SOL    HW147168   2.420   7.716   5.203  1.4106 -0.0065 -0.9029
15530SOL    HW247169   2.500   7.821   5.131 -0.6633  2.1477 -0.1953
15531SOL     OW47170   8.187   5.298   0.054 -0.2423 -0.0645  0.2581
15531SOL    HW147171   8.253   5.321  -0.011 -0.3120 -0.6326 -0.0188
15531SOL    HW247172   8.233   5.241   0.116  0.3080  1.8625  1.7236
15532SOL     OW47173   7.577   9.351   5.800  0.8378  0.2209  0.4524
15532SOL    HW147174   7.561   9.266   5.758  1.2034  0.3205  0.1010
15532SOL    HW247175   7.575   9.332   5.894 -1.5941  0.2827  0.4644
15533SOL     OW47176   0.942   9.210   9.598  0.2113  0.4509 -0.2516
15533SOL    HW147177   0.965   9.295   9.635  0.7107  0.3611 -0.3406
15533SOL    HW247178   1.026   9.163   9.593  0.0308  0.1741 -0.7462
15534SOL     OW47179   2.222   8.319   8.368  0.3028  0.0079 -0.4922
15534SOL    HW147180   2.180   8.253   8.312  0.6031 -0.9888  0.4265
15534SOL    HW247181   2.149   8.368   8.405 -0.3149 -2.7054  2.3307
15535SOL     OW47182   7.361   5.338   0.642 -0.2073  0.2825  0.4304
15535SOL    HW147183   7.383   5.430   0.655  0.0115  0.2245  0.4766
15535SOL    HW247184   7.358   5.301   0.730  0.3486  0.1001  0.3765
15536SOL     OW47185   8.176   4.625   5.196 -0.0556  0.3918  0.1547
15536SOL    HW147186   8.254   4.591   5.153 -0.0734 -0.8366  1.0352
15536SOL    HW247187   8.104   4.596   5.141  0.0827  1.5487 -0.6730
15537SOL     OW47188   8.385   9.179   1.002 -0.0735  0.3517  0.8023
15537SOL    HW147189   8.360   9.224   0.921  0.7190  0.4612  0.6073
15537SOL    HW247190   8.435   9.244   1.051  2.0682 -0.5906  0.0201
15538SOL     OW47191   5.274   1.756   8.137  0.1802  0.2637 -0.3524
15538SOL    HW147192   5.265   1.822   8.206 -0.5165 -1.3198  1.1654
15538SOL    HW247193   5.265   1.672   8.183  1.4029 -0.9276 -2.1353
15539SOL     OW47194   8.097   9.537   2.377 -0.0153  0.3521 -0.1338
15539SOL    HW147195   8.099   9.621   2.331  2.2693  1.6850  2.1817
15539SOL    HW247196   8.162   9.483   2.331 -1.0015  0.0068 -1.1951
15540SOL     OW47197   8.962   9.823   5.981 -0.0884  0.0113 -0.0996
15540SOL    HW147198   8.929   9.874   5.908  1.9795  1.3845 -0.1420
15540SOL    HW247199   8.887   9.815   6.040 -1.5558 -0.3921 -1.9197
15541SOL     OW47200   3.625   6.378   7.232  0.5282  0.0719 -0.1050
15541SOL    HW147201   3.568   6.334   7.296  1.5922  0.8294  1.4209
15541SOL    HW247202   3.567   6.398   7.158 -0.6487 -1.2082  0.4283
15542SOL     OW47203   8.436   0.143   5.357 -0.2420 -0.4186  0.2811
15542SOL    HW147204   8.524   0.165   5.326  0.3876 -2.1582  0.6970
15542SOL    HW247205   8.440   0.159   5.451 -0.0612 -1.3292  0.4419
15543SOL     OW47206   3.536   9.556   7.692 -0.3877  0.1179 -0.2827
15543SOL    HW147207   3.460   9.574   7.637 -0.1986 -0.9038 -0.9093
15543SOL    HW247208   3.540   9.460   7.697  0.1922  0.1793  0.6829
15544SOL     OW47209   8.835   5.845   3.334 -0.5035  0.2161  0.6288
15544SOL    HW147210   8.838   5.923   3.278 -2.1989  0.9548  1.4833
15544SOL    HW247211   8.924   5.836   3.367  0.1706  0.6572 -0.9894
15545SOL     OW47212   0.656   7.819   7.206 -0.1677  0.1585 -0.1616
15545SOL    HW147213   0.673   7.912   7.222 -0.4306  0.4018 -1.2429
15545SOL    HW247214   0.561   7.810   7.215 -0.1644  0.0349 -0.2485
15546SOL     OW47215   0.466   6.936   1.263  0.1521  0.2375  0.0780
15546SOL    HW147216   0.518   6.884   1.201 -0.9656  0.0907 -0.7690
15546SOL    HW247217   0.426   7.005   1.209 -0.1158  0.6607  0.8020
15547SOL     OW47218   6.887   2.664   0.351  0.8269  0.0344  0.1773
15547SOL    HW147219   6.900   2.758   0.360  0.0076  0.4096 -2.0401
15547SOL    HW247220   6.974   2.626   0.368  1.7841  1.3988 -1.4133
15548SOL     OW47221   7.070   6.688   0.794 -0.1832  0.0705 -0.5540
15548SOL    HW147222   7.015   6.761   0.765 -0.2033  0.2942  0.0347
15548SOL    HW247223   7.034   6.664   0.879 -1.0295 -1.5045 -1.3189
15549SOL     OW47224   1.130   1.805   8.249 -0.0754  0.6083 -0.1822
15549SOL    HW147225   1.090   1.719   8.246 -1.6763  1.2541  1.2184
15549SOL    HW247226   1.057   1.866   8.257  1.0709  2.0024  0.2393
15550SOL     OW47227   3.529   4.292   0.663 -0.1372 -0.0694 -0.1120
15550SOL    HW147228   3.522   4.220   0.725 -1.3581  0.2227  0.1178
15550SOL    HW247229   3.610   4.337   0.687 -0.4445 -0.1306  1.0903
15551SOL     OW47230   9.589   6.350   0.236 -0.2234 -0.2628  0.0577
15551SOL    HW147231   9.555   6.322   0.321  1.5947 -3.1064 -0.0505
15551SOL    HW247232   9.631   6.434   0.254  1.0325 -1.2732  2.2769
15552SOL     OW47233   1.980   8.018   7.612  0.0754 -0.6302  0.1096
15552SOL    HW147234   1.969   8.062   7.697  1.2160 -1.2284  0.5870
15552SOL    HW247235   1.973   8.089   7.548  2.1969  0.3714  0.8870
15553SOL     OW47236   8.368   0.430   9.535 -0.4225  0.1757 -1.0236
15553SOL    HW147237   8.463   0.430   9.532 -0.4423 -0.8554 -2.5516
15553SOL    HW247238   8.341   0.421   9.444 -1.9571 -0.7973 -0.5098
15554SOL     OW47239   9.633   1.934   2.047  0.1287 -1.0108 -0.4210
15554SOL    HW147240   9.587   1.983   2.115  1.7477 -0.1446  0.1012
15554SOL    HW247241   9.663   1.854   2.091  1.2522 -0.4094 -0.0670
15555SOL     OW47242   3.748   4.145   5.117  0.0056  0.1883 -0.2734
15555SOL    HW147243   3.758   4.120   5.025  2.4362 -0.6167  0.1387
15555SOL    HW247244   3.674   4.093   5.149  0.0165 -0.5596 -1.4276
15556SOL     OW47245   8.286   0.711   0.146  0.5535 -0.2399  0.5553
15556SOL    HW147246   8.319   0.664   0.069  0.7038  1.6768 -0.6080
15556SOL    HW247247   8.201   0.671   0.164 -0.2207  0.2849 -1.6225
15557SOL     OW47248   7.385   9.195   8.067  0.2267 -0.0877  0.4374
15557SOL    HW147249   7.403   9.263   8.001 -0.3917  0.4197  0.7768
15557SOL    HW247250   7.291   9.180   8.060 -0.2289  1.3694  2.5086
15558SOL     OW47251   6.439   3.147   5.777 -0.0146 -0.4965  0.2131
15558SOL    HW147252   6.429   3.172   5.869  2.1579  2.3179 -0.1497
15558SOL    HW247253   6.420   3.228   5.729  0.6020 -1.4421 -1.6961
15559SOL     OW47254   4.607   9.706   4.766 -0.2523 -0.3449  0.4155
15559SOL    HW147255   4.631   9.701   4.859  0.8367  0.9346  0.2419
15559SOL    HW247256   4.684   9.672   4.720 -0.2322  0.3207 -0.0553
15560SOL     OW47257   7.679   8.717   2.733 -0.2376 -0.4602  0.6950
15560SOL    HW147258   7.683   8.632   2.690 -0.5462 -1.2463  2.1383
15560SOL    HW247259   7.716   8.701   2.820 -1.0791  0.6713  1.2848
15561SOL     OW47260   4.032   0.766   5.230  0.2580 -0.2297 -0.2681
15561SOL    HW147261   4.067   0.740   5.316 -0.3056  0.4435  0.1751
15561SOL    HW247262   3.955   0.712   5.219  0.2227 -0.1802 -0.2635
15562SOL     OW47263   6.215   8.949   3.345  0.0245 -0.5806 -0.1972
15562SOL    HW147264   6.180   8.934   3.257  1.2318  1.9295 -1.2176
15562SOL    HW247265   6.303   8.912   3.343  0.7811  1.1164 -0.7712
15563SOL     OW47266   4.637   8.681   8.627 -0.1246  0.1028 -0.0813
15563SOL    HW147267   4.547   8.652   8.641 -1.3798  2.3084 -2.6957
15563SOL    HW247268   4.678   8.611   8.576 -0.3475 -0.8734  1.0475
15564SOL     OW47269   5.764   5.969   3.628 -0.0861 -0.1431  0.7641
15564SOL    HW147270   5.818   5.895   3.656  0.5084  0.6247  1.7190
15564SOL    HW247271   5.679   5.953   3.669  0.2301  0.0189  1.5009
15565SOL     OW47272   1.653   3.215   7.861  0.0979 -0.2333  0.1609
15565SOL    HW147273   1.736   3.169   7.860  1.3214  1.7893  1.7560
15565SOL    HW247274   1.667   3.291   7.805 -0.5901  0.2590  0.6342
15566SOL     OW47275   1.145   2.833   6.734  0.5280  1.3151 -0.4473
15566SOL    HW147276   1.152   2.738   6.742  1.1828  1.3925 -0.0587
15566SOL    HW247277   1.060   2.847   6.691  1.4374  0.4520 -2.6970
15567SOL     OW47278   1.232   1.453   3.063 -0.3982  0.3981 -0.1503
15567SOL    HW147279   1.216   1.386   3.129 -1.0976  0.7207  0.0135
15567SOL    HW247280   1.278   1.523   3.111  0.5136 -0.0356 -0.3657
15568SOL     OW47281   9.949   1.794   8.067 -0.1141 -0.2806  0.2922
15568SOL    HW147282   9.858   1.776   8.091  0.1927 -0.9387  1.0200
15568SOL    HW247283  10.000   1.763   8.142  0.5806  2.1524  0.9035
15569SOL     OW47284   7.796   8.539   7.121  0.1045  0.5618 -0.0757
15569SOL    HW147285   7.861   8.609   7.110 -0.6549  1.1707 -0.8213
15569SOL    HW247286   7.801   8.517   7.214  0.4188  1.5469  0.1564
15570SOL     OW47287   6.053   9.628   2.860 -0.0617  0.1946 -0.0038
15570SOL    HW147288   6.101   9.687   2.918  1.4778 -1.3552  0.3935
15570SOL    HW247289   6.119   9.597   2.797 -1.3216  0.5441 -1.5389
15571SOL     OW47290   6.371   6.919   5.800  0.4696  0.2009 -0.0744
15571SOL    HW147291   6.414   6.858   5.739 -2.5047 -2.1418 -0.0815
15571SOL    HW247292   6.354   6.866   5.878  0.1127  1.8304  0.9927
15572SOL     OW47293   7.865   3.025   6.157 -0.1723 -0.0790  0.3761
15572SOL    HW147294   7.905   2.945   6.193  0.4506  0.3927  0.7685
15572SOL    HW247295   7.893   3.094   6.217  0.2893  0.6220 -0.6217
15573SOL     OW47296   2.632   4.470   5.999 -0.4390 -0.1199 -0.3688
15573SOL    HW147297   2.602   4.520   5.923 -0.0327  0.6309 -0.0465
15573SOL    HW247298   2.659   4.537   6.062 -0.2829 -0.7458  0.2330
15574SOL     OW47299   3.545   4.608   4.119  0.3704 -0.2401 -0.0115
15574SOL    HW147300   3.469   4.624   4.175 -0.3999  0.1788 -1.1397
15574SOL    HW247301   3.577   4.522   4.146 -2.5133 -1.9998 -1.6702
15575SOL     OW47302   7.971   5.671   9.173  0.5870  0.8843  0.9167
15575SOL    HW147303   8.038   5.677   9.104  0.5152  2.6481  0.9434
15575SOL    HW247304   8.021   5.661   9.254  0.7139 -0.0866  0.7296
15576SOL     OW47305   3.614   5.591   4.629 -0.2362  0.5434 -0.1765
15576SOL    HW147306   3.567   5.674   4.621  0.3486  1.0026  0.8685
15576SOL    HW247307   3.683   5.596   4.563 -0.8850  0.3908 -0.8807
15577SOL     OW47308   4.110   5.995   0.854 -0.2445 -0.2014  0.5850
15577SOL    HW147309   4.122   5.914   0.903  0.4971 -1.2086 -1.1841
15577SOL    HW247310   4.179   5.994   0.787 -1.2937  1.0410 -0.5760
15578SOL     OW47311   4.797   7.768   0.144 -0.1769  0.4226 -0.0007
15578SOL    HW147312   4.702   7.774   0.152 -0.1447  0.1603  0.6838
15578SOL    HW247313   4.829   7.786   0.233  0.2786 -2.0018  0.3797
15579SOL     OW47314   7.432   0.451   0.035 -0.3621 -0.3931  0.1975
15579SOL    HW147315   7.424   0.546   0.024 -0.7040 -0.3560  0.7249
15579SOL    HW247316   7.365   0.428   0.099  0.9151 -0.7103  1.4885
15580SOL     OW47317   4.588   3.183   9.933 -0.2124  0.8142 -0.5356
15580SOL    HW147318   4.660   3.246   9.924  1.5664 -1.0382 -0.1624
15580SOL    HW247319   4.589   3.133   9.851  0.9703 -1.1510  0.5753
15581SOL     OW47320   1.190   6.671   8.504  0.0111  0.3378  0.5818
15581SOL    HW147321   1.178   6.693   8.411  0.1084  0.8154  0.6757
15581SOL    HW247322   1.238   6.589   8.504  0.0788  0.3763  0.2070
15582SOL     OW47323   2.528   5.656   0.329  0.4849 -0.5406 -0.5244
15582SOL    HW147324   2.620   5.666   0.351  0.5362 -0.7371 -0.6489
15582SOL    HW247325   2.494   5.745   0.323  0.6780 -0.4684 -0.5251
15583SOL     OW47326   2.625   9.594   0.085 -0.1742  0.0222  0.3145
15583SOL    HW147327   2.633   9.581   0.180  1.0935  4.2418  0.9785
15583SOL    HW247328   2.531   9.601   0.069 -0.3385  0.9310  1.5673
15584SOL     OW47329   3.846   6.128   7.683 -0.0682  0.0028 -0.5204
15584SOL    HW147330   3.893   6.058   7.637 -0.1279  0.0714 -0.6865
15584SOL    HW247331   3.767   6.143   7.630 -1.2746 -1.4435  0.7458
15585SOL     OW47332   4.137   3.955   2.149  0.0705 -0.2258 -0.6553
15585SOL    HW147333   4.223   3.922   2.124 -0.0635 -0.5154 -0.7291
15585SOL    HW247334   4.080   3.879   2.146 -0.3063  0.0715 -1.1328
15586SOL     OW47335   9.363   0.990   2.930  0.1948 -0.0423 -0.2679
15586SOL    HW147336   9.444   1.036   2.952  0.1208  0.1998 -0.4952
15586SOL    HW247337   9.307   1.057   2.892 -0.7102  0.1569  1.3035
15587SOL     OW47338   5.493   6.689   8.192  0.5595  0.1205  0.1305
15587SOL    HW147339   5.495   6.594   8.201  1.7842  0.0549 -0.6587
15587SOL    HW247340   5.411   6.715   8.234  0.2333 -1.2718  0.4059
15588SOL     OW47341   5.978   2.827   6.177 -0.1754 -0.7573 -0.2422
15588SOL    HW147342   5.946   2.818   6.087  1.8283 -1.3902 -0.9343
15588SOL    HW247343   5.900   2.851   6.227 -0.9581  2.1544 -2.5325
15589SOL     OW47344   4.702   0.878   2.999  0.4370  0.0661 -0.1958
15589SOL    HW147345   4.635   0.843   3.058 -0.0819 -1.2731 -1.5021
15589SOL    HW247346   4.742   0.951   3.047 -0.2610 -0.6881  1.6000
15590SOL     OW47347   0.287   5.122   7.524 -0.3706 -0.3056 -0.0390
15590SOL    HW147348   0.198   5.098   7.552  0.2073 -0.6181  1.6204
15590SOL    HW247349   0.294   5.214   7.545  0.2086 -0.6371  1.2716
15591SOL     OW47350   4.732   9.123   3.406 -0.2332  0.2658 -0.4815
15591SOL    HW147351   4.719   9.180   3.330  2.7186  2.1377  0.2310
15591SOL    HW247352   4.757   9.039   3.368 -1.8112  0.2046 -1.5337
15592SOL     OW47353   1.762   4.006   7.220  0.2092  0.1368  0.3351
15592SOL    HW147354   1.850   4.005   7.258 -0.6734  0.1461  2.4923
15592SOL    HW247355   1.764   4.081   7.160  1.4070  0.7291  1.0566
15593SOL     OW47356   2.670   4.891   6.154 -0.1246  0.3300 -0.1131
15593SOL    HW147357   2.628   4.900   6.240 -1.3289 -2.6171 -0.2771
15593SOL    HW247358   2.705   4.802   6.153  2.3568  1.2020 -1.7001
15594SOL     OW47359   8.221   5.174   0.803 -0.1348  0.0169 -0.0322
15594SOL    HW147360   8.136   5.170   0.759 -0.8127 -0.6300  1.2732
15594SOL    HW247361   8.199   5.185   0.896  1.1048 -2.5815  0.6610
15595SOL     OW47362   6.637   0.752   1.037  0.4672  0.3091  0.3002
15595SOL    HW147363   6.730   0.763   1.052  0.9652 -3.1210  0.4361
15595SOL    HW247364   6.605   0.708   1.116 -0.6186 -1.2521 -0.9515
15596SOL     OW47365   0.614   7.676   8.436  0.2818 -0.3128 -0.0475
15596SOL    HW147366   0.613   7.648   8.528  2.6663  0.8150  0.3717
15596SOL    HW247367   0.644   7.599   8.388 -2.8498 -1.5736 -0.2490
15597SOL     OW47368   4.560   5.880   9.045 -0.1858  0.1319  0.3088
15597SOL    HW147369   4.537   5.905   9.134  1.6201 -0.0017  0.8470
15597SOL    HW247370   4.539   5.787   9.040 -1.4562  0.4158  0.1761
15598SOL     OW47371   0.765   1.510   0.077 -0.2508  0.8283 -0.1807
15598SOL    HW147372   0.704   1.437   0.089  0.2234  0.3982 -0.3480
15598SOL    HW247373   0.850   1.468   0.062  0.1148  1.4235  0.1962
15599SOL     OW47374   5.619   6.270   7.507 -0.3534  0.1471  0.0249
15599SOL    HW147375   5.557   6.212   7.551  0.1377 -1.1452 -0.9309
15599SOL    HW247376   5.573   6.298   7.427 -1.7039  3.3945  1.7167
15600SOL     OW47377   9.604   9.419   9.638  0.0760  0.1267 -0.4404
15600SOL    HW147378   9.657   9.433   9.717  0.9081 -0.5863 -0.8567
15600SOL    HW247379   9.525   9.377   9.670 -0.7438  2.1160  0.3247
15601SOL     OW47380   2.765   6.762   3.092 -0.5352 -0.2968  0.7122
15601SOL    HW147381   2.705   6.761   3.017 -0.2868 -1.8962  0.4961
15601SOL    HW247382   2.815   6.843   3.081 -0.5004 -0.4879 -0.8867
15602SOL     OW47383   4.295   7.941   4.682 -0.6408 -0.2023 -0.0611
15602SOL    HW147384   4.341   7.961   4.764 -0.3583 -0.8588 -0.0602
15602SOL    HW247385   4.228   7.878   4.707 -1.4588  0.6267 -0.0905
15603SOL     OW47386   0.180   1.194   9.535  0.5431  0.0119 -0.7173
15603SOL    HW147387   0.116   1.124   9.549  0.7866 -0.0255  0.2971
15603SOL    HW247388   0.154   1.263   9.595  0.8945  0.3946 -0.9963
15604SOL     OW47389   7.109   1.097   1.802 -0.1696  0.3300 -0.1226
15604SOL    HW147390   7.186   1.045   1.781  1.0855  1.7323  0.7846
15604SOL    HW247391   7.036   1.037   1.792  1.0337 -1.0465 -1.0090
15605SOL     OW47392   9.390   0.824   2.678 -0.5347  0.1699 -0.0274
15605SOL    HW147393   9.410   0.882   2.751 -0.2341  0.2194 -0.1456
15605SOL    HW247394   9.368   0.884   2.606 -1.3123  0.1103  0.1588
15606SOL     OW47395   4.796   2.005   7.506 -0.3089  0.0301  0.6856
15606SOL    HW147396   4.791   1.926   7.560  1.2698 -0.3739  0.2762
15606SOL    HW247397   4.882   2.041   7.523 -0.1011  0.3723 -0.8849
15607SOL     OW47398   5.523   9.372   4.506  0.0226 -0.0346  0.3160
15607SOL    HW147399   5.533   9.435   4.435  1.1647 -1.0513 -0.4767
15607SOL    HW247400   5.589   9.398   4.571  0.7587 -0.6029 -0.1834
15608SOL     OW47401   8.845   6.674   7.112 -0.3940 -0.3124  0.2462
15608SOL    HW147402   8.771   6.661   7.052 -0.0173  0.9342 -0.5423
15608SOL    HW247403   8.900   6.597   7.099 -0.4910 -0.2249 -0.7823
15609SOL     OW47404   3.726   9.506   9.841  0.1357 -0.5092 -0.1319
15609SOL    HW147405   3.689   9.439   9.784 -0.5733  0.3614 -0.7125
15609SOL    HW247406   3.802   9.464   9.880  0.2614 -1.3376 -1.2199
15610SOL     OW47407   0.525   3.128   2.199  0.4777  0.5382  0.4378
15610SOL    HW147408   0.565   3.170   2.275  2.7434 -0.0586 -0.3402
15610SOL    HW247409   0.531   3.194   2.129  0.1822  0.4035  0.2803
15611SOL     OW47410   9.899   1.405   6.047 -0.2589  0.7649 -0.3225
15611SOL    HW147411   9.954   1.446   6.113  1.5520  0.6584 -1.6937
15611SOL    HW247412   9.922   1.449   5.965 -1.5540  0.0793 -1.0910
15612SOL     OW47413   5.599   4.658   9.758 -0.0325  0.0757  0.0224
15612SOL    HW147414   5.593   4.723   9.829 -0.9230 -0.8299  0.8123
15612SOL    HW247415   5.600   4.710   9.678 -0.2850  1.0784  0.6507
15613SOL     OW47416   0.942   2.196   7.494  0.0109  0.3841 -0.2783
15613SOL    HW147417   1.000   2.121   7.479  0.7647  0.7962  0.5543
15613SOL    HW247418   0.856   2.157   7.508  0.1650 -0.2569 -1.0376
15614SOL     OW47419   2.001   6.569   1.633  0.4542 -0.3913  0.0271
15614SOL    HW147420   2.004   6.480   1.598  1.1014 -0.2520 -0.2818
15614SOL    HW247421   1.921   6.606   1.597  1.8946  0.3057 -2.7089
15615SOL     OW47422   6.849   1.490   7.041 -0.2897 -0.5969  0.1944
15615SOL    HW147423   6.910   1.557   7.074 -1.4985 -0.5570  2.6218
15615SOL    HW247424   6.879   1.409   7.083 -1.1027 -0.8187  0.3589
15616SOL     OW47425   8.715   4.241   9.835 -0.3786 -0.3609  0.2335
15616SOL    HW147426   8.666   4.160   9.823  0.1238 -0.3874 -2.0715
15616SOL    HW247427   8.704   4.289   9.752 -0.9219  2.0974  1.6209
15617SOL     OW47428   2.712   5.175   1.374  0.1317 -0.5274 -0.6192
15617SOL    HW147429   2.802   5.197   1.352 -0.2525  1.0093 -0.7457
15617SOL    HW247430   2.718   5.090   1.418  1.4650 -1.2149 -2.0124
15618SOL     OW47431   0.231   3.432   1.121  0.1501 -0.3381  0.5669
15618SOL    HW147432   0.305   3.412   1.062  0.2259  0.8286  0.2488
15618SOL    HW247433   0.156   3.389   1.080  0.6990 -1.8289  1.0720
15619SOL     OW47434   6.931   3.929   2.126  0.1020  0.1597 -0.2093
15619SOL    HW147435   6.911   3.843   2.163  0.6008  0.1791  0.1114
15619SOL    HW247436   6.885   3.931   2.042  0.5190 -0.6209 -0.4571
15620SOL     OW47437   0.461   4.704   9.308  0.1039  0.4277  0.3622
15620SOL    HW147438   0.444   4.797   9.293 -1.3153 -0.0534 -1.2782
15620SOL    HW247439   0.502   4.674   9.226 -0.6748 -0.6568  0.3545
15621SOL     OW47440   0.135   2.240   3.038  0.1112  0.3374  0.5430
15621SOL    HW147441   0.075   2.304   3.076  0.3914  1.0378 -0.1748
15621SOL    HW247442   0.204   2.230   3.104  0.1559  0.9072  0.5910
15622SOL     OW47443   3.521   4.431   4.919  0.5312  0.3933  0.1610
15622SOL    HW147444   3.458   4.497   4.889  2.4221  2.9664  1.5041
15622SOL    HW247445   3.577   4.416   4.843  0.2391  0.5034 -0.0793
15623SOL     OW47446   5.061   4.398   6.568  0.0286 -0.3038  0.3571
15623SOL    HW147447   5.086   4.366   6.655 -1.7758 -2.2881  0.2014
15623SOL    HW247448   5.144   4.404   6.520  0.7756 -1.8647  1.3670
15624SOL     OW47449   5.306   0.307   0.026 -0.0450 -0.0164  0.5247
15624SOL    HW147450   5.324   0.286   0.118 -1.4261 -1.9324  0.4139
15624SOL    HW247451   5.364   0.250  -0.023 -1.3767 -1.1508  0.2205
15625SOL     OW47452   9.370   6.264   7.790  0.3733  0.1298 -0.8559
15625SOL    HW147453   9.330   6.239   7.707  1.1218 -0.7332 -0.9833
15625SOL    HW247454   9.406   6.182   7.824 -0.0533  0.4432  0.3953
15626SOL     OW47455   4.110   5.284   2.280  0.4734  0.2308  0.8739
15626SOL    HW147456   4.181   5.263   2.220 -0.4153  1.1894 -0.5549
15626SOL    HW247457   4.123   5.224   2.354  1.0398 -1.6884 -0.6867
15627SOL     OW47458   2.393   0.626   3.652 -0.1675 -0.0676  0.3366
15627SOL    HW147459   2.452   0.606   3.579 -0.8424  2.0645 -0.8829
15627SOL    HW247460   2.435   0.698   3.697 -1.3945  0.9060 -0.0387
15628SOL     OW47461   8.726   8.272   2.858 -0.3009 -0.3948 -0.7978
15628SOL    HW147462   8.650   8.242   2.809  0.1982 -2.3821 -0.4585
15628SOL    HW247463   8.789   8.200   2.849  2.0945  1.7147 -2.2133
15629SOL     OW47464   0.236   9.792   2.135  0.1562  0.6683  0.0910
15629SOL    HW147465   0.168   9.827   2.193  0.2448  1.1849 -0.1061
15629SOL    HW247466   0.236   9.698   2.152  0.3046  0.8278  1.0799
15630SOL     OW47467   9.809   9.482   0.856  0.1787 -0.5988 -0.2105
15630SOL    HW147468   9.828   9.416   0.790  0.3486 -2.3121  1.4901
15630SOL    HW247469   9.890   9.491   0.906  0.8727  2.4716 -1.5984
15631SOL     OW47470   0.303   8.311   8.860  0.2858  0.4021 -0.2764
15631SOL    HW147471   0.263   8.300   8.773  0.2605  1.6386 -0.4414
15631SOL    HW247472   0.376   8.372   8.845  0.2941  0.6132  0.5648
15632SOL     OW47473   4.929   0.979   6.253  0.0292 -0.4117 -0.0179
15632SOL    HW147474   4.890   0.932   6.327  0.3591 -0.2481  0.2628
15632SOL    HW247475   4.861   0.980   6.186 -1.0627  1.3119  1.0544
15633SOL     OW47476   4.195   4.986   8.372  0.3085  0.1152  0.5986
15633SOL    HW147477   4.265   5.049   8.390  0.4845 -0.5457  2.3111
15633SOL    HW247478   4.214   4.954   8.284  1.7202  0.5031  0.7442
15634SOL     OW47479   5.875   2.506   8.903 -0.9218 -0.0628  0.1328
15634SOL    HW147480   5.861   2.429   8.957  0.2059  0.3665  1.1021
15634SOL    HW247481   5.882   2.578   8.966 -0.3622  0.5718 -0.6325
15635SOL     OW47482   7.762   4.939   4.618  0.4877 -0.2779 -0.0023
15635SOL    HW147483   7.754   4.885   4.539  0.2350  0.9907 -0.8752
15635SOL    HW247484   7.697   4.903   4.678 -0.5330 -0.2081 -1.0277
15636SOL     OW47485   4.120   8.676   3.151  0.0959  0.3303 -0.3080
15636SOL    HW147486   4.178   8.619   3.200 -0.5443  0.9072  1.1568
15636SOL    HW247487   4.155   8.764   3.166 -1.2144  0.6942  0.6985
15637SOL     OW47488   3.453   7.894   5.977  0.3456 -0.4013 -0.3799
15637SOL    HW147489   3.405   7.836   6.037  0.3638 -0.3437 -0.3097
15637SOL    HW247490   3.539   7.854   5.969 -0.4460 -1.9143 -2.4520
15638SOL     OW47491   1.133   1.537   6.957  0.0641  0.2988 -0.6098
15638SOL    HW147492   1.162   1.624   6.927  0.5793  0.0445 -0.8725
15638SOL    HW247493   1.172   1.476   6.894 -0.1309 -0.1395 -0.3114
15639SOL     OW47494   0.931   8.592   8.615 -0.0477  0.0331  0.0446
15639SOL    HW147495   0.956   8.657   8.681  0.0994  0.3326 -0.3023
15639SOL    HW247496   0.914   8.644   8.536 -1.7717 -0.1580  0.2618
15640SOL     OW47497   0.637   4.573   4.957 -0.3916  0.1245 -0.3161
15640SOL    HW147498   0.711   4.598   5.013 -0.9174 -0.1785  0.5339
15640SOL    HW247499   0.651   4.621   4.875 -0.1909  1.4405  0.4700
15641SOL     OW47500   2.963   8.896   3.347  0.1859 -0.6667 -0.1034
15641SOL    HW147501   2.950   8.899   3.441  1.2457  0.6602  0.0236
15641SOL    HW247502   3.019   8.820   3.332  1.1991 -0.0512  0.4991
15642SOL     OW47503   9.168   9.524   0.570  0.4229 -0.7878 -0.2869
15642SOL    HW147504   9.116   9.528   0.490  0.0562 -0.9870 -0.0652
15642SOL    HW247505   9.116   9.469   0.629  0.2163  0.1534  0.4343
15643SOL     OW47506   5.968   9.704   6.979  0.3922  0.7285  0.0217
15643SOL    HW147507   5.980   9.684   7.072  0.5860  0.4936 -0.0534
15643SOL    HW247508   6.055   9.694   6.941  0.1443 -0.0737 -0.3589
15644SOL     OW47509   8.247   5.629   4.961 -0.3145  0.2195  0.2182
15644SOL    HW147510   8.264   5.602   5.051  2.2501 -3.3486 -1.0796
15644SOL    HW247511   8.238   5.546   4.913 -2.4901  1.9680 -2.7285
15645SOL     OW47512   6.742   1.609   7.365 -0.4558  0.0409  0.1853
15645SOL    HW147513   6.727   1.691   7.317  1.4120 -0.5539 -1.5139
15645SOL    HW247514   6.654   1.572   7.376 -1.2386  1.7696  0.1230
15646SOL     OW47515   9.528   5.395   7.002  0.1995  0.3150  0.1271
15646SOL    HW147516   9.598   5.398   7.068  0.8363 -2.7716 -0.2564
15646SOL    HW247517   9.572   5.411   6.919  0.4032 -1.0435 -0.0509
15647SOL     OW47518   5.511   9.490   6.491  0.3810  0.4172  0.2334
15647SOL    HW147519   5.427   9.533   6.478 -0.4029 -1.0566  0.2006
15647SOL    HW247520   5.547   9.480   6.403 -0.3376 -0.6919  0.0464
15648SOL     OW47521   6.318   2.039   6.845  0.1429 -0.2461 -0.3451
15648SOL    HW147522   6.371   2.117   6.829 -1.0935  0.8062  0.4635
15648SOL    HW247523   6.315   2.031   6.941 -0.1547 -0.9996 -0.4108
15649SOL     OW47524   2.569   5.552   4.390 -0.4451 -0.1735 -0.3405
15649SOL    HW147525   2.561   5.504   4.472  1.5993 -1.0008 -0.5533
15649SOL    HW247526   2.547   5.487   4.322 -0.7089  0.0850 -0.5037
15650SOL     OW47527   4.495   2.801   6.727 -0.1103 -0.3669 -0.4701
15650SOL    HW147528   4.459   2.718   6.697 -1.7326  0.6675 -1.6037
15650SOL    HW247529   4.577   2.811   6.679  0.1268 -1.3503 -0.2708
15651SOL     OW47530   9.148   5.847   7.440  0.2312 -0.0119  0.1678
15651SOL    HW147531   9.095   5.901   7.381  1.1762  0.8734  0.1139
15651SOL    HW247532   9.086   5.816   7.506 -0.6767 -0.3218 -0.7926
15652SOL     OW47533   1.606   7.461   7.023  0.3903  0.2542  0.1174
15652SOL    HW147534   1.547   7.397   6.982 -1.3625  1.9396 -0.1017
15652SOL    HW247535   1.650   7.503   6.950 -0.0096  0.7289  0.1475
15653SOL     OW47536   8.532   3.493   4.811  0.1331 -0.5497  0.2405
15653SOL    HW147537   8.550   3.399   4.802 -1.0425 -0.7231 -0.5702
15653SOL    HW247538   8.438   3.498   4.830  0.2386  0.4541  0.5584
15654SOL     OW47539   2.002   0.357   6.103 -0.1350 -0.5691 -0.1433
15654SOL    HW147540   1.976   0.270   6.075 -1.5361  0.2170 -1.4137
15654SOL    HW247541   2.009   0.350   6.199 -0.1554 -2.0752 -0.2307
15655SOL     OW47542   8.527   0.961   4.756  0.1000 -0.4169 -0.5142
15655SOL    HW147543   8.533   1.038   4.700  0.1517 -0.7923 -1.0348
15655SOL    HW247544   8.602   0.907   4.730 -1.2481 -1.7551 -1.8850
15656SOL     OW47545   6.039   7.207   2.869 -0.7197  0.2763 -0.4574
15656SOL    HW147546   5.997   7.177   2.950 -0.5811 -2.9777 -1.4378
15656SOL    HW247547   6.131   7.219   2.893 -0.6328 -0.9048 -0.1470
15657SOL     OW47548   8.182   3.916   1.638  0.1504  0.0004 -0.6395
15657SOL    HW147549   8.230   3.865   1.703  1.1469 -0.4486 -1.7010
15657SOL    HW247550   8.214   4.005   1.649 -3.2877  1.0979  2.8580
15658SOL     OW47551   4.404   6.951   8.983  0.5357  0.1769 -1.4340
15658SOL    HW147552   4.485   6.906   8.961 -0.5658 -2.6668 -0.1250
15658SOL    HW247553   4.366   6.899   9.054 -2.4300  1.4020 -1.9655
15659SOL     OW47554   4.114   0.041   2.578  0.4644 -0.5385 -0.9151
15659SOL    HW147555   4.100   0.081   2.492  0.3848  0.5151 -0.4349
15659SOL    HW247556   4.043  -0.023   2.587 -1.8537  1.9373 -0.1599
15660SOL     OW47557   6.261   2.033   5.872  0.1715  0.0275  0.0301
15660SOL    HW147558   6.237   1.961   5.813 -1.8936  0.2126  0.5810
15660SOL    HW247559   6.244   2.000   5.960 -3.6873  2.0404  0.2190
15661SOL     OW47560   3.896   1.940   4.338  0.3592 -0.0482  0.2515
15661SOL    HW147561   3.804   1.953   4.360  0.6790 -0.4823  1.9563
15661SOL    HW247562   3.927   2.027   4.312 -0.8558 -0.1665 -1.8086
15662SOL     OW47563   0.012   1.396   3.967  0.2236 -0.2732 -0.3088
15662SOL    HW147564  -0.059   1.340   3.937  0.2173  0.2818 -1.3925
15662SOL    HW247565   0.092   1.354   3.936  0.2801 -0.1897 -0.2797
15663SOL     OW47566   0.179   3.863   5.136  0.1077 -0.1841 -0.0621
15663SOL    HW147567   0.203   3.796   5.072 -1.2653 -0.1057 -0.6976
15663SOL    HW247568   0.084   3.851   5.148  0.3986 -0.5983  2.4082
15664SOL     OW47569   6.388   2.983   8.214 -0.2944  0.2363  0.1363
15664SOL    HW147570   6.411   2.947   8.128 -1.7971 -1.5748  0.4157
15664SOL    HW247571   6.315   3.042   8.197 -1.2615 -0.8968  0.2465
15665SOL     OW47572   4.784   6.239   1.411 -0.3418 -0.2461  0.4223
15665SOL    HW147573   4.829   6.186   1.477 -2.4328 -2.3948  0.2682
15665SOL    HW247574   4.757   6.318   1.458 -2.2423 -1.9415  2.4285
15666SOL     OW47575   5.290   6.744   4.134  0.2625 -0.5969  0.5391
15666SOL    HW147576   5.239   6.766   4.056  1.5562 -1.6508 -0.6610
15666SOL    HW247577   5.272   6.652   4.149  1.0685 -0.7398  0.6660
15667SOL     OW47578   6.381   4.166   2.398 -0.1586 -0.5650 -0.0203
15667SOL    HW147579   6.469   4.133   2.384 -0.5863 -2.3706  1.2328
15667SOL    HW247580   6.372   4.239   2.337  2.0843 -0.5292 -0.3603
15668SOL     OW47581   0.628   3.412   3.002  0.2280 -0.3121  0.6063
15668SOL    HW147582   0.618   3.339   3.063  0.7370 -3.6237 -2.9038
15668SOL    HW247583   0.559   3.397   2.937 -0.6733  3.3749  0.4967
15669SOL     OW47584   7.282   0.431   9.590 -0.0285 -0.6904 -0.3849
15669SOL    HW147585   7.331   0.366   9.540 -0.9459  0.2667 -2.6720
15669SOL    HW247586   7.350   0.487   9.628  0.7249 -0.7634 -1.5557
15670SOL     OW47587   4.495   6.835   9.786 -0.2426 -0.2249 -0.2169
15670SOL    HW147588   4.430   6.903   9.766 -0.5289 -0.0914  1.1056
15670SOL    HW247589   4.461   6.793   9.865  0.8684 -0.7077  0.0116
15671SOL     OW47590   9.327   5.181   4.086 -0.0992  0.3829 -0.1475
15671SOL    HW147591   9.412   5.168   4.129 -0.3790 -1.6328 -0.1011
15671SOL    HW247592   9.263   5.171   4.156 -0.4604 -0.6678 -0.6077
15672SOL     OW47593   2.808  -0.001   8.602 -0.3818  0.2076  0.3107
15672SOL    HW147594   2.811   0.010   8.507  2.2430  0.7278  0.3911
15672SOL    HW247595   2.726   0.042   8.628 -0.7621  0.7503 -1.6202
15673SOL     OW47596   2.991   4.096   8.474  0.3777 -0.5139 -0.1327
15673SOL    HW147597   2.967   4.158   8.542 -0.0518 -1.2703  0.4174
15673SOL    HW247598   2.951   4.013   8.501  2.4575 -1.4899  0.0907
15674SOL     OW47599   6.135   9.656   9.829 -0.2951  0.3855  0.0377
15674SOL    HW147600   6.114   9.564   9.814  1.4087  0.1126 -0.9206
15674SOL    HW247601   6.079   9.704   9.768  1.9360 -0.3535 -2.8356
15675SOL     OW47602   3.433   2.513   9.421 -0.2126 -0.1118 -0.3569
15675SOL    HW147603   3.467   2.425   9.438 -2.3141 -0.6554  1.4531
15675SOL    HW247604   3.366   2.501   9.354 -0.2471  0.1669 -0.3743
15676SOL     OW47605   3.421  -0.020   1.247 -0.1322  1.0670  0.4346
15676SOL    HW147606   3.500   0.024   1.280 -0.1308  0.8647  0.7080
15676SOL    HW247607   3.369   0.050   1.208 -0.3472  1.3968  1.2790
15677SOL     OW47608   9.902   7.082   3.078  0.3891 -0.1993  0.3120
15677SOL    HW147609   9.866   7.063   2.991  0.8682 -0.1595  0.0984
15677SOL    HW247610   9.844   7.149   3.114  0.1155 -0.3052  0.0721
15678SOL     OW47611   0.290   6.943   2.518  0.3798  0.4741 -0.1631
15678SOL    HW147612   0.322   6.885   2.449  1.5111  1.1248 -0.2161
15678SOL    HW247613   0.368   6.990   2.549 -0.1584  0.4694  1.3105
15679SOL     OW47614   8.811   2.104   5.331  0.0097 -0.2821 -0.6511
15679SOL    HW147615   8.822   2.051   5.410  0.3048 -0.3886 -0.7627
15679SOL    HW247616   8.886   2.082   5.276  0.3781  0.5714 -0.5132
15680SOL     OW47617   5.838   2.347   0.608 -0.1365  0.1386 -0.3681
15680SOL    HW147618   5.897   2.281   0.643  0.4126  0.3415 -0.8846
15680SOL    HW247619   5.894   2.402   0.553 -0.9302 -0.0804 -1.4319
15681SOL     OW47620   5.663   7.066   0.719 -0.2356 -0.2441 -0.2001
15681SOL    HW147621   5.626   6.980   0.743 -0.2190 -0.4210 -0.7788
15681SOL    HW247622   5.757   7.050   0.712 -0.1316  0.0214  0.4932
15682SOL     OW47623   5.715   6.742   9.249  0.2139 -0.0611 -0.6637
15682SOL    HW147624   5.759   6.693   9.318  0.6297  0.0930 -0.8223
15682SOL    HW247625   5.645   6.684   9.220  1.2549 -0.9416 -1.4725
15683SOL     OW47626   2.037   6.479   8.260  1.0978  0.6368  0.1600
15683SOL    HW147627   1.984   6.495   8.182  2.2552 -2.3092 -1.3942
15683SOL    HW247628   1.973   6.461   8.329  0.0714  1.7383 -0.4558
15684SOL     OW47629   1.388   8.026   2.861  0.0228  0.1332  0.2859
15684SOL    HW147630   1.302   8.041   2.901  0.6841 -0.9457  2.2602
15684SOL    HW247631   1.414   8.112   2.829 -0.3135  1.2997  2.8152
15685SOL     OW47632   7.981   7.311   5.320  0.2996 -0.5523 -0.2969
15685SOL    HW147633   7.995   7.217   5.315  0.3879 -0.5321 -0.4497
15685SOL    HW247634   7.891   7.321   5.350 -0.2554 -0.6900 -1.8214
15686SOL     OW47635   7.965   3.125   0.361 -0.1058 -0.2083  0.2651
15686SOL    HW147636   8.044   3.178   0.377 -0.0445 -0.0865 -0.3858
15686SOL    HW247637   7.939   3.149   0.272 -0.6530 -0.5430  0.3351
15687SOL     OW47638   3.100   9.348   5.557 -0.1118 -0.1441  0.0038
15687SOL    HW147639   3.154   9.425   5.567  1.0453 -1.0923  1.3293
15687SOL    HW247640   3.086   9.315   5.646 -1.2788 -0.9937 -0.4581
15688SOL     OW47641   6.773   5.719   7.189 -0.1569  0.6166  0.4735
15688SOL    HW147642   6.699   5.701   7.247  0.3559  0.0852  0.9842
15688SOL    HW247643   6.822   5.637   7.186 -0.0280  0.7198 -0.5086
15689SOL     OW47644   1.545   3.785   4.546 -0.0749 -0.2798  0.0919
15689SOL    HW147645   1.580   3.696   4.540  1.3100  0.2289  0.1920
15689SOL    HW247646   1.514   3.805   4.457  0.6455 -0.4677 -0.2091
15690SOL     OW47647   6.576   7.618   4.843 -0.2674  0.3270 -0.3260
15690SOL    HW147648   6.581   7.522   4.841 -0.5963  0.2361  1.4636
15690SOL    HW247649   6.668   7.646   4.844 -0.1299  0.1484 -2.5739
15691SOL     OW47650   2.602   5.128   9.037  0.1389 -0.3174 -0.2640
15691SOL    HW147651   2.529   5.077   9.003 -0.6332  1.2657 -1.1203
15691SOL    HW247652   2.669   5.125   8.969 -0.8400  1.6590 -1.4285
15692SOL     OW47653   3.695   8.998   0.748  0.3699 -0.9535 -0.1976
15692SOL    HW147654   3.718   8.924   0.805  1.9508 -1.9324 -1.9619
15692SOL    HW247655   3.730   9.075   0.793  0.4597 -1.5254  0.7414
15693SOL     OW47656   6.460   7.489   1.484  0.2113  0.4948 -0.2200
15693SOL    HW147657   6.377   7.455   1.517  0.6644  0.3771  0.8299
15693SOL    HW247658   6.517   7.495   1.561  1.2203  0.4657 -0.9332
15694SOL     OW47659   5.641   8.724   1.682  0.0697 -0.1836  0.2064
15694SOL    HW147660   5.706   8.777   1.635 -1.6212  2.1671  0.3907
15694SOL    HW247661   5.694   8.665   1.736  2.0536  1.1367 -0.1733
15695SOL     OW47662   7.084   8.918   8.734 -0.1974  0.0373 -0.8948
15695SOL    HW147663   7.153   8.873   8.782  0.1510  0.1801 -1.2529
15695SOL    HW247664   7.034   8.847   8.692  0.6356 -0.0148 -1.8422
15696SOL     OW47665   0.965   2.684   9.261 -0.4813  0.5500 -0.1551
15696SOL    HW147666   0.925   2.684   9.348 -1.2377  1.7081 -0.4764
15696SOL    HW247667   0.904   2.733   9.206  0.2499  0.3165 -1.2188
15697SOL     OW47668   7.207   2.434   6.626 -0.1943 -0.3641  0.1241
15697SOL    HW147669   7.283   2.379   6.607  0.5824  0.0140  1.9036
15697SOL    HW247670   7.137   2.373   6.647  0.6689 -0.7536  2.1186
15698SOL     OW47671   0.938   5.002   6.924  0.1434  0.4197 -0.1281
15698SOL    HW147672   0.877   5.020   6.996  0.5051  1.3544 -0.0503
15698SOL    HW247673   1.012   4.958   6.967 -0.3090 -0.4099 -0.1729
15699SOL     OW47674   4.556   4.322   0.803 -0.6924  0.0935  0.0037
15699SOL    HW147675   4.595   4.238   0.778 -0.1093  0.3712 -0.0545
15699SOL    HW247676   4.537   4.313   0.896 -2.2730 -0.7186 -0.3613
15700SOL     OW47677   4.081   4.471   9.292  0.7253  0.7148  0.1198
15700SOL    HW147678   3.993   4.490   9.260 -0.5453 -1.5871  1.8941
15700SOL    HW247679   4.093   4.532   9.365  0.9300  1.5483 -0.6032
15701SOL     OW47680   6.655   9.947   5.359 -0.2841 -0.0209  0.7932
15701SOL    HW147681   6.699   9.939   5.444  0.6243 -1.1540  0.2396
15701SOL    HW247682   6.604   9.867   5.350 -0.4954  0.1613  0.3436
15702SOL     OW47683   6.113   6.450   0.501  0.2310  0.3285 -0.0201
15702SOL    HW147684   6.140   6.407   0.420  0.0742  1.2626 -0.5909
15702SOL    HW247685   6.188   6.443   0.559  0.7557  0.6237 -0.6569
15703SOL     OW47686   0.065   2.671   9.431  0.4376 -0.0689  0.3706
15703SOL    HW147687   0.077   2.612   9.357  1.6784 -1.4399  1.6027
15703SOL    HW247688  -0.003   2.630   9.485  0.5108  0.1939  0.6704
15704SOL     OW47689   6.810   5.892   4.285 -0.0379 -0.6208  0.3425
15704SOL    HW147690   6.809   5.915   4.192 -1.1974 -1.4999  0.1055
15704SOL    HW247691   6.881   5.944   4.322  0.4645 -0.2760 -1.0385
15705SOL     OW47692   1.976   5.083   0.923 -0.0470  0.2563 -0.5596
15705SOL    HW147693   1.926   5.001   0.926  0.0053  0.2476  0.8319
15705SOL    HW247694   2.009   5.088   0.834  1.1924 -1.9968 -0.2918
15706SOL     OW47695   8.953   7.074   4.703  0.0542 -0.3539  0.6870
15706SOL    HW147696   8.941   7.119   4.619 -0.4489  0.2162  1.0566
15706SOL    HW247697   9.009   7.000   4.682 -1.8378 -1.5114 -0.5882
15707SOL     OW47698   4.510   7.511   3.670 -0.2891 -0.1658 -0.1049
15707SOL    HW147699   4.552   7.471   3.594 -0.8077 -2.1835  0.6199
15707SOL    HW247700   4.569   7.492   3.743 -0.4908  0.5277  0.2563
15708SOL     OW47701   4.200   9.200   2.944  0.2414  0.1052 -0.1822
15708SOL    HW147702   4.269   9.192   2.879  0.0702  0.4809 -0.4144
15708SOL    HW247703   4.244   9.187   3.028  0.4154 -0.6598 -0.3816
15709SOL     OW47704   5.797   3.932   0.747  0.1388 -0.0378 -0.0718
15709SOL    HW147705   5.782   3.911   0.839 -0.5768  0.1766 -0.1396
15709SOL    HW247706   5.862   4.003   0.749  1.3414 -1.1038  0.2042
15710SOL     OW47707   0.198   1.271   4.545  0.1961 -0.7460  0.2154
15710SOL    HW147708   0.147   1.238   4.470  0.8142 -2.7483  0.6204
15710SOL    HW247709   0.273   1.315   4.505 -0.5765  0.1369 -0.3341
15711SOL     OW47710   0.819   4.951   4.762 -0.0867 -0.4658  0.1963
15711SOL    HW147711   0.731   4.965   4.797 -0.6898 -0.8273 -1.1132
15711SOL    HW247712   0.804   4.913   4.675  1.3656 -0.4450 -0.0781
15712SOL     OW47713   6.438   3.074   3.628  0.2189 -0.1639 -0.0680
15712SOL    HW147714   6.350   3.110   3.617  0.6554  0.9933  0.0367
15712SOL    HW247715   6.440   2.997   3.573 -0.7899 -0.0690 -0.2554
15713SOL     OW47716   3.797   5.692   0.368 -0.3622 -0.2997  0.2668
15713SOL    HW147717   3.776   5.784   0.353 -1.9418 -0.1718  2.6058
15713SOL    HW247718   3.892   5.687   0.358 -0.4219  1.2048 -1.5274
15714SOL     OW47719   1.926   9.134   5.730  0.0609  0.0739  0.1990
15714SOL    HW147720   1.927   9.225   5.760  0.1370 -0.6077  2.4546
15714SOL    HW247721   1.866   9.090   5.790 -0.1633 -1.3516 -1.0009
15715SOL     OW47722   4.162   5.572   2.511 -0.2290 -0.3836 -0.5366
15715SOL    HW147723   4.176   5.646   2.452  1.2009  0.8839  1.2544
15715SOL    HW247724   4.234   5.512   2.492  1.1950  0.7655  0.8728
15716SOL     OW47725   0.198   0.942   9.777 -0.4266  0.1208 -0.3285
15716SOL    HW147726   0.147   0.928   9.856  1.5294  0.3704  1.0348
15716SOL    HW247727   0.150   0.894   9.709 -1.0825 -1.8627  1.4150
15717SOL     OW47728   4.279   2.863   5.235 -0.0815  0.4085  0.6996
15717SOL    HW147729   4.311   2.941   5.190 -0.8849  0.2106 -0.2357
15717SOL    HW247730   4.354   2.831   5.285  0.9449  0.4318 -0.7849
15718SOL     OW47731   9.759   9.439   7.801  0.6158  0.1071  0.3800
15718SOL    HW147732   9.686   9.452   7.861  0.9042  0.1919  0.7209
15718SOL    HW247733   9.736   9.361   7.751 -1.0936  1.7995 -1.6192
15719SOL     OW47734   7.505   7.263   4.064  0.1122  0.6118  0.4476
15719SOL    HW147735   7.472   7.241   4.151  0.8718  2.6090  1.2974
15719SOL    HW247736   7.585   7.212   4.055 -0.8575 -0.9350  0.1557
15720SOL     OW47737   6.378   9.471   6.116  0.3884  0.4208  0.1182
15720SOL    HW147738   6.332   9.387   6.119  0.0685  0.6137  2.3373
15720SOL    HW247739   6.312   9.534   6.088  0.0795  0.2386  0.4322
15721SOL     OW47740   8.096   9.367   3.269 -0.1232 -0.6982  0.0240
15721SOL    HW147741   8.153   9.334   3.199 -0.2049 -1.0940  0.1400
15721SOL    HW247742   8.018   9.311   3.265 -0.6318  0.0324 -0.3188
15722SOL     OW47743   3.334   6.394   3.138 -0.1971  0.2008  0.4990
15722SOL    HW147744   3.332   6.460   3.207 -1.8167  0.6934  0.0275
15722SOL    HW247745   3.309   6.442   3.058  0.0551 -0.6797 -0.1256
15723SOL     OW47746   7.123   8.867   5.285  0.2382  0.0622  0.3761
15723SOL    HW147747   7.065   8.842   5.357 -0.3515  1.3062  0.3692
15723SOL    HW247748   7.198   8.909   5.327 -0.3843  1.3262  0.2721
15724SOL     OW47749   3.323   4.458   6.579  0.3375  0.5732  0.0229
15724SOL    HW147750   3.401   4.426   6.535  1.1232  1.2212  0.8995
15724SOL    HW247751   3.350   4.542   6.618 -0.7999  0.8241  0.3039
15725SOL     OW47752   5.168   8.852   3.021 -0.4606 -0.5782  0.5722
15725SOL    HW147753   5.202   8.773   2.979 -1.1510  0.3606 -1.8910
15725SOL    HW247754   5.077   8.831   3.042  0.1524 -1.4050  2.7244
15726SOL     OW47755   4.449   5.591   4.979  0.0243  0.0670  0.1457
15726SOL    HW147756   4.438   5.496   4.970 -0.2060  0.0214  0.8452
15726SOL    HW247757   4.361   5.623   5.001  0.2501  0.3487  0.6542
15727SOL     OW47758   3.144   8.325   8.778  0.2300 -0.3277  0.0467
15727SOL    HW147759   3.085   8.399   8.766  0.3968 -0.2350 -0.2127
15727SOL    HW247760   3.159   8.291   8.689 -0.7436 -1.3710  0.2579
15728SOL     OW47761   6.409   6.288   4.823  0.1534  0.9708 -0.2782
15728SOL    HW147762   6.477   6.314   4.761  1.7580  1.2093  1.4884
15728SOL    HW247763   6.443   6.314   4.909 -0.8240 -1.5397  0.9935
15729SOL     OW47764   4.476   9.772   0.274 -0.2941  0.6927  0.0470
15729SOL    HW147765   4.511   9.691   0.237 -0.2483  1.7283 -2.4260
15729SOL    HW247766   4.470   9.756   0.368  1.8065 -1.3905 -0.0819
15730SOL     OW47767   0.523   2.739   6.134 -0.1872 -0.2637 -0.0671
15730SOL    HW147768   0.538   2.662   6.080 -0.8223  1.1580 -2.3804
15730SOL    HW247769   0.611   2.772   6.154  0.1844 -2.4159  2.3786
15731SOL     OW47770   1.911   1.038   7.199  0.5343  0.2600  0.3481
15731SOL    HW147771   1.942   0.964   7.147 -0.2296  0.2600 -0.1231
15731SOL    HW247772   1.946   1.115   7.155  0.4689  0.2251  0.2346
15732SOL     OW47773   8.678   8.626   7.802 -0.4897 -0.1569 -0.5133
15732SOL    HW147774   8.722   8.556   7.850 -2.8185 -0.7266  0.9269
15732SOL    HW247775   8.736   8.702   7.811  0.3613 -0.9447  1.0067
15733SOL     OW47776   4.446   6.198   5.471 -0.5073  0.4420 -0.1994
15733SOL    HW147777   4.388   6.194   5.548  0.0948  2.4548  0.4173
15733SOL    HW247778   4.451   6.107   5.441 -0.7110 -0.4431  2.1768
15734SOL     OW47779   0.749   9.699   6.974  0.2101  0.1469 -0.0049
15734SOL    HW147780   0.789   9.720   6.889  1.8172  1.5058  1.0265
15734SOL    HW247781   0.668   9.750   6.975 -0.5678 -0.9783 -1.2536
15735SOL     OW47782   1.190   1.181   3.636  0.6843  0.0790  0.4635
15735SOL    HW147783   1.211   1.209   3.725  0.7157 -0.2038  0.5457
15735SOL    HW247784   1.233   1.245   3.580  1.6468 -0.4028  0.6308
15736SOL     OW47785   7.840   5.424   2.827  0.2190 -0.0863  0.2334
15736SOL    HW147786   7.864   5.513   2.801 -0.9926  0.2211  0.1431
15736SOL    HW247787   7.908   5.399   2.891 -0.0738  1.3422  1.1403
15737SOL     OW47788   8.434   3.767   8.717  0.0732 -0.1829  0.0577
15737SOL    HW147789   8.342   3.750   8.696 -0.2478 -0.3136  1.4762
15737SOL    HW247790   8.452   3.712   8.794  0.7872  1.2494  0.9655
15738SOL     OW47791   6.415   4.536   1.286 -0.6164 -0.4587 -0.0707
15738SOL    HW147792   6.487   4.590   1.319  0.2135 -0.9462 -1.0232
15738SOL    HW247793   6.419   4.456   1.338 -0.1417 -0.6884 -0.4521
15739SOL     OW47794   5.347   9.621   6.839 -0.0045  0.6534  0.1766
15739SOL    HW147795   5.393   9.649   6.760 -0.6349  0.1290 -0.3830
15739SOL    HW247796   5.263   9.668   6.836  0.3460  1.3827  1.0455
15740SOL     OW47797   8.620   6.156   9.869  0.4280  0.0735 -0.8076
15740SOL    HW147798   8.608   6.064   9.893 -0.7357  0.9953  2.7108
15740SOL    HW247799   8.533   6.186   9.845  0.5845  0.5324 -0.8069
15741SOL     OW47800   8.078   4.953   8.920  0.0327 -0.2865 -0.1387
15741SOL    HW147801   8.124   5.002   8.852 -0.1406  0.9202  0.5651
15741SOL    HW247802   8.144   4.940   8.988 -0.1756 -0.1830  0.0859
15742SOL     OW47803   6.018   3.417   2.257 -0.1683  0.0509  0.2922
15742SOL    HW147804   6.103   3.436   2.217 -0.0941  0.3385  0.5848
15742SOL    HW247805   5.960   3.487   2.225  0.4679  1.7390  2.5689
15743SOL     OW47806   6.291   4.526   9.085  0.1944 -0.0420  0.1738
15743SOL    HW147807   6.317   4.486   9.002 -1.1814  1.9740 -1.3290
15743SOL    HW247808   6.225   4.591   9.060  1.5888  2.4575  2.5355
15744SOL     OW47809   5.300   3.556   1.526  0.0797 -0.4925  0.0361
15744SOL    HW147810   5.320   3.594   1.440  2.0208 -0.0938  0.6215
15744SOL    HW247811   5.213   3.590   1.548 -0.0778  0.0798 -1.3810
15745SOL     OW47812   2.281   5.450   6.449  0.4334 -0.1461  0.3481
15745SOL    HW147813   2.192   5.414   6.449  1.3909 -2.7473  0.7139
15745SOL    HW247814   2.276   5.528   6.393 -1.6467 -1.4222 -1.3925
15746SOL     OW47815   8.213   8.375   0.849  0.0342 -0.3733  0.4471
15746SOL    HW147816   8.139   8.364   0.790  1.6960 -2.0941 -1.4834
15746SOL    HW247817   8.190   8.322   0.926 -0.9850 -0.4104  0.1353
15747SOL     OW47818   5.663   7.488   5.893  1.0360  0.5671  0.4029
15747SOL    HW147819   5.667   7.496   5.798 -0.3791  0.9428  0.3543
15747SOL    HW247820   5.593   7.424   5.910  0.0850  1.7582  1.1929
15748SOL     OW47821   6.365   4.936   2.817  0.1105 -0.0176 -0.1173
15748SOL    HW147822   6.277   4.953   2.851 -0.1125 -0.2414 -0.5797
15748SOL    HW247823   6.402   5.023   2.802 -0.3299  0.0730 -0.6820
15749SOL     OW47824   5.529   7.620   8.660 -1.0056 -0.2580 -0.3998
15749SOL    HW147825   5.490   7.703   8.633 -0.5222 -0.7508 -2.8534
15749SOL    HW247826   5.488   7.601   8.745 -0.1295  3.0983  0.9453
15750SOL     OW47827   6.548   7.956   1.871  0.1977  0.2139  0.2878
15750SOL    HW147828   6.477   8.010   1.836  0.7728  0.1264 -1.0402
15750SOL    HW247829   6.627   7.992   1.831  1.1104  1.1490  2.7333
15751SOL     OW47830   1.189   5.931   2.005 -0.1414 -0.0357 -0.0414
15751SOL    HW147831   1.105   5.895   2.032 -0.2537  0.1055 -0.2043
15751SOL    HW247832   1.175   6.025   1.999  0.1280  0.0280  0.2920
15752SOL     OW47833   1.238   6.418   9.302 -0.0144  0.3578  0.4936
15752SOL    HW147834   1.166   6.460   9.255 -1.3966  0.9262  2.9440
15752SOL    HW247835   1.252   6.336   9.255 -2.6902 -0.0571  0.2488
15753SOL     OW47836   6.730   5.861   6.492 -0.1734  0.2059 -0.2099
15753SOL    HW147837   6.821   5.841   6.469 -0.9136 -1.6077 -1.9118
15753SOL    HW247838   6.711   5.806   6.567  0.1624  0.7051  0.2468
15754SOL     OW47839   7.395   9.182   3.197  0.0556  0.4105  0.4388
15754SOL    HW147840   7.386   9.183   3.101 -2.5316 -1.8138  0.5423
15754SOL    HW247841   7.473   9.128   3.212 -0.8156 -1.1764 -0.4485
15755SOL     OW47842   6.392   6.026   9.859 -0.0425 -0.6424  0.5983
15755SOL    HW147843   6.477   6.000   9.892  0.4506  0.6610  0.4187
15755SOL    HW247844   6.405   6.041   9.765  0.1740  1.8822  0.9609
15756SOL     OW47845   5.272   6.136   4.294  0.3318  0.3510  0.4966
15756SOL    HW147846   5.257   6.069   4.227  1.1818  1.0378 -0.4201
15756SOL    HW247847   5.192   6.189   4.292 -0.6133 -0.9451  1.6614
15757SOL     OW47848   7.171   3.109   7.005 -0.0461  0.3602  0.2529
15757SOL    HW147849   7.102   3.049   7.036  0.3983 -0.3605 -0.1259
15757SOL    HW247850   7.251   3.057   7.007  0.6190  1.3705  1.2638
15758SOL     OW47851   0.091   7.406   5.043 -0.1685  0.0612 -0.2983
15758SOL    HW147852   0.066   7.364   4.960 -0.7374 -1.3045  0.5414
15758SOL    HW247853   0.027   7.476   5.054 -0.5869 -0.2649 -0.6189
15759SOL     OW47854   0.040   0.093   6.572 -0.1972  0.2763 -0.4610
15759SOL    HW147855   0.019   0.061   6.484  0.1070 -0.4537 -0.2751
15759SOL    HW247856   0.135   0.084   6.578 -0.2278  0.2523 -0.0315
15760SOL     OW47857   4.558   1.160   5.889  0.8070  0.4599  0.3030
15760SOL    HW147858   4.512   1.078   5.905  1.7802 -0.0934  0.3641
15760SOL    HW247859   4.490   1.227   5.894 -0.2612 -0.4506 -1.0974
15761SOL     OW47860   8.640   7.075   3.702 -0.1797  0.2936  0.3387
15761SOL    HW147861   8.681   7.007   3.755 -0.5324 -0.9708 -0.9663
15761SOL    HW247862   8.564   7.103   3.753 -0.4997 -0.8832  0.5392
15762SOL     OW47863   5.933   1.743   5.026  0.2814 -0.1033  0.5357
15762SOL    HW147864   6.008   1.712   5.075  0.1306 -0.3675  0.5999
15762SOL    HW247865   5.951   1.719   4.935  0.9317  1.0855  0.3264
15763SOL     OW47866   5.211   0.515   5.941  0.4712  0.0778 -0.4214
15763SOL    HW147867   5.151   0.483   6.008  0.9011  1.3227  0.5952
15763SOL    HW247868   5.245   0.436   5.900 -0.0844 -0.7095  0.5898
15764SOL     OW47869   5.673   6.983   0.036  0.1196  0.8525 -0.1817
15764SOL    HW147870   5.721   7.065   0.053  0.3527  0.5777  0.4842
15764SOL    HW247871   5.720   6.944  -0.037  0.2635  1.1075 -0.2306
15765SOL     OW47872   4.776   2.273   9.512  0.0718  0.6433 -0.7723
15765SOL    HW147873   4.820   2.353   9.541  0.2179  0.3324 -0.1059
15765SOL    HW247874   4.846   2.208   9.505 -0.5058 -0.8276  3.5890
15766SOL     OW47875   0.034   9.972   7.958 -0.4817  0.0141  0.0267
15766SOL    HW147876  -0.058   9.952   7.975 -0.4747  0.5570  0.7643
15766SOL    HW247877   0.076   9.887   7.949 -0.7775 -0.2918  1.2796
15767SOL     OW47878   4.824   2.176   0.924 -0.3239  0.0614 -0.4159
15767SOL    HW147879   4.770   2.256   0.928  0.9773  0.9265  0.6815
15767SOL    HW247880   4.885   2.193   0.852  0.3890  0.3601  0.2489
15768SOL     OW47881   1.313   9.270   1.535 -0.2319 -0.5339 -0.0211
15768SOL    HW147882   1.313   9.364   1.514 -0.1777  0.1412  2.6458
15768SOL    HW247883   1.233   9.257   1.586  0.6286 -1.5404  1.1389
15769SOL     OW47884   2.892   5.725   5.512 -0.1268  0.4455  0.2009
15769SOL    HW147885   2.910   5.686   5.598 -0.8463 -1.9642 -0.6535
15769SOL    HW247886   2.947   5.675   5.451 -0.1627  1.6389 -0.8492
15770SOL     OW47887   2.319   7.620   9.037  0.1882  0.7666  0.5435
15770SOL    HW147888   2.254   7.589   8.974 -0.0242  2.2483 -0.0168
15770SOL    HW247889   2.276   7.614   9.122  0.7263 -1.9271  0.7066
15771SOL     OW47890   9.665   3.217   8.763 -0.9095 -0.2242 -0.1167
15771SOL    HW147891   9.692   3.182   8.848 -0.5554 -0.7751 -0.4498
15771SOL    HW247892   9.599   3.283   8.784 -1.0143 -0.5387  0.5714
15772SOL     OW47893   6.426   8.885   4.792 -0.2841 -0.4072 -0.2916
15772SOL    HW147894   6.450   8.952   4.729  0.9563 -0.4893  0.0656
15772SOL    HW247895   6.454   8.803   4.753 -0.3359 -0.5521 -0.0341
15773SOL     OW47896   5.234   9.431   5.452 -0.8866  0.3907 -0.1255
15773SOL    HW147897   5.174   9.394   5.517 -1.3211  0.1095 -0.6809
15773SOL    HW247898   5.180   9.444   5.374 -0.2788  0.3618 -0.5569
15774SOL     OW47899   5.602   1.237   1.721 -0.2589 -0.0568  0.1621
15774SOL    HW147900   5.549   1.161   1.746 -0.2878  0.3277  1.3023
15774SOL    HW247901   5.567   1.263   1.635 -1.3071 -0.3598  0.4816
15775SOL     OW47902   9.156   9.444   1.486  0.1897  0.6566 -0.0100
15775SOL    HW147903   9.083   9.390   1.457 -0.2573  0.9192  0.6110
15775SOL    HW247904   9.117   9.528   1.507  1.0537  1.6593 -2.1262
15776SOL     OW47905   5.053   8.035   9.916 -0.2002  0.1210  0.5302
15776SOL    HW147906   5.077   8.098   9.848  0.2042 -2.0733 -1.4866
15776SOL    HW247907   5.102   7.955   9.894 -2.5351 -1.7002  1.5218
15777SOL     OW47908   7.501   5.838   4.343  0.3697 -0.0972 -0.1717
15777SOL    HW147909   7.505   5.753   4.388 -0.6729  0.0178  0.1653
15777SOL    HW247910   7.500   5.903   4.413  1.9452  0.2541 -0.4437
15778SOL     OW47911   1.418   0.947   9.931 -0.3073 -0.4015  0.5187
15778SOL    HW147912   1.328   0.916   9.940 -0.2461 -1.2251 -1.2887
15778SOL    HW247913   1.472   0.869   9.941 -0.0016 -0.4955 -1.4752
15779SOL     OW47914   4.409   2.069   9.713  0.3141 -0.2948  0.3631
15779SOL    HW147915   4.469   2.141   9.735  0.8870 -0.8473  0.6420
15779SOL    HW247916   4.338   2.111   9.665  0.7448  0.4301  0.3435
15780SOL     OW47917   3.200   4.586   2.690 -0.3178 -0.3961 -0.6265
15780SOL    HW147918   3.207   4.680   2.670 -0.6800 -0.2228  0.0270
15780SOL    HW247919   3.270   4.570   2.754 -0.0034 -0.6610 -1.0329
15781SOL     OW47920   7.785   6.927   3.220 -0.0804 -0.0188 -0.3065
15781SOL    HW147921   7.824   6.884   3.143 -1.8118  0.4822 -1.5443
15781SOL    HW247922   7.851   6.991   3.248  0.3542  0.2247 -1.7862
15782SOL     OW47923   7.582   0.986   0.840  0.3489  0.1349  0.1955
15782SOL    HW147924   7.672   0.989   0.874  0.3302 -0.2104  0.2861
15782SOL    HW247925   7.552   0.897   0.862  0.9561 -0.7555 -2.2891
15783SOL     OW47926   8.366   3.270   3.814  0.0778 -0.7084  0.0387
15783SOL    HW147927   8.425   3.344   3.829 -1.4808  1.0021 -1.7515
15783SOL    HW247928   8.415   3.211   3.756  0.6983 -0.2441  0.0794
15784SOL     OW47929   2.516   7.001   7.710 -0.2120 -0.5966 -0.3958
15784SOL    HW147930   2.519   6.947   7.789 -1.1518  0.7536  0.5968
15784SOL    HW247931   2.512   7.091   7.742  0.1526  0.0304 -1.9972
15785SOL     OW47932   8.880   6.473   5.882 -0.5044 -0.2060  0.2337
15785SOL    HW147933   8.820   6.405   5.854  0.0725 -0.4907 -0.3337
15785SOL    HW247934   8.901   6.450   5.973 -2.2816  0.6566  0.9056
15786SOL     OW47935   6.607   3.589   8.717 -0.0518  0.1110  0.3044
15786SOL    HW147936   6.576   3.672   8.682  0.9568 -0.2142 -1.4820
15786SOL    HW247937   6.582   3.591   8.810  1.6747  3.2983  0.8520
15787SOL     OW47938   3.890   5.613   4.065  0.3024  0.6175  0.8204
15787SOL    HW147939   3.982   5.617   4.091  1.0878  0.4366 -1.6429
15787SOL    HW247940   3.860   5.528   4.096  1.0536  0.5432  1.3760
15788SOL     OW47941   7.513   6.381   8.493 -0.4008  0.1908  0.0681
15788SOL    HW147942   7.469   6.465   8.506  0.3516  0.4674  0.9613
15788SOL    HW247943   7.512   6.340   8.580  2.5991  0.9753  0.5802
15789SOL     OW47944   5.008   8.297   4.022 -0.0078 -0.0671 -0.1294
15789SOL    HW147945   5.025   8.225   3.961  0.7397  0.4019 -0.4774
15789SOL    HW247946   5.095   8.329   4.047 -0.3271  0.4675  0.3219
15790SOL     OW47947   9.204   2.218   5.695 -0.0989  0.3603  0.2228
15790SOL    HW147948   9.197   2.242   5.787  1.0321 -0.3918  0.5192
15790SOL    HW247949   9.255   2.288   5.655 -0.6211  0.7053  0.1563
15791SOL     OW47950   7.035   8.481   2.353 -0.1328 -0.4356 -0.0216
15791SOL    HW147951   7.035   8.393   2.315 -0.1609  0.0310 -1.1190
15791SOL    HW247952   6.959   8.524   2.315 -2.0170 -0.9133  2.9067
15792SOL     OW47953   8.551   8.178   1.010 -0.0185 -0.1425 -0.1954
15792SOL    HW147954   8.533   8.163   1.103  0.4722  0.0572 -0.0629
15792SOL    HW247955   8.581   8.094   0.977  1.9336  0.2900  0.3536
15793SOL     OW47956   3.398   0.455   0.429 -0.6299  0.0072 -0.1539
15793SOL    HW147957   3.476   0.406   0.453 -0.3307  0.5910  0.0914
15793SOL    HW247958   3.349   0.397   0.371 -0.4143 -0.6721  0.3389
15794SOL     OW47959   1.616   6.750   8.475 -0.4407  0.4841 -0.4518
15794SOL    HW147960   1.662   6.711   8.549  0.0003  1.3639 -0.2487
15794SOL    HW247961   1.675   6.739   8.401 -0.8819 -0.3961 -0.6861
15795SOL     OW47962   3.522   0.296   2.640 -0.7158  0.1295 -0.1330
15795SOL    HW147963   3.544   0.255   2.723  0.4482  0.8155 -0.0920
15795SOL    HW247964   3.507   0.222   2.580 -2.4853 -0.3878  0.8777
15796SOL     OW47965   3.903   9.008   7.652 -0.0121 -0.2298 -0.3577
15796SOL    HW147966   3.923   8.954   7.729 -0.7120  0.1818  0.1201
15796SOL    HW247967   3.980   8.997   7.595  0.9982  0.3018  0.8654
15797SOL     OW47968   1.223   0.038   8.843  0.2818  0.7981  0.0836
15797SOL    HW147969   1.194   0.001   8.760 -0.5994 -1.4326  1.3023
15797SOL    HW247970   1.316   0.059   8.829 -0.4032  2.6867 -2.1288
15798SOL     OW47971   7.470   8.645   2.364 -0.3427 -0.1056  0.3364
15798SOL    HW147972   7.462   8.549   2.365  1.6355 -0.3078  0.1329
15798SOL    HW247973   7.527   8.665   2.438 -0.0093  0.8320 -0.1617
15799SOL     OW47974   4.036   1.411   9.185  0.5620 -0.0722  0.5254
15799SOL    HW147975   4.025   1.421   9.279  0.2215 -0.7886  0.5661
15799SOL    HW247976   4.092   1.334   9.176 -0.3941 -0.7258  0.1099
15800SOL     OW47977   2.832   5.764   9.394  0.6602 -0.2560  0.3379
15800SOL    HW147978   2.822   5.804   9.307 -1.0441 -1.5247 -0.1114
15800SOL    HW247979   2.767   5.693   9.395  2.2550 -1.7782  1.8020
15801SOL     OW47980   1.221   2.813   1.942 -0.0513 -0.2496 -0.0652
15801SOL    HW147981   1.174   2.863   1.874  0.4778  0.2180 -0.0924
15801SOL    HW247982   1.190   2.723   1.931 -0.9692  0.0550 -0.0616
15802SOL     OW47983   3.675   4.140   0.343 -0.7458 -0.0445  0.0605
15802SOL    HW147984   3.592   4.172   0.377  0.0091  2.3234 -0.1280
15802SOL    HW247985   3.688   4.189   0.262 -0.1510 -1.9480 -1.0442
15803SOL     OW47986   1.717   9.524   3.878  0.2223  0.3644  0.4003
15803SOL    HW147987   1.701   9.587   3.949 -0.4969  1.1562 -0.4430
15803SOL    HW247988   1.630   9.506   3.843  0.5464 -0.2552 -0.0931
15804SOL     OW47989   4.066   9.644   3.637  0.2167 -0.2963 -0.5557
15804SOL    HW147990   4.010   9.612   3.567 -0.1376 -0.8223 -0.0438
15804SOL    HW247991   4.006   9.665   3.709  0.4766  1.1654 -0.7354
15805SOL     OW47992   0.858   7.800   8.082 -0.0935  0.8913 -0.2351
15805SOL    HW147993   0.876   7.707   8.093 -0.3910  0.8005 -0.4971
15805SOL    HW247994   0.935   7.844   8.118 -0.6060  0.5956  1.3036
15806SOL     OW47995   8.840   9.580   4.822 -0.2032 -0.6001  0.8721
15806SOL    HW147996   8.809   9.493   4.848 -3.5853 -0.9706 -3.3706
15806SOL    HW247997   8.780   9.641   4.865 -1.1343 -0.7431 -0.1975
15807SOL     OW47998   1.122   3.083   4.630  0.5573  0.2379 -0.1788
15807SOL    HW147999   1.204   3.123   4.601  0.5493  1.4714  1.3394
15807SOL    HW248000   1.055   3.148   4.609  0.1546 -0.1612 -0.1452
15808SOL     OW48001   0.786   0.857   5.444 -0.4423  0.4604  0.5271
15808SOL    HW148002   0.796   0.848   5.349 -0.8289  0.6764  0.4600
15808SOL    HW248003   0.866   0.820   5.481 -0.5190 -0.1170  0.1368
15809SOL     OW48004   8.839   1.747   4.129 -0.0384  0.0506  0.1934
15809SOL    HW148005   8.915   1.754   4.187  0.9052 -1.5991 -0.7745
15809SOL    HW248006   8.861   1.804   4.055 -0.3328  0.5736  0.5042
15810SOL     OW48007   3.655   6.660   7.296  0.5679  0.4476  0.5153
15810SOL    HW148008   3.665   6.567   7.279  0.6720  0.0914  2.2742
15810SOL    HW248009   3.629   6.664   7.388  1.9207  2.2192  0.8682
15811SOL     OW48010   5.600   8.287   5.641  0.2044 -0.0050  0.4824
15811SOL    HW148011   5.691   8.276   5.668 -0.0256 -0.0008  1.2874
15811SOL    HW248012   5.562   8.200   5.648 -0.0184  0.1128  0.7972
15812SOL     OW48013   1.942   0.335   7.738  0.1108  0.5213 -0.1752
15812SOL    HW148014   2.028   0.328   7.696 -0.1073 -0.8679 -0.4471
15812SOL    HW248015   1.927   0.429   7.747  1.9949  0.7882  0.6060
15813SOL     OW48016   6.756   4.095   2.942  0.1449 -0.2809  0.3536
15813SOL    HW148017   6.840   4.110   2.899  0.4178 -0.0630  0.9612
15813SOL    HW248018   6.713   4.181   2.940 -0.9517 -0.8015 -1.7923
15814SOL     OW48019   0.720   2.589   9.736  0.4608  0.0731 -0.0247
15814SOL    HW148020   0.788   2.626   9.792  1.0159  0.5091 -0.9495
15814SOL    HW248021   0.724   2.495   9.752 -1.0365  0.3326  2.4339
15815SOL     OW48022   1.865   3.169   3.860 -0.4448 -0.3716 -0.3707
15815SOL    HW148023   1.919   3.096   3.891  1.4683  1.1422  0.0965
15815SOL    HW248024   1.872   3.235   3.929 -0.2851  1.1009 -1.7379
15816SOL     OW48025   1.982   8.753   6.666  0.4605  0.0496  0.3872
15816SOL    HW148026   1.956   8.838   6.701  0.6063  0.3422 -0.2036
15816SOL    HW248027   2.076   8.760   6.653  0.7808 -0.8152  1.9839
15817SOL     OW48028   6.907   1.873   8.296 -0.0915 -0.2277  0.0188
15817SOL    HW148029   6.866   1.858   8.211 -0.9177 -0.1582  0.3959
15817SOL    HW248030   6.887   1.964   8.316 -0.4492 -0.4271  0.5787
15818SOL     OW48031   6.718   4.876   9.591 -0.2317 -0.0088 -0.2182
15818SOL    HW148032   6.760   4.830   9.664 -0.2070  1.3006  0.6178
15818SOL    HW248033   6.636   4.910   9.627 -0.1786  0.7344 -0.7613
15819SOL     OW48034   1.678   7.070   1.530  0.6027 -0.7467 -0.1104
15819SOL    HW148035   1.718   7.106   1.451  0.3809 -1.4616 -0.5589
15819SOL    HW248036   1.700   7.133   1.599 -1.0842  1.0952 -1.1301
15820SOL     OW48037   9.261   2.332   3.261  0.1539  0.1128  0.2488
15820SOL    HW148038   9.178   2.298   3.292 -0.5414  1.1523 -0.4302
15820SOL    HW248039   9.322   2.316   3.334  0.0338 -2.9684 -0.1983
15821SOL     OW48040   1.789   4.938   4.637  0.5478  0.8180 -0.4995
15821SOL    HW148041   1.727   4.874   4.602  0.9237  0.3658 -0.3468
15821SOL    HW248042   1.734   5.010   4.668  0.0059 -0.0449  0.6270
15822SOL     OW48043   3.278   4.855   2.643  0.3019  0.0632  0.1737
15822SOL    HW148044   3.355   4.911   2.635  0.0270  0.6560  1.4340
15822SOL    HW248045   3.220   4.902   2.703  0.1389 -1.6549  1.4401
15823SOL     OW48046   2.052   7.796   2.102  0.5223  0.0433  0.2687
15823SOL    HW148047   1.984   7.804   2.169 -1.9755 -2.2968 -1.7604
15823SOL    HW248048   2.092   7.711   2.118  2.3169  0.9333  0.7639
15824SOL     OW48049   8.292   4.776   5.947 -0.1379 -0.0337  0.0651
15824SOL    HW148050   8.352   4.703   5.933 -0.4335  0.1342 -2.4646
15824SOL    HW248051   8.206   4.736   5.956 -0.1158 -0.0686  0.1212
15825SOL     OW48052   8.462   3.108   0.157 -0.5105 -0.1404  0.1032
15825SOL    HW148053   8.507   3.069   0.081  0.0299  1.2300 -0.3152
15825SOL    HW248054   8.503   3.066   0.232  0.9398  0.4660 -0.3011
15826SOL     OW48055   6.402   0.337   2.973 -0.4209 -0.0113 -0.6274
15826SOL    HW148056   6.401   0.267   3.038 -0.0504  1.1678  0.7105
15826SOL    HW248057   6.492   0.371   2.975 -1.1366  2.0088  0.4969
15827SOL     OW48058   6.181   5.977   6.921 -0.0509 -0.3111  0.0273
15827SOL    HW148059   6.201   5.994   7.014  1.0591 -0.9388 -0.0741
15827SOL    HW248060   6.252   6.022   6.874 -0.4547 -0.2348 -0.5078
15828SOL     OW48061   3.993   3.443   5.369  0.3428  0.3607 -0.4124
15828SOL    HW148062   3.975   3.439   5.275  1.3109  0.7345 -0.6286
15828SOL    HW248063   4.074   3.393   5.380 -0.6704 -1.1774  0.5022
15829SOL     OW48064   5.904   0.523   2.784  0.4287 -0.0988 -0.3656
15829SOL    HW148065   5.913   0.525   2.879 -0.6538  0.9716 -0.2635
15829SOL    HW248066   5.972   0.584   2.752 -1.6009  2.5301 -0.0085
15830SOL     OW48067   7.876   3.102   1.553  0.5570 -0.1343  0.0616
15830SOL    HW148068   7.917   3.118   1.638  1.7058  0.7923 -0.6399
15830SOL    HW248069   7.867   3.006   1.549  0.1551 -0.1806  1.3448
15831SOL     OW48070   3.977   8.428   5.443  0.1497  0.2106  0.3373
15831SOL    HW148071   4.053   8.479   5.413 -0.3035  1.3447  1.0352
15831SOL    HW248072   3.941   8.390   5.363  0.2809  1.3378 -0.2875
15832SOL     OW48073   1.267   7.707   8.943 -0.1866 -0.2643 -0.1327
15832SOL    HW148074   1.226   7.696   9.029  0.8870  3.9785  1.2136
15832SOL    HW248075   1.207   7.764   8.895  1.4316  1.5559 -0.1535
15833SOL     OW48076   2.713   3.566   3.519 -0.6768  0.1514  0.2955
15833SOL    HW148077   2.710   3.475   3.549 -0.9447 -0.1350 -0.5759
15833SOL    HW248078   2.799   3.576   3.478 -0.4220  0.4600  0.8931
15834SOL     OW48079   4.865   9.090   7.276 -0.2325  0.6377 -0.1167
15834SOL    HW148080   4.959   9.074   7.261 -0.5275 -0.0219 -1.4017
15834SOL    HW248081   4.822   9.053   7.199 -1.4535  2.3517 -0.3095
15835SOL     OW48082   6.918   8.241   0.260 -0.9455 -0.2175 -0.6144
15835SOL    HW148083   6.829   8.207   0.256 -1.4772  1.1788 -1.8783
15835SOL    HW248084   6.946   8.245   0.168  0.0219  0.3140 -0.3107
15836SOL     OW48085   1.533   3.018   9.769 -0.0145 -0.1662 -0.2891
15836SOL    HW148086   1.518   3.064   9.686  0.5634 -1.3596 -1.0842
15836SOL    HW248087   1.561   3.087   9.830  0.2680  0.6218 -1.2758
15837SOL     OW48088   7.894   9.909   5.443  0.4467 -0.6296  0.9656
15837SOL    HW148089   7.930   9.997   5.451 -1.2320  0.0852  1.1848
15837SOL    HW248090   7.924   9.863   5.521  1.4123 -0.2891  0.8052
15838SOL     OW48091   5.047   6.677   8.964  0.3968  0.0148  0.1916
15838SOL    HW148092   4.965   6.666   8.916  0.3954  0.4354  0.0929
15838SOL    HW248093   5.052   6.771   8.981  0.1400 -0.1727  1.4611
15839SOL     OW48094   9.234   5.105   9.927 -0.1589 -0.4069  0.6878
15839SOL    HW148095   9.146   5.142   9.923  0.5485  1.3172 -2.6948
15839SOL    HW248096   9.237   5.042   9.854  1.5703  0.0803  0.2929
15840SOL     OW48097   4.742   3.283   7.174 -0.9516  0.0773  0.0719
15840SOL    HW148098   4.738   3.282   7.269 -0.4480 -0.3505  0.0955
15840SOL    HW248099   4.764   3.193   7.150 -2.6538 -0.2037 -0.5414
15841SOL     OW48100   4.108   6.251   4.940  0.0823  0.2420 -0.0459
15841SOL    HW148101   4.140   6.268   5.028 -1.6999  1.8830  0.3578
15841SOL    HW248102   4.124   6.332   4.892  0.6330 -0.4841 -1.1226
15842SOL     OW48103   1.240   6.042   2.714  0.0190 -0.4791 -0.3293
15842SOL    HW148104   1.299   6.116   2.725 -0.8298  0.4220 -1.5175
15842SOL    HW248105   1.241   6.025   2.619 -0.8747 -1.0663 -0.2459
15843SOL     OW48106   5.228   1.408   9.143  0.0681 -0.2546  0.3478
15843SOL    HW148107   5.251   1.374   9.229 -1.2151 -1.4954  0.2316
15843SOL    HW248108   5.223   1.503   9.155 -0.7073 -0.4584  1.7921
15844SOL     OW48109   4.882   0.308   2.449 -0.0656 -0.0583  0.2035
15844SOL    HW148110   4.862   0.327   2.541  0.5797  1.3140  0.0850
15844SOL    HW248111   4.977   0.315   2.444 -0.2511  2.9706 -1.1527
15845SOL     OW48112   2.603   2.176   4.543  0.3324  0.0232  0.2135
15845SOL    HW148113   2.673   2.238   4.564  0.4416  0.1215 -0.4286
15845SOL    HW248114   2.607   2.110   4.613  0.2736  0.6849  0.8540
15846SOL     OW48115   5.665   0.661   2.826 -0.8529  0.2948  0.0331
15846SOL    HW148116   5.607   0.589   2.804 -0.1266 -0.2768 -0.0379
15846SOL    HW248117   5.753   0.622   2.829 -0.6639  0.7630  1.9041
15847SOL     OW48118   6.430   1.449   5.351  0.0716  0.0822 -0.1650
15847SOL    HW148119   6.408   1.414   5.438 -0.9899  2.1153  0.4386
15847SOL    HW248120   6.410   1.378   5.291  0.1924 -1.1494  1.1931
15848SOL     OW48121   3.244   9.896   5.001  0.0213 -0.4170 -0.1741
15848SOL    HW148122   3.277   9.806   5.001 -0.4484 -0.5910  0.0417
15848SOL    HW248123   3.149   9.887   5.004 -0.0135  0.0951  0.4385
15849SOL     OW48124   8.690   1.194   2.053 -0.0874 -0.3584  0.2781
15849SOL    HW148125   8.647   1.185   2.139 -1.7530  1.3288 -0.3111
15849SOL    HW248126   8.620   1.175   1.990  1.3798 -2.7314 -0.7917
15850SOL     OW48127   0.791   6.446   4.278 -0.2341  0.6198 -0.2933
15850SOL    HW148128   0.757   6.477   4.361 -0.2755 -2.7744  1.1145
15850SOL    HW248129   0.883   6.472   4.278 -0.4966  1.5789  0.3005
15851SOL     OW48130   9.257   1.169   2.006  0.0151 -0.8908  0.0795
15851SOL    HW148131   9.232   1.184   2.097 -0.7474 -2.0033  0.0831
15851SOL    HW248132   9.350   1.190   2.003 -0.0100 -0.5725  1.0475
15852SOL     OW48133   3.326   2.028   2.910 -0.4061 -0.5037 -0.0795
15852SOL    HW148134   3.407   1.979   2.927 -0.2244 -0.1330  0.1437
15852SOL    HW248135   3.280   2.027   2.994 -0.2060  0.0593  0.0384
15853SOL     OW48136   7.640   4.555   2.631 -0.7018  0.7344  0.4015
15853SOL    HW148137   7.732   4.572   2.650 -0.6168  1.1054 -0.3288
15853SOL    HW248138   7.634   4.460   2.621 -0.4508  0.6869  0.6835
15854SOL     OW48139   7.809   5.204   8.964  0.5104 -0.4591 -0.0135
15854SOL    HW148140   7.731   5.237   9.009 -0.3679 -0.4454 -1.4721
15854SOL    HW248141   7.881   5.257   8.998 -0.5643  1.5735 -0.7501
15855SOL     OW48142   3.632   0.137   2.839  0.6173  0.0093 -0.1350
15855SOL    HW148143   3.724   0.161   2.834  0.5638  0.5574  0.9673
15855SOL    HW248144   3.623   0.094   2.924 -0.5221  1.9148  0.7977
15856SOL     OW48145   7.748   8.450   2.648  1.0905  0.0933 -0.1497
15856SOL    HW148146   7.691   8.377   2.623 -1.8454  2.1689 -0.0155
15856SOL    HW248147   7.758   8.441   2.742  2.4152 -1.1800 -0.3759
15857SOL     OW48148   4.329   8.281   2.283 -0.0341 -0.0057  0.1786
15857SOL    HW148149   4.352   8.367   2.317 -0.2376  0.3808 -0.6281
15857SOL    HW248150   4.277   8.300   2.204  1.9603 -0.8286 -1.4247
15858SOL     OW48151   0.101   7.920   3.462  0.5465 -0.2664 -0.2586
15858SOL    HW148152   0.184   7.873   3.461 -0.3859 -1.9783 -0.1385
15858SOL    HW248153   0.056   7.892   3.383 -0.1305  0.2574 -0.0704
15859SOL     OW48154   3.525   6.210   8.532 -0.6552 -0.2098 -0.2490
15859SOL    HW148155   3.506   6.118   8.515  0.9890 -0.9371  1.4564
15859SOL    HW248156   3.612   6.210   8.571 -0.6217  2.0820 -0.1543
15860SOL     OW48157   5.776   3.635   2.375  0.0810 -0.3966 -0.3622
15860SOL    HW148158   5.716   3.652   2.448 -1.3187 -3.6323 -0.5486
15860SOL    HW248159   5.724   3.653   2.296 -0.0169 -1.3279 -0.5239
15861SOL     OW48160   8.136   8.005   5.623  0.4481 -0.2767  0.2737
15861SOL    HW148161   8.169   8.064   5.555 -0.1715  0.3836  0.5290
15861SOL    HW248162   8.201   7.936   5.629 -0.1292 -1.0922 -1.9456
15862SOL     OW48163   4.067   4.345   3.629  0.2957 -0.3403 -0.1898
15862SOL    HW148164   4.046   4.438   3.634 -0.3724 -0.4781 -0.3310
15862SOL    HW248165   4.008   4.304   3.692 -1.2949 -0.9623 -1.9937
15863SOL     OW48166   0.357   8.643   8.963  0.7906 -0.2476  0.0525
15863SOL    HW148167   0.273   8.604   8.939  0.7077 -0.2024  0.2667
15863SOL    HW248168   0.422   8.577   8.938  0.6294 -0.6743  0.7304
15864SOL     OW48169   7.624   1.304   9.338 -0.1261  0.1469  0.2060
15864SOL    HW148170   7.670   1.362   9.278  0.4608  1.1348  1.5559
15864SOL    HW248171   7.533   1.333   9.334 -0.3461 -0.6565 -1.1533
15865SOL     OW48172   0.650   1.089   3.656  0.0273  0.0053 -0.5685
15865SOL    HW148173   0.648   1.170   3.604 -0.1038 -1.3848 -2.8812
15865SOL    HW248174   0.615   1.022   3.597  1.8893 -2.1303  0.5844
15866SOL     OW48175   0.665   3.327   4.052  0.5393 -0.1103 -0.6115
15866SOL    HW148176   0.616   3.255   4.090 -0.5852 -0.3631 -2.4466
15866SOL    HW248177   0.715   3.287   3.981  1.4712  0.5918 -0.3686
15867SOL     OW48178   5.140   5.768   1.677 -0.0612 -0.1672  0.3190
15867SOL    HW148179   5.054   5.731   1.698  0.7057 -1.8776  0.5714
15867SOL    HW248180   5.203   5.707   1.716  1.2796  1.6767  1.1827
15868SOL     OW48181   7.476   0.706   0.958 -0.0876 -0.0562 -0.7137
15868SOL    HW148182   7.384   0.682   0.955 -0.5415  1.1423  1.2611
15868SOL    HW248183   7.501   0.694   1.050  2.1948 -1.8751 -1.4793
15869SOL     OW48184   0.368   4.585   7.399  0.5594 -0.2945 -0.1400
15869SOL    HW148185   0.453   4.571   7.442 -0.6962 -1.7990  2.0429
15869SOL    HW248186   0.348   4.677   7.414  0.9834 -0.3717  0.9806
15870SOL     OW48187   1.389   3.156   3.593 -0.6880 -0.1237 -0.1817
15870SOL    HW148188   1.339   3.235   3.616  0.0138 -0.0494  1.2278
15870SOL    HW248189   1.415   3.169   3.502 -1.7232  0.6386 -0.3897
15871SOL     OW48190   8.584   0.663   6.012 -0.0361  0.1648 -0.3406
15871SOL    HW148191   8.550   0.731   5.955 -0.4021  0.6594  0.4424
15871SOL    HW248192   8.676   0.687   6.027 -0.2917  0.7664  0.3136
15872SOL     OW48193   0.416   6.116   2.422  0.0953  0.0596  0.7474
15872SOL    HW148194   0.368   6.167   2.488 -0.2004 -1.2172  1.5534
15872SOL    HW248195   0.444   6.037   2.468 -1.0555 -1.3934 -0.8949
15873SOL     OW48196   9.940   0.808   5.270  0.2810  0.2087 -0.7215
15873SOL    HW148197   9.923   0.747   5.198 -0.5514  0.1396 -0.4780
15873SOL    HW248198   9.981   0.884   5.227  0.6771 -0.2268 -1.1256
15874SOL     OW48199   4.459   0.128   2.895  0.0957  0.3292 -0.3272
15874SOL    HW148200   4.536   0.073   2.902 -1.0440 -1.8828 -3.1996
15874SOL    HW248201   4.489   0.207   2.851  0.5822 -1.1863 -2.9121
15875SOL     OW48202   5.853   9.538   8.738  0.0016 -0.1657 -0.7657
15875SOL    HW148203   5.801   9.459   8.720  0.9618 -0.6694 -1.3551
15875SOL    HW248204   5.807   9.608   8.691 -0.4494 -0.4998 -0.8326
15876SOL     OW48205   1.913   6.728   0.118 -0.5952  0.0195 -0.1783
15876SOL    HW148206   1.918   6.789   0.193 -0.9497  1.1830 -1.0750
15876SOL    HW248207   1.849   6.663   0.145  0.4513 -0.5016  1.1690
15877SOL     OW48208   3.035   9.174   8.183  0.1757 -0.0459  0.1472
15877SOL    HW148209   3.083   9.191   8.264  2.1988 -1.0760 -0.7711
15877SOL    HW248210   3.017   9.260   8.147 -0.6990  0.4277  1.6114
15878SOL     OW48211   9.604   2.977   0.760 -0.4631 -0.3682  0.6644
15878SOL    HW148212   9.603   3.071   0.742  1.1782 -0.2822  0.9187
15878SOL    HW248213   9.691   2.948   0.733 -0.5261 -1.5942  1.6908
15879SOL     OW48214   1.739   8.496   9.581 -0.1594  0.0134 -0.3913
15879SOL    HW148215   1.708   8.441   9.654 -0.9509  1.5423  0.4740
15879SOL    HW248216   1.835   8.493   9.589 -0.2245 -0.0828  0.5430
15880SOL     OW48217   0.274   8.405   3.884  0.2384  0.2179  0.2070
15880SOL    HW148218   0.280   8.489   3.839  0.5485 -0.3312 -0.8231
15880SOL    HW248219   0.181   8.392   3.900 -0.0073 -0.0989 -1.3490
15881SOL     OW48220   2.343   3.074   5.278  0.1976 -0.0573 -0.2009
15881SOL    HW148221   2.273   3.139   5.283 -0.9562 -1.2900  0.5963
15881SOL    HW248222   2.390   3.083   5.362 -0.2421 -0.5396  0.1006
15882SOL     OW48223   2.166   9.446   1.963  0.3026 -0.4031 -0.1086
15882SOL    HW148224   2.190   9.537   1.947  1.1934  0.1287  3.3377
15882SOL    HW248225   2.071   9.447   1.971  0.3978  0.5769  1.2946
15883SOL     OW48226   3.144   0.623   2.377 -0.7524 -0.2116 -0.3941
15883SOL    HW148227   3.216   0.656   2.430 -2.8332  4.0268  0.2283
15883SOL    HW248228   3.085   0.581   2.439 -0.3772 -0.7242 -0.3789
15884SOL     OW48229   2.864   8.534   7.144  0.3003  0.0741 -0.0155
15884SOL    HW148230   2.882   8.458   7.088  0.8519 -0.6268  1.0625
15884SOL    HW248231   2.773   8.522   7.172  0.0453  0.3907 -0.6939
15885SOL     OW48232   6.922   9.315   2.456 -0.0198  0.7035 -0.6289
15885SOL    HW148233   6.993   9.279   2.510 -0.9837  0.8253  0.7388
15885SOL    HW248234   6.842   9.289   2.500 -0.8239  1.5441 -1.5402
15886SOL     OW48235   5.120   5.376   5.520 -0.0609 -0.7069  0.4649
15886SOL    HW148236   5.196   5.317   5.526  0.1942 -0.6655 -1.5133
15886SOL    HW248237   5.134   5.440   5.589  2.1613 -0.2553 -0.3089
15887SOL     OW48238   2.334   7.771   5.775  0.2068  0.2401  0.3338
15887SOL    HW148239   2.348   7.678   5.757  0.8543  0.6770 -1.7595
15887SOL    HW248240   2.256   7.794   5.725 -0.1143  0.7732  1.0664
15888SOL     OW48241   6.223   7.418   6.228 -0.5561 -0.0020  0.2562
15888SOL    HW148242   6.149   7.477   6.241  0.1633  1.1647 -0.6273
15888SOL    HW248243   6.273   7.458   6.156  0.4399 -1.2308  0.2227
15889SOL     OW48244   2.758   0.148   4.071  0.0647 -0.0641  0.2024
15889SOL    HW148245   2.789   0.152   3.981  0.8448  1.1818  0.4975
15889SOL    HW248246   2.683   0.088   4.068  0.6590 -0.7944 -1.0828
15890SOL     OW48247   4.225   6.441   9.014  0.0246  0.5268 -0.6399
15890SOL    HW148248   4.218   6.365   8.956 -0.1489  0.4195 -0.4783
15890SOL    HW248249   4.276   6.410   9.088 -0.0347  0.5736 -0.5795
15891SOL     OW48250   1.728   5.638   0.984  0.3354 -0.3886 -0.5537
15891SOL    HW148251   1.796   5.642   0.917 -1.1677  1.0571 -2.1068
15891SOL    HW248252   1.703   5.545   0.987  0.8657 -0.5754 -1.5427
15892SOL     OW48253   5.222   6.474   3.073  0.1105  0.3278  0.1419
15892SOL    HW148254   5.198   6.400   3.128  0.1338 -0.0975 -0.4163
15892SOL    HW248255   5.287   6.439   3.012 -1.3649  0.2642 -1.4692
15893SOL     OW48256   0.102   3.516   5.793 -0.0508  0.3193 -0.5272
15893SOL    HW148257   0.152   3.540   5.870 -1.2949 -1.5089  0.9407
15893SOL    HW248258   0.059   3.433   5.816 -1.2297  0.1813 -2.8321
15894SOL     OW48259   7.528   5.769   0.876  0.2206 -0.2495  0.1072
15894SOL    HW148260   7.529   5.839   0.811  0.0396 -0.7250 -0.4098
15894SOL    HW248261   7.447   5.783   0.925 -0.2246 -0.5758 -0.5241
15895SOL     OW48262   3.349   3.612   1.238 -0.1541 -0.5935 -0.5410
15895SOL    HW148263   3.383   3.665   1.309 -2.7664  0.6241 -0.0797
15895SOL    HW248264   3.425   3.566   1.204  1.6771  1.0192  1.1196
15896SOL     OW48265   9.291   0.918   9.578 -0.7298  0.3811 -0.3383
15896SOL    HW148266   9.358   0.916   9.510 -0.8063  1.1562 -0.4443
15896SOL    HW248267   9.339   0.928   9.660 -0.6607 -0.1722 -0.3043
15897SOL     OW48268   2.772   7.821   7.474 -0.4245  0.9994  0.7297
15897SOL    HW148269   2.786   7.835   7.380  1.8166  0.7676  0.9737
15897SOL    HW248270   2.681   7.792   7.480 -0.2276 -0.3980 -1.5600
15898SOL     OW48271   8.440   8.533   8.544  0.2582 -0.0473 -0.1596
15898SOL    HW148272   8.531   8.539   8.516  0.4927  1.3693  0.7735
15898SOL    HW248273   8.443   8.487   8.628 -0.1199 -1.6706 -0.9961
15899SOL     OW48274   0.118   3.490   4.698 -0.3415 -0.5566 -0.1884
15899SOL    HW148275   0.071   3.540   4.764  0.4800  0.2852 -0.2238
15899SOL    HW248276   0.147   3.411   4.744 -1.7332 -1.0875 -0.1613
15900SOL     OW48277   9.247   4.242   3.727  0.3003  0.1489  0.3030
15900SOL    HW148278   9.220   4.251   3.818 -1.0217 -0.4648 -0.0123
15900SOL    HW248279   9.229   4.328   3.688 -1.3204 -0.2621  0.0857
15901SOL     OW48280   3.447   3.096   6.011 -0.3095  0.1748  0.5383
15901SOL    HW148281   3.428   3.048   5.931  0.6870  1.3285 -0.4355
15901SOL    HW248282   3.398   3.050   6.079  1.3420 -2.8015 -0.1204
15902SOL     OW48283   3.919   4.133   5.597 -0.5887  0.5003  0.0744
15902SOL    HW148284   3.831   4.165   5.615 -0.3124  0.3806  1.7567
15902SOL    HW248285   3.929   4.056   5.653  0.2016 -0.1611 -0.9334
15903SOL     OW48286   5.266   3.846   4.883 -0.2961 -0.0358 -0.1814
15903SOL    HW148287   5.200   3.908   4.915 -0.3684 -0.8468  1.3083
15903SOL    HW248288   5.350   3.884   4.909 -0.2980 -0.1314 -0.0332
15904SOL     OW48289   6.549   0.947   6.762  0.1909  0.0429  0.4605
15904SOL    HW148290   6.551   1.006   6.687  2.0546  0.6691  0.9523
15904SOL    HW248291   6.487   0.987   6.823  0.0071  0.4767 -0.0053
15905SOL     OW48292   0.177   4.191   8.897  0.1155 -0.4547 -0.1221
15905SOL    HW148293   0.123   4.152   8.966 -0.2136 -0.1567 -0.2138
15905SOL    HW248294   0.151   4.283   8.895  1.1477 -0.1367  0.3338
15906SOL     OW48295   5.237   0.679   1.597  0.2811  0.4512  0.1035
15906SOL    HW148296   5.221   0.687   1.691 -3.1465 -0.7231 -0.2465
15906SOL    HW248297   5.207   0.762   1.560 -4.5839 -1.1702 -0.3740
15907SOL     OW48298   8.655   5.785   3.526 -0.5490 -0.5083 -0.2652
15907SOL    HW148299   8.710   5.822   3.456 -0.1068 -1.5489 -0.4799
15907SOL    HW248300   8.716   5.766   3.597 -1.0468  0.8895  0.5845
15908SOL     OW48301   8.088   3.655   2.636  0.4151  0.4882 -0.5631
15908SOL    HW148302   8.078   3.560   2.638  3.1201  0.1421  0.3888
15908SOL    HW248303   8.135   3.677   2.716  1.0140  2.4668 -1.3734
15909SOL     OW48304   0.872   1.258   8.702  0.1638 -0.2595  0.2439
15909SOL    HW148305   0.876   1.273   8.796  0.5192 -1.5020  0.4532
15909SOL    HW248306   0.962   1.272   8.672 -0.0904  0.8397 -0.0463
15910SOL     OW48307   7.320   9.392   9.579 -0.4272 -0.2490 -0.4390
15910SOL    HW148308   7.275   9.318   9.620 -2.1455 -0.2397 -2.2087
15910SOL    HW248309   7.396   9.354   9.536  0.7704 -0.4152  1.6778
15911SOL     OW48310   4.291   8.593   7.159 -0.7865  0.1387 -0.0942
15911SOL    HW148311   4.269   8.649   7.233 -1.7243 -0.7810  0.3437
15911SOL    HW248312   4.383   8.612   7.141  0.0566 -1.0004  2.5363
15912SOL     OW48313   1.428   5.484   2.477  0.5818 -0.2660  0.4194
15912SOL    HW148314   1.400   5.487   2.385  0.9065 -0.6894  0.3032
15912SOL    HW248315   1.419   5.574   2.508  1.9914  0.2100 -0.4850
15913SOL     OW48316   8.770   6.615   2.936 -0.1976  0.1393  0.2652
15913SOL    HW148317   8.775   6.697   2.985 -0.6840  0.0605  0.4578
15913SOL    HW248318   8.720   6.637   2.857  4.4759  1.4420 -2.7091
15914SOL     OW48319   8.262   3.290   9.017  0.0822  0.1925 -0.4541
15914SOL    HW148320   8.239   3.350   8.946 -0.7613 -0.8408 -1.0769
15914SOL    HW248321   8.303   3.346   9.084 -1.1782  1.5401 -0.7752
15915SOL     OW48322   3.983   0.311   8.853  0.4748 -0.1584 -0.3502
15915SOL    HW148323   4.019   0.364   8.925  1.5415  0.8258 -1.5706
15915SOL    HW248324   3.987   0.221   8.886  0.7991  0.2866  0.8917
15916SOL     OW48325   4.156   2.930   2.463 -0.1019 -0.0490 -0.3441
15916SOL    HW148326   4.167   3.025   2.462 -1.2026  0.1124  0.7240
15916SOL    HW248327   4.068   2.916   2.497 -0.0318 -1.4539 -0.6752
15917SOL     OW48328   5.045   1.955   9.142 -0.0984  0.3645 -0.7333
15917SOL    HW148329   5.038   2.015   9.216  3.1464 -1.0173  0.8876
15917SOL    HW248330   5.048   2.012   9.065  0.2985  2.1084  0.5271
15918SOL     OW48331   3.929   0.640   4.612 -0.1841 -0.1143  0.0993
15918SOL    HW148332   3.878   0.577   4.662 -0.3484  0.8000  1.1405
15918SOL    HW248333   3.958   0.704   4.678  1.4332 -0.0534 -0.6325
15919SOL     OW48334   7.651   9.833   6.394  0.4324 -0.5818 -0.5505
15919SOL    HW148335   7.674   9.740   6.399 -0.2493 -0.7247 -0.0072
15919SOL    HW248336   7.660   9.866   6.483 -0.3739 -0.3770 -0.5401
15920SOL     OW48337   8.738   7.001   0.211 -0.2441  0.5703  0.1297
15920SOL    HW148338   8.729   6.907   0.225 -0.1825  0.2743 -1.6099
15920SOL    HW248339   8.832   7.018   0.222 -0.1843  0.3415 -0.0226
15921SOL     OW48340   3.156   7.959   2.680  0.3493  0.1844 -0.4304
15921SOL    HW148341   3.097   7.889   2.651  0.9041 -0.3681 -0.2468
15921SOL    HW248342   3.179   7.936   2.770  2.6068 -0.8395 -1.2213
15922SOL     OW48343   4.081   6.060   6.431  0.2760  0.3710  0.1953
15922SOL    HW148344   3.998   6.049   6.477  0.7108 -0.0030  0.9052
15922SOL    HW248345   4.091   6.155   6.421  0.6517  0.5180  1.7764
15923SOL     OW48346   3.819   4.955   3.608 -0.4095 -0.1599 -0.5614
15923SOL    HW148347   3.817   5.047   3.634  1.4784  0.1273 -1.2658
15923SOL    HW248348   3.837   4.908   3.690 -0.6683  0.1667 -0.3160
15924SOL     OW48349   2.946   6.077   0.027 -0.0173 -0.2019  0.0924
15924SOL    HW148350   3.028   6.029   0.037 -0.5350 -0.8745  1.2477
15924SOL    HW248351   2.898   6.028  -0.040  0.6701  0.4456 -0.9153
15925SOL     OW48352   8.654   2.533   7.178  0.2498 -0.0864  0.4519
15925SOL    HW148353   8.628   2.607   7.122  0.0130  0.0726  0.7701
15925SOL    HW248354   8.715   2.571   7.241 -0.3617 -0.0284  1.0157
15926SOL     OW48355   1.076   7.595   6.327 -0.6424 -0.2829  0.4994
15926SOL    HW148356   1.066   7.672   6.383 -1.7075 -0.0925  0.0850
15926SOL    HW248357   1.170   7.580   6.323 -0.2291  2.0594 -0.8184
15927SOL     OW48358   7.237  10.012   1.927 -0.3818  0.5621  0.3234
15927SOL    HW148359   7.301   9.943   1.912 -0.3568  0.7502 -0.5298
15927SOL    HW248360   7.153   9.967   1.930 -0.1553  0.2212  2.2601
15928SOL     OW48361   7.540   9.345   5.430  0.6132 -0.1376 -0.0399
15928SOL    HW148362   7.621   9.364   5.382  1.0857  0.5420  0.9925
15928SOL    HW248363   7.534   9.250   5.428  2.8920 -0.4345  2.1041
15929SOL     OW48364   6.870   9.578   8.250 -0.0440  0.0411  0.2568
15929SOL    HW148365   6.928   9.551   8.322  0.3784 -0.2890 -0.2013
15929SOL    HW248366   6.826   9.656   8.283 -0.6769 -0.7260  1.3004
15930SOL     OW48367   5.151   5.841   3.891 -0.9624 -0.0107  0.5542
15930SOL    HW148368   5.104   5.775   3.942  0.1105 -2.3208 -1.2445
15930SOL    HW248369   5.110   5.838   3.804  0.0125  0.6843  0.0446
15931SOL     OW48370   2.898   9.266   6.714  0.0182 -0.5735 -0.0482
15931SOL    HW148371   2.847   9.333   6.667  0.5897 -1.2266 -1.6698
15931SOL    HW248372   2.916   9.306   6.799  1.0602  1.7211 -1.2442
15932SOL     OW48373   5.885   4.981   0.617 -1.4504 -0.1268  0.0429
15932SOL    HW148374   5.882   5.033   0.537 -0.9043 -1.2426 -0.7342
15932SOL    HW248375   5.803   4.931   0.616 -2.2274  1.0850  1.0647
15933SOL     OW48376   5.964   6.131   2.907 -0.1099 -0.1333  0.0383
15933SOL    HW148377   5.901   6.152   2.838  0.5914  0.2237 -0.5037
15933SOL    HW248378   5.911   6.090   2.976 -0.7596 -0.8931 -0.8789
15934SOL     OW48379   6.347   3.566   7.010  0.1311  0.1205 -0.1528
15934SOL    HW148380   6.279   3.518   6.961  1.3007 -1.1278 -0.6008
15934SOL    HW248381   6.337   3.656   6.980 -2.2248  0.2505  0.8241
15935SOL     OW48382   1.956   7.157   6.282 -0.1369 -0.2440 -0.1706
15935SOL    HW148383   2.005   7.204   6.215  0.0372 -1.3753 -0.8637
15935SOL    HW248384   1.914   7.226   6.334  1.3602  0.7071 -0.1842
15936SOL     OW48385   2.616   0.268   0.985 -0.6366  0.9904 -0.5157
15936SOL    HW148386   2.606   0.215   1.064 -0.7927  1.8634  0.0571
15936SOL    HW248387   2.533   0.313   0.975 -0.3429  1.4892 -0.7357
15937SOL     OW48388   9.035   8.687   9.319  0.0162  0.2005 -0.3587
15937SOL    HW148389   9.129   8.705   9.313  0.0381  0.0621 -0.4745
15937SOL    HW248390   8.993   8.762   9.277  0.1054 -0.0311 -0.8784
15938SOL     OW48391   3.310   6.896   9.525 -0.3636  0.2821  0.0205
15938SOL    HW148392   3.380   6.948   9.486  1.5421 -2.0912  0.0568
15938SOL    HW248393   3.349   6.810   9.539 -3.4881 -1.3667 -0.5433
15939SOL     OW48394   8.738   6.179   0.528 -0.1045 -0.0924 -0.1855
15939SOL    HW148395   8.749   6.269   0.559  1.1759 -0.5973  0.8868
15939SOL    HW248396   8.645   6.174   0.504 -0.1490  1.5787 -0.5170
15940SOL     OW48397   1.765   5.647   7.765  0.1520 -0.3538 -0.0968
15940SOL    HW148398   1.850   5.684   7.790 -0.1471  0.1350  0.2159
15940SOL    HW248399   1.727   5.617   7.847  0.3697 -1.3295 -0.3462
15941SOL     OW48400   7.312   3.921   4.636  0.2715 -0.0708 -0.5607
15941SOL    HW148401   7.300   3.983   4.564 -1.2381  0.5298  0.1534
15941SOL    HW248402   7.402   3.934   4.664  0.2218  1.2846 -0.9238
15942SOL     OW48403   0.445   5.647   0.958  0.2777  0.6235  0.0919
15942SOL    HW148404   0.472   5.581   1.022 -0.3145 -0.9612 -1.2053
15942SOL    HW248405   0.368   5.609   0.915  0.1989  1.9591 -1.0240
15943SOL     OW48406   6.708   1.698   1.331  0.1495  0.2683 -0.2663
15943SOL    HW148407   6.755   1.725   1.409  1.6597  0.3358 -1.1651
15943SOL    HW248408   6.648   1.629   1.361 -0.3700  1.3092  1.1884
15944SOL     OW48409   6.711   4.656   4.248  0.2802  0.2440  0.5864
15944SOL    HW148410   6.744   4.708   4.175 -1.9769 -0.7038 -1.2704
15944SOL    HW248411   6.638   4.707   4.283  0.6715  0.1919  1.5174
15945SOL     OW48412   9.180   5.306   5.583 -0.3096  0.8305 -0.1776
15945SOL    HW148413   9.272   5.329   5.598 -0.1775  1.7995 -2.1569
15945SOL    HW248414   9.149   5.277   5.669  1.9466  0.0294  0.4617
15946SOL     OW48415   3.283   1.653   3.467 -0.0385 -0.4160 -0.4822
15946SOL    HW148416   3.282   1.589   3.538  0.1358 -1.9682 -1.8131
15946SOL    HW248417   3.376   1.670   3.451 -0.0817  0.1041 -0.2180
15947SOL     OW48418   9.739   0.704   2.842  0.1675 -0.6601 -0.4218
15947SOL    HW148419   9.682   0.637   2.880 -0.3888 -0.6848 -1.2530
15947SOL    HW248420   9.827   0.669   2.853 -0.1124 -1.5275 -0.7941
15948SOL     OW48421   0.376   7.461   8.367 -0.2844  0.5590 -0.3545
15948SOL    HW148422   0.310   7.525   8.340 -1.2169 -1.0599 -2.1112
15948SOL    HW248423   0.459   7.507   8.358 -1.0010  1.9325 -0.2813
15949SOL     OW48424   2.909   4.069   2.201 -0.0961 -0.0665  0.7650
15949SOL    HW148425   2.924   4.032   2.288 -0.2952  0.4538  1.0280
15949SOL    HW248426   2.842   4.013   2.162 -0.7512  0.2897  1.3434
15950SOL     OW48427   0.653   5.668   8.400 -0.6618  0.2121  0.1935
15950SOL    HW148428   0.714   5.621   8.457 -0.2155 -0.7561 -1.0326
15950SOL    HW248429   0.569   5.662   8.446 -0.2382 -0.1594  0.9515
15951SOL     OW48430   1.301   8.826   3.789 -0.0757 -0.0214  0.3079
15951SOL    HW148431   1.314   8.912   3.829  0.7390 -0.1119  0.2417
15951SOL    HW248432   1.343   8.833   3.703 -0.4105 -0.3429  0.1144
15952SOL     OW48433   8.845   8.418   6.825  0.7514  0.9085 -0.1583
15952SOL    HW148434   8.760   8.376   6.828  1.9990 -1.8312 -0.3596
15952SOL    HW248435   8.857   8.453   6.914  1.0027 -2.2332  1.1819
15953SOL     OW48436   6.391   3.995   1.463  0.0171  0.5701  0.2875
15953SOL    HW148437   6.484   3.970   1.464 -0.5498 -1.8720 -0.4325
15953SOL    HW248438   6.345   3.911   1.464 -2.2310  1.7477  2.1006
15954SOL     OW48439   1.864   7.289   5.914 -0.6309 -0.1778  0.0030
15954SOL    HW148440   1.845   7.236   5.837  2.2061 -1.1450 -0.1549
15954SOL    HW248441   1.905   7.368   5.880 -0.1139 -0.2431  0.4569
15955SOL     OW48442   2.549   2.950   0.066 -0.0249  0.6251 -0.5449
15955SOL    HW148443   2.617   2.991   0.013  0.4145 -0.5401 -0.9133
15955SOL    HW248444   2.595   2.882   0.116 -0.7006  0.6523  0.1369
15956SOL     OW48445   3.091   1.935   8.029  0.1616 -0.2925 -0.1552
15956SOL    HW148446   3.091   1.872   8.101  0.9402  0.0410  0.1526
15956SOL    HW248447   3.125   2.015   8.068 -2.5064  0.9060 -0.0760
15957SOL     OW48448   5.549   8.517   0.110  0.4872 -1.0445 -0.1439
15957SOL    HW148449   5.608   8.480   0.045 -0.3408 -0.8521 -1.0174
15957SOL    HW248450   5.468   8.468   0.100 -0.5236  0.7338 -1.1048
15958SOL     OW48451   2.283   6.069   5.866 -0.4589  0.1408 -0.3101
15958SOL    HW148452   2.317   6.092   5.779 -0.4838 -0.2754 -0.4303
15958SOL    HW248453   2.250   6.152   5.901  2.0098  0.9030  0.4349
15959SOL     OW48454   1.278   9.556   1.004 -0.5556 -0.2574  0.0172
15959SOL    HW148455   1.344   9.579   1.069 -0.8568  0.4334  0.0895
15959SOL    HW248456   1.314   9.588   0.921 -1.2866  1.1928  0.2156
15960SOL     OW48457   3.572   8.933   2.882 -0.2546 -0.6966  1.0325
15960SOL    HW148458   3.635   8.866   2.855  1.4204 -0.1183  3.1596
15960SOL    HW248459   3.561   8.919   2.976  1.2092  2.7170  1.8743
15961SOL     OW48460   5.918   6.384   3.512 -0.6415  0.8267  0.3986
15961SOL    HW148461   5.865   6.304   3.510 -0.9288  0.9062  2.5544
15961SOL    HW248462   5.855   6.455   3.503 -0.2785  0.8907 -2.7682
15962SOL     OW48463   2.090   3.875   3.931  0.3311  0.4338 -0.0898
15962SOL    HW148464   2.086   3.907   4.021 -1.5750  0.4104 -0.1301
15962SOL    HW248465   2.018   3.919   3.886 -0.1628 -1.2305 -1.0276
15963SOL     OW48466   7.014   0.039   5.863  0.1127 -0.1554 -0.1843
15963SOL    HW148467   6.989   0.038   5.770 -0.3731  1.1413 -0.0900
15963SOL    HW248468   6.957  -0.027   5.903  0.5406 -0.9494 -0.8415
15964SOL     OW48469   2.624   3.958   5.109 -0.4180 -0.1721 -0.2826
15964SOL    HW148470   2.672   3.897   5.164  0.2078  1.1400  0.6681
15964SOL    HW248471   2.574   4.012   5.170 -1.4877 -0.1378 -1.1433
15965SOL     OW48472   3.054   0.762   2.033  0.5463 -0.0573  0.1480
15965SOL    HW148473   2.966   0.733   2.012  0.3655  0.2719  0.4490
15965SOL    HW248474   3.084   0.703   2.102  0.3222  0.2251  0.4905
15966SOL     OW48475   7.831   3.909   3.171 -0.2427 -0.4729  0.8930
15966SOL    HW148476   7.828   3.818   3.139 -0.0527  0.0828 -0.8327
15966SOL    HW248477   7.899   3.950   3.118 -2.1832  1.3702 -0.3609
15967SOL     OW48478   0.504   8.371   2.098  0.4459  0.3707  0.5049
15967SOL    HW148479   0.482   8.308   2.167  1.9049  1.2028  1.7958
15967SOL    HW248480   0.423   8.420   2.084  0.1768  0.3293  1.8110
15968SOL     OW48481   7.141   9.568   2.626  0.2037  0.1236 -0.4170
15968SOL    HW148482   7.198   9.640   2.601  0.7412 -0.0457  0.2936
15968SOL    HW248483   7.129   9.518   2.546  0.8575  0.2977 -0.6300
15969SOL     OW48484   7.934   0.949   3.712 -0.8450  0.0458 -0.4062
15969SOL    HW148485   7.986   0.990   3.781  0.2980 -0.6112 -0.8407
15969SOL    HW248486   7.992   0.883   3.675 -1.5117  0.2270 -1.8386
15970SOL     OW48487   3.786   3.446   3.660  0.3286 -0.0474 -0.9042
15970SOL    HW148488   3.784   3.368   3.605  0.0617  0.2069 -1.2659
15970SOL    HW248489   3.701   3.445   3.705  0.6920 -0.4475 -0.2171
15971SOL     OW48490   4.514   4.924   9.670  0.6518  0.0931  0.7402
15971SOL    HW148491   4.439   4.879   9.709 -1.0547  1.6184 -0.5795
15971SOL    HW248492   4.588   4.901   9.726 -0.4419 -2.8068  1.1432
15972SOL     OW48493   4.563   2.625   0.478 -0.2306 -0.1156  0.0633
15972SOL    HW148494   4.568   2.719   0.457 -0.9991  0.2253  1.3387
15972SOL    HW248495   4.584   2.582   0.395  2.2519  1.1476 -0.0606
15973SOL     OW48496   2.090   9.757   8.538 -0.8302  0.0195  0.6062
15973SOL    HW148497   2.175   9.712   8.537 -0.5755  0.4690 -1.0180
15973SOL    HW248498   2.027   9.689   8.515 -0.8642 -0.1963  1.3027
15974SOL     OW48499   6.951   2.645   5.309 -0.2072 -0.1913 -0.0700
15974SOL    HW148500   6.858   2.622   5.306 -0.4689  0.8914 -0.4872
15974SOL    HW248501   6.952   2.737   5.335  0.7193 -0.0003 -0.7572
15975SOL     OW48502   1.870   7.630   0.452 -0.1242  0.0108  0.1628
15975SOL    HW148503   1.812   7.627   0.376  0.2074 -1.3775 -0.0739
15975SOL    HW248504   1.833   7.565   0.513 -0.5247  1.2811  1.3109
15976SOL     OW48505   0.896   7.822   9.100 -1.1716  0.1632  0.5698
15976SOL    HW148506   0.843   7.854   9.028 -1.4773 -1.8716 -0.1784
15976SOL    HW248507   0.846   7.750   9.137 -0.0842 -0.1612  1.4863
15977SOL     OW48508   4.350   4.114   7.150  0.3170  0.1117 -0.0400
15977SOL    HW148509   4.266   4.143   7.115  0.9690 -0.1700 -1.9630
15977SOL    HW248510   4.415   4.174   7.112  1.0433  0.1004  1.1150
15978SOL     OW48511   7.159   7.704   5.211 -0.4343 -0.1554  0.1819
15978SOL    HW148512   7.240   7.746   5.182 -1.1916  1.4984  0.3484
15978SOL    HW248513   7.175   7.682   5.303 -0.7376  1.7975  0.7558
15979SOL     OW48514   3.627   1.097   6.907  0.2136  0.0780  0.1107
15979SOL    HW148515   3.679   1.066   6.982  0.0922  1.5506  0.8415
15979SOL    HW248516   3.623   1.192   6.919  0.5489  0.3970 -2.0192
15980SOL     OW48517   2.973   9.831   8.012 -0.3643  0.3881  0.0886
15980SOL    HW148518   2.885   9.806   8.037 -0.0652 -0.3753  0.4133
15980SOL    HW248519   2.979   9.810   7.919 -0.3427 -0.1008  0.1995
15981SOL     OW48520   6.426   5.495   3.969 -0.2282  0.1818  0.5207
15981SOL    HW148521   6.351   5.554   3.965 -1.3394 -1.2058 -1.6430
15981SOL    HW248522   6.394   5.414   3.928  1.9245 -1.0909  1.1905
15982SOL     OW48523   9.292   3.695   5.124  0.4206  0.1670 -0.4644
15982SOL    HW148524   9.235   3.749   5.179  0.9049  0.6518 -0.4276
15982SOL    HW248525   9.380   3.728   5.142  1.1803 -2.7809  2.1076
15983SOL     OW48526   6.917   5.109   7.130 -0.0258 -0.3669  0.0344
15983SOL    HW148527   6.885   5.029   7.089  1.1386 -0.1385 -1.3955
15983SOL    HW248528   6.855   5.176   7.103  0.8337 -0.1813 -1.5887
15984SOL     OW48529   4.267   0.980   0.439 -0.4708 -0.8520  0.6422
15984SOL    HW148530   4.243   0.944   0.525 -2.4168 -0.8681  0.1347
15984SOL    HW248531   4.286   1.072   0.456 -0.4683 -0.9425  1.1461
15985SOL     OW48532   9.917   1.375   3.283  0.6259  0.0678 -0.0388
15985SOL    HW148533   9.878   1.335   3.361 -2.2994 -0.2607 -1.5399
15985SOL    HW248534   9.926   1.468   3.307 -0.8946  0.1124  0.4938
15986SOL     OW48535   4.787   0.083   8.003  0.5625  0.6089  0.3846
15986SOL    HW148536   4.713   0.118   7.952  1.0187  0.1496 -0.6370
15986SOL    HW248537   4.816   0.007   7.952  2.3332  1.3319  0.2588
15987SOL     OW48538   0.037   2.586   6.378 -0.5487  0.1814 -0.2502
15987SOL    HW148539  -0.024   2.655   6.407  1.2485  0.6832  2.7797
15987SOL    HW248540   0.114   2.634   6.348 -1.0568 -0.4944 -2.9294
15988SOL     OW48541   0.297   5.859   5.829  0.1772 -0.1632 -0.5097
15988SOL    HW148542   0.281   5.787   5.768 -0.8175 -0.1701 -0.2678
15988SOL    HW248543   0.334   5.816   5.907  2.3208 -0.0461 -1.3957
15989SOL     OW48544   6.804   3.465   7.946  0.2144 -0.4354  0.6110
15989SOL    HW148545   6.835   3.405   7.878 -0.1499 -0.3736  0.3885
15989SOL    HW248546   6.773   3.407   8.016  1.7744 -0.5046  1.2869
15990SOL     OW48547   6.810   6.745   5.926  0.4860 -0.4384 -0.4257
15990SOL    HW148548   6.721   6.710   5.937  0.5176 -0.0053  1.7851
15990SOL    HW248549   6.797   6.827   5.877 -0.3430 -0.3854 -0.1422
15991SOL     OW48550   9.293   5.422   0.975 -0.1680  0.4108  0.0892
15991SOL    HW148551   9.334   5.377   0.902  0.0579  1.4070 -0.4157
15991SOL    HW248552   9.354   5.409   1.048 -0.1057 -0.0851 -0.0473
15992SOL     OW48553   0.819   7.270   2.188 -0.2570  0.0846 -0.4451
15992SOL    HW148554   0.799   7.206   2.120  1.0217 -0.8947  0.0643
15992SOL    HW248555   0.833   7.217   2.267 -2.1338  1.1980  0.7409
15993SOL     OW48556   2.319   0.224   3.429  0.3388 -0.0515 -0.0447
15993SOL    HW148557   2.311   0.162   3.502  2.3635  0.5491  0.7495
15993SOL    HW248558   2.311   0.169   3.351 -2.3570 -0.6419  0.5551
15994SOL     OW48559   1.716   9.940   9.207  0.2703 -0.4466 -0.2676
15994SOL    HW148560   1.674   9.907   9.128 -1.2961 -1.6821  1.0150
15994SOL    HW248561   1.705  10.035   9.202  0.4232 -0.4814 -1.6299
15995SOL     OW48562   0.997   9.272   0.002  0.0895 -0.1657 -0.7359
15995SOL    HW148563   1.001   9.300   0.093 -1.3335  0.7770 -0.9232
15995SOL    HW248564   1.050   9.336  -0.046  0.9037 -0.7079 -0.5749
15996SOL     OW48565   4.177   5.862   6.321 -0.6565  0.1938 -0.0836
15996SOL    HW148566   4.166   5.941   6.375  0.9653 -0.4371  1.2857
15996SOL    HW248567   4.261   5.826   6.350 -0.6999 -1.2857 -1.6700
15997SOL     OW48568   0.055   0.139   8.602  0.0184 -0.2333 -0.5127
15997SOL    HW148569   0.141   0.144   8.562  0.4100  0.4266  0.3820
15997SOL    HW248570   0.018   0.226   8.590  0.0341 -0.1097  0.3184
15998SOL     OW48571   3.746   5.355   4.082 -0.1898 -0.3255  0.5207
15998SOL    HW148572   3.824   5.331   4.032  0.1197  1.0117  0.3166
15998SOL    HW248573   3.688   5.396   4.017 -0.2315  0.4494  1.0334
15999SOL     OW48574   3.242   2.829   5.634  0.3913 -0.4899 -0.1255
15999SOL    HW148575   3.181   2.884   5.585  0.2663 -1.2156 -0.7970
15999SOL    HW248576   3.224   2.850   5.726  0.0248  0.2399 -0.3521
16000SOL     OW48577   5.286   2.981   6.390  0.4215  0.1660 -0.5781
16000SOL    HW148578   5.203   2.959   6.432  1.4868  1.2039  2.3368
16000SOL    HW248579   5.282   3.076   6.379  1.0170  0.1535 -0.9375
16001SOL     OW48580   0.262   3.042   4.356  0.6034 -0.5236  0.1570
16001SOL    HW148581   0.283   2.953   4.327 -2.1653 -1.7367  1.5524
16001SOL    HW248582   0.224   3.031   4.443  0.7428  2.1262  0.6283
16002SOL     OW48583   7.433   9.565   6.563  0.1223  0.0189 -0.6343
16002SOL    HW148584   7.420   9.614   6.482  1.4764 -0.8353 -1.3998
16002SOL    HW248585   7.526   9.541   6.563 -0.1030 -1.0026  0.5837
16003SOL     OW48586   4.031   3.142   6.166  0.0058 -0.0183 -0.5228
16003SOL    HW148587   3.953   3.167   6.117  0.6098  0.4192 -1.2719
16003SOL    HW248588   4.100   3.133   6.100  0.6074 -0.3578  0.1297
16004SOL     OW48589   4.592   8.691   3.218  0.1788 -0.1278  0.3316
16004SOL    HW148590   4.581   8.745   3.140  0.8729 -1.0121 -0.4101
16004SOL    HW248591   4.582   8.601   3.186  0.9619 -0.5271  1.1627
16005SOL     OW48592   4.812   2.109   8.154 -0.3216 -0.0579  0.2914
16005SOL    HW148593   4.804   2.175   8.085  0.6737  1.3396  1.4399
16005SOL    HW248594   4.899   2.072   8.140  0.4872  1.2309  1.5612
16006SOL     OW48595   0.968   0.028   5.543 -0.5560 -0.0614  0.6997
16006SOL    HW148596   0.882   0.067   5.558 -1.1717 -0.7359 -0.7996
16006SOL    HW248597   0.982   0.038   5.449  1.5520  1.0670  1.0768
16007SOL     OW48598   2.220   8.927   1.635 -0.4027  0.0406 -0.4003
16007SOL    HW148599   2.203   8.833   1.626 -0.2687 -0.1525  1.1683
16007SOL    HW248600   2.315   8.933   1.649 -0.2022  0.5432 -1.7580
16008SOL     OW48601   5.314   8.997   0.553  0.1607  0.1350 -0.0080
16008SOL    HW148602   5.298   9.060   0.483 -0.0581 -0.3192 -0.3712
16008SOL    HW248603   5.303   8.912   0.512 -2.9216 -0.1932  1.1744
16009SOL     OW48604   4.941   0.699   7.236 -0.0635  0.2665  0.5977
16009SOL    HW148605   5.029   0.663   7.225 -0.2527 -0.1433  0.4059
16009SOL    HW248606   4.895   0.674   7.156 -0.4139  0.3035  0.7868
16010SOL     OW48607   6.740   5.481   3.126 -0.2446 -0.2891  0.3543
16010SOL    HW148608   6.657   5.529   3.122 -0.5428 -0.8827 -1.8225
16010SOL    HW248609   6.734   5.417   3.055  0.6029 -2.8329  2.3955
16011SOL     OW48610   6.935   2.558   4.712  0.7173  0.0208 -0.0712
16011SOL    HW148611   6.890   2.601   4.785 -0.8104 -2.3434  0.4938
16011SOL    HW248612   7.024   2.544   4.743 -0.0344 -1.4128  1.6430
16012SOL     OW48613   7.938   4.159   1.926 -0.2464  0.0489 -0.1592
16012SOL    HW148614   7.899   4.245   1.940 -0.6121 -0.2236  0.5459
16012SOL    HW248615   7.951   4.154   1.831 -1.5108  0.3439 -0.3724
16013SOL     OW48616   2.733   5.790   0.709 -1.0170 -0.2754  0.1548
16013SOL    HW148617   2.821   5.800   0.675 -1.3245 -1.3163 -1.0386
16013SOL    HW248618   2.683   5.861   0.670 -0.9065 -0.2215  0.1142
16014SOL     OW48619   1.614   4.478   9.844 -0.9260 -0.6849  0.2631
16014SOL    HW148620   1.623   4.407   9.908 -0.6662 -3.6401 -2.7858
16014SOL    HW248621   1.691   4.471   9.789 -1.0384  1.8820 -0.3642
16015SOL     OW48622   9.404   0.490   1.910 -0.2067  0.2453  0.2598
16015SOL    HW148623   9.400   0.584   1.928  1.3571  0.7260 -1.5793
16015SOL    HW248624   9.396   0.483   1.815  3.4372 -1.0902 -0.1100
16016SOL     OW48625   8.290   9.809   5.870  0.1905  0.4458  0.8322
16016SOL    HW148626   8.237   9.750   5.816  0.6278  0.2280  0.6343
16016SOL    HW248627   8.232   9.883   5.888  0.2512  0.8567 -0.5279
16017SOL     OW48628   9.535   2.875   5.423  0.3124  0.7415  0.5083
16017SOL    HW148629   9.522   2.970   5.426  0.7358  0.8518 -0.5502
16017SOL    HW248630   9.461   2.839   5.471 -0.4865  1.5675 -0.0711
16018SOL     OW48631   7.557   0.240   8.011  0.0374 -0.4816 -0.0894
16018SOL    HW148632   7.651   0.231   7.994 -0.2349 -1.9813 -1.1147
16018SOL    HW248633   7.533   0.322   7.969  0.8307 -0.2305 -0.0795
16019SOL     OW48634   0.670   3.612   4.124 -0.0262 -0.3447 -0.1423
16019SOL    HW148635   0.687   3.521   4.101 -1.4627 -1.0406  1.3309
16019SOL    HW248636   0.691   3.661   4.045  1.7136 -1.8188 -0.6671
16020SOL     OW48637   8.613   7.798   0.449 -0.0733 -0.3881  0.1985
16020SOL    HW148638   8.582   7.865   0.509  0.0033 -0.6083  0.4898
16020SOL    HW248639   8.621   7.719   0.503  1.0330 -0.3231  0.1536
16021SOL     OW48640   6.605   1.084   6.224  0.0135 -0.0953 -0.0090
16021SOL    HW148641   6.661   1.020   6.270 -0.1254  0.0238  0.3299
16021SOL    HW248642   6.628   1.168   6.263 -1.2443 -0.1818  0.9920
16022SOL     OW48643   0.448   1.048   5.348  0.0234  0.2119  0.1428
16022SOL    HW148644   0.406   0.962   5.360  0.8196 -0.3476 -0.8724
16022SOL    HW248645   0.513   1.052   5.418 -0.4092  0.2472  0.5483
16023SOL     OW48646   9.825  -0.010   3.057  0.2922 -0.2652 -0.6829
16023SOL    HW148647   9.818   0.080   3.022 -1.7304  1.5725  3.7078
16023SOL    HW248648   9.752  -0.056   3.017  0.1510  0.6226 -1.5113
16024SOL     OW48649   3.282   0.572   8.305  0.1528  0.0799  0.0678
16024SOL    HW148650   3.276   0.654   8.353  0.3580 -1.4153  2.8787
16024SOL    HW248651   3.375   0.559   8.289  0.0811  0.5980 -0.8518
16025SOL     OW48652   0.848   6.709   5.845 -0.3274 -0.0953  0.1246
16025SOL    HW148653   0.770   6.736   5.893 -0.8959 -1.9568  0.3408
16025SOL    HW248654   0.826   6.622   5.811  0.6624  0.4722 -2.1481
16026SOL     OW48655   5.851   7.426   6.498 -0.1675 -1.0125 -0.0295
16026SOL    HW148656   5.898   7.353   6.539  1.7513  0.9510  1.5136
16026SOL    HW248657   5.850   7.494   6.565 -0.7638  0.8377 -1.8274
16027SOL     OW48658   2.584   1.814   7.502  0.8538  0.1176 -0.2475
16027SOL    HW148659   2.653   1.879   7.516 -0.1633  1.6570 -1.9436
16027SOL    HW248660   2.546   1.837   7.417 -2.4327 -0.0221  1.0432
16028SOL     OW48661   9.346   1.946   1.370 -0.2968  0.1685 -0.3769
16028SOL    HW148662   9.346   1.919   1.462  2.2904  0.2455 -0.2846
16028SOL    HW248663   9.278   1.892   1.329 -0.0433 -1.4115  1.1689
16029SOL     OW48664   3.471   0.985   4.607 -0.2619 -0.6123  0.0230
16029SOL    HW148665   3.497   0.919   4.671 -2.0198  0.3770  1.8970
16029SOL    HW248666   3.457   1.064   4.659 -2.8916 -0.0498 -1.3414
16030SOL     OW48667   8.787   0.224   4.491 -0.1785  0.3352  0.4248
16030SOL    HW148668   8.798   0.279   4.569  2.0333 -0.4816  0.7794
16030SOL    HW248669   8.709   0.258   4.448  0.9035  3.6215  0.7433
16031SOL     OW48670   7.898   3.721   5.698  0.2126  0.5656 -0.1162
16031SOL    HW148671   7.916   3.686   5.785  0.8718 -1.6047 -1.0660
16031SOL    HW248672   7.933   3.810   5.702  0.1558  0.5611  1.8403
16032SOL     OW48673   0.509   3.149   0.016 -0.9126  0.7620 -0.1554
16032SOL    HW148674   0.504   3.204   0.094 -2.4090 -0.5220  0.7153
16032SOL    HW248675   0.422   3.108   0.009 -0.3359 -0.3278 -1.6174
16033SOL     OW48676   2.321   5.016   8.837  0.4701  1.1933  0.2450
16033SOL    HW148677   2.311   4.922   8.852 -0.3397  1.0066 -1.2507
16033SOL    HW248678   2.281   5.057   8.913 -0.9981  0.3228 -0.0201
16034SOL     OW48679   2.844   9.191   8.901 -0.6517 -0.4968  0.0818
16034SOL    HW148680   2.790   9.270   8.898 -0.7443 -0.5021  1.1196
16034SOL    HW248681   2.796   9.127   8.848  0.8301  0.9070 -3.2776
16035SOL     OW48682   7.108   2.003   7.659 -0.2870 -0.2708 -0.2551
16035SOL    HW148683   7.112   1.912   7.689  0.0070 -1.1407 -2.7041
16035SOL    HW248684   7.189   2.042   7.690 -0.1851 -0.9781  0.3993
16036SOL     OW48685   5.570   7.237   4.455  0.4352  0.1172  0.0694
16036SOL    HW148686   5.502   7.178   4.422  0.4566 -0.0595  0.3425
16036SOL    HW248687   5.590   7.205   4.543  0.3475  0.6123  0.2736
16037SOL     OW48688   3.208   5.475   0.415  0.4438 -0.1028  0.3940
16037SOL    HW148689   3.167   5.433   0.339  1.5158  0.4378 -0.5236
16037SOL    HW248690   3.187   5.568   0.404 -1.7229 -0.3019  2.2821
16038SOL     OW48691   9.258   8.277   0.506 -0.6913  0.4726  0.2289
16038SOL    HW148692   9.319   8.330   0.558 -0.1189  1.0399 -0.9945
16038SOL    HW248693   9.238   8.331   0.430 -1.7289 -0.2398 -0.0162
16039SOL     OW48694   6.934   7.486   5.128  0.8675 -0.4888 -0.3575
16039SOL    HW148695   6.862   7.512   5.185 -0.4006 -1.4843 -1.4246
16039SOL    HW248696   7.002   7.551   5.144 -0.8758  1.4888 -0.4985
16040SOL     OW48697   1.764   8.565   2.405 -0.4514 -0.0603 -1.1394
16040SOL    HW148698   1.756   8.650   2.448  1.2668  0.0934 -1.0333
16040SOL    HW248699   1.724   8.577   2.319 -1.5543  0.3965 -0.5833
16041SOL     OW48700   3.061   6.625   4.571  0.2328 -0.1790 -0.3152
16041SOL    HW148701   3.151   6.654   4.555  0.2116 -0.3885 -0.8148
16041SOL    HW248702   3.008   6.705   4.562  0.2983 -0.1709 -0.6170
16042SOL     OW48703   4.811   9.136   1.255  0.5089  0.1173  0.1168
16042SOL    HW148704   4.721   9.110   1.277  0.5933  1.1839  2.0311
16042SOL    HW248705   4.844   9.066   1.200 -2.1280  0.6231 -2.3708
16043SOL     OW48706   8.841   3.112   3.593  0.3505 -0.2537  0.4096
16043SOL    HW148707   8.887   3.036   3.557  1.0248  0.9624 -1.4185
16043SOL    HW248708   8.775   3.134   3.527  1.5520  1.9823 -0.1250
16044SOL     OW48709   2.404   6.348   4.615 -0.0670 -0.0040 -0.4785
16044SOL    HW148710   2.472   6.412   4.595  1.0363  0.0425  2.6977
16044SOL    HW248711   2.341   6.396   4.669 -0.3437 -1.0535  0.1710
16045SOL     OW48712   2.466   0.583   6.658 -0.9776  0.6344  0.3668
16045SOL    HW148713   2.379   0.544   6.649 -0.0739 -1.0299 -2.7598
16045SOL    HW248714   2.477   0.637   6.580 -0.6780  4.3725  2.7371
16046SOL     OW48715   3.529   4.314   7.566 -0.0928  0.4016 -0.7260
16046SOL    HW148716   3.558   4.225   7.585 -2.0360 -0.0206  0.6159
16046SOL    HW248717   3.599   4.370   7.600  0.8912 -0.5872 -1.0801
16047SOL     OW48718   1.340   4.256   0.500  0.1710 -0.2050 -0.3857
16047SOL    HW148719   1.419   4.257   0.446  0.7694 -1.0205  0.4547
16047SOL    HW248720   1.309   4.165   0.496  0.7747 -0.5260  1.3916
16048SOL     OW48721   2.982   9.300   6.458 -0.4869  0.0970 -0.9840
16048SOL    HW148722   2.945   9.285   6.545 -0.3277  0.3822 -0.8682
16048SOL    HW248723   2.906   9.322   6.403 -1.0304 -2.7672 -1.5724
16049SOL     OW48724   1.770   3.942   2.891 -0.1225  0.1450  0.4033
16049SOL    HW148725   1.865   3.937   2.889 -0.0913 -1.3052  2.5799
16049SOL    HW248726   1.740   3.866   2.842 -0.1038 -0.5016  1.3668
16050SOL     OW48727   4.633   3.156   8.202 -0.2420  0.0648 -0.3811
16050SOL    HW148728   4.607   3.158   8.110 -0.9869 -0.3474 -0.1786
16050SOL    HW248729   4.686   3.235   8.213 -0.6671  0.4450 -1.0121
16051SOL     OW48730   5.483   9.832   5.219 -0.7466  0.7023 -0.3031
16051SOL    HW148731   5.441   9.758   5.264  0.7966  0.4543  0.7876
16051SOL    HW248732   5.574   9.806   5.211 -0.8383  1.0033 -3.1128
16052SOL     OW48733   6.631   5.068   1.365 -0.1625  0.2322  0.1993
16052SOL    HW148734   6.565   5.018   1.412 -0.6617  0.5705 -0.1362
16052SOL    HW248735   6.581   5.127   1.309  0.3942 -0.9981 -1.6736
16053SOL     OW48736   6.633   8.924   5.641  0.6926 -0.1408 -0.2245
16053SOL    HW148737   6.549   8.881   5.626  0.1573 -0.6631  3.3589
16053SOL    HW248738   6.693   8.853   5.664  1.4854  0.4761 -0.3176
16054SOL     OW48739   0.053   8.900   8.112 -0.4889 -0.3785  0.1346
16054SOL    HW148740   0.125   8.946   8.068 -0.7218  0.7161  0.8648
16054SOL    HW248741   0.048   8.941   8.198 -2.0612 -0.3641  0.0545
16055SOL     OW48742   4.138   9.681   6.639 -0.5660  0.3557 -0.1973
16055SOL    HW148743   4.052   9.694   6.679  0.2162  0.1498  1.6650
16055SOL    HW248744   4.139   9.589   6.614 -0.2173 -0.1756  1.6086
16056SOL     OW48745   9.464   4.847   2.205 -0.0474  0.2590  0.2536
16056SOL    HW148746   9.370   4.854   2.220 -0.0905  1.5168 -0.4315
16056SOL    HW248747   9.500   4.814   2.287 -1.3314 -2.6964 -0.2320
16057SOL     OW48748   8.729   5.347   3.674  0.1776  0.3398 -0.2955
16057SOL    HW148749   8.734   5.307   3.760  1.1468  1.4308  0.1838
16057SOL    HW248750   8.640   5.381   3.668  0.3499  0.9815  0.6226
16058SOL     OW48751   0.548   2.746   8.794  0.4647  0.3366 -0.3501
16058SOL    HW148752   0.481   2.712   8.853 -2.6609  1.8356 -2.7077
16058SOL    HW248753   0.589   2.669   8.756 -2.0646 -0.8158 -0.9708
16059SOL     OW48754   8.909   9.359   5.416 -0.7636  0.2547  0.6143
16059SOL    HW148755   8.827   9.407   5.417 -0.7092  0.4248 -0.8339
16059SOL    HW248756   8.908   9.311   5.333 -0.0325 -0.8622  1.2225
16060SOL     OW48757   3.574  10.007   3.080  0.0210 -0.2013 -0.0319
16060SOL    HW148758   3.518   9.943   3.036 -0.6174 -0.6621  1.3904
16060SOL    HW248759   3.578   9.977   3.171  0.1251  1.4906  0.5653
16061SOL     OW48760   1.038   0.445   4.795 -0.2355 -0.1191 -0.2484
16061SOL    HW148761   1.109   0.388   4.824  0.3175  1.1382  0.9999
16061SOL    HW248762   0.961   0.388   4.794 -0.1123 -0.5447  2.9181
16062SOL     OW48763   9.027   4.383   0.907  0.0530 -0.0504  0.3342
16062SOL    HW148764   8.961   4.396   0.976 -0.7290 -0.2191 -0.3711
16062SOL    HW248765   9.014   4.457   0.848  0.3675 -0.1922  0.0858
16063SOL     OW48766   6.272   3.584   4.272  0.0182  0.1809  0.3584
16063SOL    HW148767   6.262   3.645   4.345 -0.7607 -0.1939  0.5831
16063SOL    HW248768   6.278   3.498   4.313 -2.1912 -0.2283 -0.0365
16064SOL     OW48769   8.461   1.098   1.913 -0.1966  0.3242 -0.3698
16064SOL    HW148770   8.387   1.101   1.974 -0.3217 -0.6121 -0.4579
16064SOL    HW248771   8.422   1.109   1.827 -0.1048  0.9073 -0.3388
16065SOL     OW48772   6.199   1.107   1.614  0.1961  0.0995 -0.0685
16065SOL    HW148773   6.113   1.084   1.578 -0.0413  0.6091  0.1728
16065SOL    HW248774   6.261   1.068   1.552 -0.2023  1.6816 -1.5356
16066SOL     OW48775   7.966   0.279   3.397  0.6180  0.3245  0.5563
16066SOL    HW148776   8.047   0.264   3.347 -0.1831  1.3560 -1.1551
16066SOL    HW248777   7.943   0.369   3.377 -0.8245  0.1262  1.2439
16067SOL     OW48778   7.133   1.262   5.857 -0.3576 -0.2707  0.2153
16067SOL    HW148779   7.059   1.207   5.834 -0.8456  1.5932 -3.5314
16067SOL    HW248780   7.210   1.207   5.841 -0.8788 -0.9529  0.0182
16068SOL     OW48781   7.966   0.313   1.456 -1.0483  0.8035 -0.2681
16068SOL    HW148782   7.986   0.308   1.550 -1.5267  0.5341 -0.1793
16068SOL    HW248783   7.946   0.405   1.440 -0.3193  0.9703 -0.2387
16069SOL     OW48784   2.305   1.439   0.890 -0.0604  0.5260  0.1060
16069SOL    HW148785   2.292   1.385   0.968 -1.0982 -4.2943 -2.9250
16069SOL    HW248786   2.218   1.473   0.870  0.1554  1.5481  0.8551
16070SOL     OW48787   1.951   3.071   1.084  0.1082 -0.5157 -0.7221
16070SOL    HW148788   1.895   3.148   1.096  0.7825 -0.1755  0.4054
16070SOL    HW248789   1.891   3.001   1.057 -0.9457 -0.2628  0.8443
16071SOL     OW48790   1.906   1.405   1.374 -0.1528 -0.2328  0.6252
16071SOL    HW148791   1.894   1.475   1.310 -1.6219 -1.9983 -1.1150
16071SOL    HW248792   1.871   1.441   1.455  1.6663  2.0182  0.5273
16072SOL     OW48793   5.314   6.416   2.131  0.2242 -0.1287  0.4806
16072SOL    HW148794   5.311   6.412   2.227  1.6854  1.5909  0.6453
16072SOL    HW248795   5.274   6.501   2.109 -1.0238 -0.9370 -0.5389
16073SOL     OW48796   0.494   9.150   7.888 -0.2293 -0.4709  0.4110
16073SOL    HW148797   0.459   9.093   7.820 -1.3824  1.3732 -0.6266
16073SOL    HW248798   0.587   9.156   7.870 -0.4530 -0.3496 -0.7547
16074SOL     OW48799   5.010   4.941   8.920 -0.6336  0.4881  0.1676
16074SOL    HW148800   5.022   4.991   9.001  0.3421  1.3366 -0.4865
16074SOL    HW248801   5.065   4.863   8.932  0.7631  1.3616 -0.2760
16075SOL     OW48802   7.992   3.020   5.881 -0.2783  0.5485 -0.1481
16075SOL    HW148803   7.953   3.097   5.923  0.9112  1.0299  0.1171
16075SOL    HW248804   7.990   2.952   5.949 -1.3599  0.3179 -0.3937
16076SOL     OW48805   8.131   7.585   5.848  0.3173  0.1343  0.1221
16076SOL    HW148806   8.037   7.600   5.859  0.1259 -0.7834 -0.1589
16076SOL    HW248807   8.172   7.656   5.897 -0.5202  0.3222  0.5805
16077SOL     OW48808   5.265   0.130   4.256 -0.3597  0.0280 -0.3684
16077SOL    HW148809   5.343   0.169   4.296 -1.8322  1.8910  0.8624
16077SOL    HW248810   5.295   0.046   4.222  1.9424  0.2205  0.9793
16078SOL     OW48811   0.048   6.176   2.251  0.4604 -0.0850 -0.1573
16078SOL    HW148812   0.109   6.145   2.184 -0.3468 -0.2518 -0.8330
16078SOL    HW248813  -0.038   6.165   2.211 -0.1065 -1.1242  1.2920
16079SOL     OW48814   2.108   6.462   6.227  0.1460  0.1749  0.0784
16079SOL    HW148815   2.167   6.399   6.185  0.8507  0.8066  0.1045
16079SOL    HW248816   2.044   6.482   6.159 -1.4725 -2.2486  0.7496
16080SOL     OW48817   1.611   8.106   0.652 -0.4384 -0.3479  0.1387
16080SOL    HW148818   1.665   8.029   0.672 -0.6869 -0.2034  1.4732
16080SOL    HW248819   1.610   8.111   0.557  0.1365 -1.6044  0.0516
16081SOL     OW48820   6.354   8.833   2.088 -0.0225  0.0852  0.3035
16081SOL    HW148821   6.414   8.825   2.162  0.9863  0.0236 -0.5110
16081SOL    HW248822   6.274   8.789   2.118  0.4490 -0.1436  1.2663
16082SOL     OW48823   1.222   8.898   7.126 -0.0800 -0.2368 -0.3788
16082SOL    HW148824   1.258   8.957   7.192  0.4573 -1.3806  0.3806
16082SOL    HW248825   1.240   8.942   7.043  1.3501  0.1433  0.0982
16083SOL     OW48826   3.481   1.573   2.621 -0.5317 -0.2492 -0.0059
16083SOL    HW148827   3.518   1.487   2.642  1.7488  1.0613  1.8687
16083SOL    HW248828   3.511   1.591   2.532 -0.0876 -0.9224 -0.0011
16084SOL     OW48829   6.930   1.235   4.491  0.2906  0.1816 -0.2397
16084SOL    HW148830   6.972   1.260   4.574  1.1432  0.0295 -0.6149
16084SOL    HW248831   6.958   1.144   4.477 -0.5467 -0.0840 -0.2727
16085SOL     OW48832   3.161   4.354   1.464  0.3162 -0.2246  0.2372
16085SOL    HW148833   3.209   4.385   1.541  2.0672 -1.7483 -0.1983
16085SOL    HW248834   3.080   4.406   1.465 -0.6274 -1.4215  4.1438
16086SOL     OW48835   3.656   6.187   2.604 -0.0652  0.4316 -0.3427
16086SOL    HW148836   3.688   6.241   2.677  0.5763  0.2152 -0.4554
16086SOL    HW248837   3.609   6.115   2.645  1.3438 -0.3688 -0.0733
16087SOL     OW48838   1.142   1.610   2.443 -0.3037 -0.1200  0.4927
16087SOL    HW148839   1.159   1.641   2.532  0.0161  2.8914 -0.5044
16087SOL    HW248840   1.087   1.679   2.404  1.1127 -0.3851 -2.1946
16088SOL     OW48841   2.020   6.968   2.557 -0.5464 -0.0835  0.2224
16088SOL    HW148842   1.925   6.974   2.547 -0.5428  1.3545  0.7294
16088SOL    HW248843   2.044   7.050   2.600  1.0428 -0.0099 -0.7472
16089SOL     OW48844   4.574   8.534   9.847 -0.1211  0.1393  0.3047
16089SOL    HW148845   4.483   8.557   9.866  0.8153  3.8475  0.9621
16089SOL    HW248846   4.589   8.454   9.898 -2.5134  0.3883  1.5556
16090SOL     OW48847   6.239   0.234   7.248 -0.1253 -0.2941  0.0595
16090SOL    HW148848   6.284   0.186   7.317  0.6260 -0.8165 -0.7715
16090SOL    HW248849   6.228   0.322   7.283  0.6433 -0.4376  0.6776
16091SOL     OW48850   6.722   1.203   2.384 -0.1502 -0.0468  0.4639
16091SOL    HW148851   6.682   1.172   2.465 -0.4049  0.7691  0.6593
16091SOL    HW248852   6.804   1.243   2.411 -0.2367  0.2293  0.3178
16092SOL     OW48853   6.314   8.134   6.284  0.4572  0.1203  0.2873
16092SOL    HW148854   6.273   8.185   6.353 -0.1459  0.8598 -0.5912
16092SOL    HW248855   6.322   8.046   6.320 -1.0936  0.1662  0.8103
16093SOL     OW48856   5.609   0.403   8.854  0.5132  0.1896  0.9091
16093SOL    HW148857   5.518   0.402   8.882  0.8480 -1.4635  2.0723
16093SOL    HW248858   5.659   0.417   8.934  1.3865 -2.0255  0.8213
16094SOL     OW48859   7.764   7.597   1.734  0.0278 -0.2370 -0.0514
16094SOL    HW148860   7.726   7.654   1.667 -0.6880 -0.5729  0.0538
16094SOL    HW248861   7.815   7.656   1.790  0.1728  0.1315 -0.5635
16095SOL     OW48862   0.249   6.058   9.573  0.1428  0.0175 -0.1650
16095SOL    HW148863   0.343   6.071   9.583  0.1718 -0.7973  0.6400
16095SOL    HW248864   0.209   6.117   9.637  0.0824  0.5511 -0.6792
16096SOL     OW48865   5.248   8.336   5.746 -0.0377 -0.0700 -0.5600
16096SOL    HW148866   5.306   8.364   5.816  2.6016  1.2646 -3.0562
16096SOL    HW248867   5.218   8.417   5.705 -0.6596 -0.7993 -1.6094
16097SOL     OW48868   7.212   5.027   6.662 -0.0049  0.4001 -0.5544
16097SOL    HW148869   7.158   5.099   6.696  0.9206  1.4522 -1.2565
16097SOL    HW248870   7.302   5.051   6.686  0.1730 -1.4714  0.8685
16098SOL     OW48871   1.827   4.776   1.873 -0.6645  0.0254  0.0833
16098SOL    HW148872   1.850   4.812   1.787  0.3662 -1.2701 -0.2123
16098SOL    HW248873   1.888   4.704   1.886 -2.2584 -1.2604  0.9008
16099SOL     OW48874   4.833   3.075   8.775  0.1477  0.0936 -0.8122
16099SOL    HW148875   4.738   3.067   8.761  0.0953 -0.1134 -0.3294
16099SOL    HW248876   4.868   3.095   8.688 -0.3956  0.6709 -0.9091
16100SOL     OW48877   3.625   5.396   3.818 -0.5080 -0.3571  0.1892
16100SOL    HW148878   3.556   5.331   3.807  0.8842 -1.7069 -1.0311
16100SOL    HW248879   3.611   5.459   3.747 -1.0044 -0.1060  0.5023
16101SOL     OW48880   6.378   9.077   5.212  0.4412 -0.7109  0.2136
16101SOL    HW148881   6.316   9.014   5.173 -1.1906  0.7115  0.3615
16101SOL    HW248882   6.410   9.128   5.137 -0.4635  0.1213  0.3657
16102SOL     OW48883   1.327   0.256   5.505  0.3898 -0.0539  0.2408
16102SOL    HW148884   1.377   0.224   5.580  1.1203 -0.3188 -0.3512
16102SOL    HW248885   1.393   0.282   5.441 -0.0836  3.8072  1.0819
16103SOL     OW48886   4.202   9.004   0.720 -0.1598  0.3785  0.2456
16103SOL    HW148887   4.163   8.932   0.771  1.3257 -1.1464 -0.6438
16103SOL    HW248888   4.217   8.966   0.633 -0.7776  2.2932 -0.7501
16104SOL     OW48889   6.640   6.520   2.178 -0.4263  0.3778 -0.2104
16104SOL    HW148890   6.549   6.540   2.155 -0.3599  1.4191  0.3627
16104SOL    HW248891   6.648   6.426   2.164 -1.8125  0.1408  0.4054
16105SOL     OW48892   9.283   4.476   6.290  0.8222 -0.0585 -0.2640
16105SOL    HW148893   9.198   4.514   6.268  1.1645  0.0079 -1.5991
16105SOL    HW248894   9.269   4.382   6.287  0.5945 -0.0547  0.4331
16106SOL     OW48895   2.343   9.326   7.381 -0.1337 -0.1531 -0.2952
16106SOL    HW148896   2.291   9.325   7.462 -1.2964  2.6172 -0.8710
16106SOL    HW248897   2.432   9.307   7.410 -0.5922  0.3663  1.6075
16107SOL     OW48898   9.079   5.853   3.497  0.5440  0.5923  0.6025
16107SOL    HW148899   9.041   5.895   3.574 -1.4201 -0.0919  0.0560
16107SOL    HW248900   9.168   5.831   3.524 -0.2967 -0.2588  2.9378
16108SOL     OW48901   0.102   5.599   1.054  0.1215 -0.2824  0.1319
16108SOL    HW148902   0.145   5.590   0.968  1.2606 -0.1867  0.6710
16108SOL    HW248903   0.123   5.517   1.099 -0.3770 -0.2813  0.3649
16109SOL     OW48904   6.287   7.970   1.227 -0.2113  0.1481 -0.0531
16109SOL    HW148905   6.327   7.889   1.259  0.2997 -0.2370 -1.5867
16109SOL    HW248906   6.193   7.955   1.235 -0.2164 -1.5106 -2.2860
16110SOL     OW48907   8.155   4.826   7.491  0.3320  0.0589 -0.5795
16110SOL    HW148908   8.168   4.916   7.520  0.5606 -0.3794  0.7379
16110SOL    HW248909   8.234   4.806   7.441  0.0794  0.7222 -1.2583
16111SOL     OW48910   7.360   3.700   4.020  0.5828 -0.4311 -0.0208
16111SOL    HW148911   7.361   3.616   4.067  0.8179 -0.4701 -0.0952
16111SOL    HW248912   7.284   3.694   3.962  0.3921 -0.4516  0.2276
16112SOL     OW48913   7.152   0.526   6.636 -0.0933 -0.5550  0.0359
16112SOL    HW148914   7.063   0.529   6.670 -0.1852 -1.3006 -0.1351
16112SOL    HW248915   7.188   0.613   6.655 -0.7387 -0.3693  0.4125
16113SOL     OW48916   3.277   7.333   7.346 -0.6587 -0.0735 -0.1894
16113SOL    HW148917   3.295   7.240   7.336 -0.4011 -0.0531  0.0934
16113SOL    HW248918   3.363   7.374   7.349 -0.7624  0.1092  0.3398
16114SOL     OW48919   7.928   2.337   4.929 -0.0704  0.3320  0.2162
16114SOL    HW148920   7.873   2.386   4.990 -1.7381  0.8702 -1.6101
16114SOL    HW248921   7.955   2.260   4.979  0.3783  1.7266  2.2776
16115SOL     OW48922   8.562   7.889   6.179  0.1240  0.5402  0.3236
16115SOL    HW148923   8.602   7.974   6.160 -1.5596  1.2926 -0.0101
16115SOL    HW248924   8.606   7.859   6.259 -0.3055  2.4336  1.3214
16116SOL     OW48925   9.417   6.198   5.190 -0.2667 -0.2519  0.2412
16116SOL    HW148926   9.430   6.104   5.190 -0.2570 -0.2548  0.6784
16116SOL    HW248927   9.432   6.224   5.281 -1.4782 -0.0067  0.3937
16117SOL     OW48928   3.687   9.878   2.137  0.0973 -0.2967 -0.1195
16117SOL    HW148929   3.738   9.892   2.057  0.1421  0.0790 -0.0282
16117SOL    HW248930   3.627   9.952   2.140  0.1799 -0.2422  0.2567
16118SOL     OW48931   2.542   4.232   4.827 -0.3484  0.0808  0.6229
16118SOL    HW148932   2.551   4.278   4.743 -0.2656 -2.3031 -0.7413
16118SOL    HW248933   2.604   4.160   4.821 -0.4791 -0.2367  2.7030
16119SOL     OW48934   2.522   4.944   3.482 -0.2991  0.4422  0.2539
16119SOL    HW148935   2.526   4.878   3.552  0.6078  1.9261  1.6717
16119SOL    HW248936   2.595   4.921   3.424 -1.7147 -1.4564 -0.9082
16120SOL     OW48937   8.481   0.821   9.620  0.1045  0.0467 -0.0557
16120SOL    HW148938   8.419   0.863   9.678 -0.0658 -1.8092  1.1796
16120SOL    HW248939   8.429   0.759   9.569  0.5331  0.4229 -0.9864
16121SOL     OW48940   5.188   4.094   0.331 -0.4886 -0.2727 -0.0480
16121SOL    HW148941   5.252   4.030   0.302  0.2694  0.0971  0.7420
16121SOL    HW248942   5.106   4.067   0.291  0.3972 -0.0241 -2.1425
16122SOL     OW48943   3.899   4.023   9.984 -0.1929 -0.2291  0.1728
16122SOL    HW148944   3.985   4.041   9.946  1.0048 -2.0285  1.8019
16122SOL    HW248945   3.890   3.928   9.978 -1.7497 -0.1323  0.6998
16123SOL     OW48946   5.771   0.377   5.969  0.3272 -0.0534  0.0954
16123SOL    HW148947   5.814   0.457   5.999  3.9607 -1.4674 -0.8548
16123SOL    HW248948   5.748   0.395   5.878 -0.7305  0.5396  0.4617
16124SOL     OW48949   2.233   2.919   3.858  0.3645 -0.3971 -0.1426
16124SOL    HW148950   2.224   3.012   3.879  1.9432 -0.0940 -0.6667
16124SOL    HW248951   2.263   2.917   3.767 -3.1344 -1.5739 -1.4631
16125SOL     OW48952   2.930   8.959   8.432 -0.5589 -0.0814  0.0379
16125SOL    HW148953   2.925   9.054   8.425 -0.3242 -0.1052 -0.4962
16125SOL    HW248954   3.021   8.938   8.414 -0.3063 -0.3093  1.4888
16126SOL     OW48955   7.230   0.838   8.759 -0.5380 -0.6006  0.3604
16126SOL    HW148956   7.273   0.753   8.750 -0.8501 -0.6301 -1.1212
16126SOL    HW248957   7.144   0.826   8.719 -0.4624  0.4959 -0.1698
16127SOL     OW48958   0.478   1.978   5.280  0.2977 -0.0118  0.2980
16127SOL    HW148959   0.397   2.027   5.266  0.2536  0.6368  2.4158
16127SOL    HW248960   0.521   1.977   5.195 -1.9722 -0.4844 -0.9213
16128SOL     OW48961   3.964   4.911   6.039 -0.7720  0.0425  0.0679
16128SOL    HW148962   3.942   4.820   6.058  0.2298 -0.6566 -1.7978
16128SOL    HW248963   4.003   4.908   5.951  1.8841  1.8563  1.0511
16129SOL     OW48964   5.511   3.816   3.303 -0.0942  0.2789  0.0719
16129SOL    HW148965   5.515   3.848   3.393  1.7873  0.9019 -0.1802
16129SOL    HW248966   5.418   3.820   3.280 -0.6584 -0.1908  2.0611
16130SOL     OW48967   4.326   7.302   4.079  0.0992 -0.3841 -0.5495
16130SOL    HW148968   4.410   7.345   4.066  0.6378 -0.2694  2.4827
16130SOL    HW248969   4.262   7.361   4.040  1.2845  0.2115 -1.6721
16131SOL     OW48970   5.693   2.562   7.462 -0.1842 -0.7072  0.0667
16131SOL    HW148971   5.765   2.506   7.433 -2.0567 -4.1925  1.6069
16131SOL    HW248972   5.646   2.586   7.382  1.6965  0.3593 -0.7927
16132SOL     OW48973   6.549   4.772   2.535 -0.5225  0.0573 -0.2659
16132SOL    HW148974   6.477   4.750   2.594 -1.3211 -0.1668 -1.2968
16132SOL    HW248975   6.553   4.867   2.537 -0.5750  0.0541  0.1092
16133SOL     OW48976   3.172   4.577   7.946 -0.0773  0.8188  0.0404
16133SOL    HW148977   3.217   4.598   7.864 -1.4340  2.0238 -0.4606
16133SOL    HW248978   3.115   4.653   7.961 -1.0519 -0.1167  1.2370
16134SOL     OW48979   1.583   1.475   9.137 -0.1884 -0.3675  0.6500
16134SOL    HW148980   1.633   1.393   9.137  0.2782 -0.1148 -1.1961
16134SOL    HW248981   1.547   1.481   9.049 -1.8842  0.4427  1.3525
16135SOL     OW48982   4.937   7.057   4.911 -0.0075 -0.1358  0.0720
16135SOL    HW148983   4.956   6.967   4.884 -0.5876 -0.6331  1.2318
16135SOL    HW248984   4.868   7.086   4.853  0.7039 -0.1646 -0.8031
16136SOL     OW48985   0.105   9.960   2.518  0.0270 -0.5026  0.2844
16136SOL    HW148986   0.178   9.963   2.579  0.4801  0.8730 -0.2856
16136SOL    HW248987   0.037  10.013   2.559 -0.2520 -0.8754  0.3095
16137SOL     OW48988   9.719   1.353   7.304 -0.4017 -0.2387 -0.0844
16137SOL    HW148989   9.735   1.336   7.397 -0.9634 -0.9661 -0.1159
16137SOL    HW248990   9.659   1.428   7.304  0.6230  0.5999  0.0981
16138SOL     OW48991   2.478   2.780   7.516  0.3747  0.0768  0.3174
16138SOL    HW148992   2.480   2.696   7.472 -0.9117  0.6010 -0.7914
16138SOL    HW248993   2.521   2.840   7.455  0.3398  0.4379  0.6418
16139SOL     OW48994   6.689   8.964   7.886  0.0694  0.0541 -0.8281
16139SOL    HW148995   6.612   9.014   7.915  0.5257  0.9313 -1.0913
16139SOL    HW248996   6.667   8.873   7.905  0.1578  0.5194  1.8743
16140SOL     OW48997   2.434   0.883   6.820  0.3177 -0.2339 -0.1201
16140SOL    HW148998   2.412   0.890   6.913 -1.8883 -1.1989 -0.5091
16140SOL    HW248999   2.505   0.819   6.818  1.6498  1.1290  1.0063
16141SOL     OW49000   4.257   8.085   6.685 -0.0106  0.5239 -0.1249
16141SOL    HW149001   4.170   8.120   6.702  0.3593  1.1148  0.6276
16141SOL    HW249002   4.310   8.117   6.758  1.5416  2.7268 -2.0837
16142SOL     OW49003   1.157   1.006   9.017  0.1043 -0.3393  0.3739
16142SOL    HW149004   1.207   1.019   8.937  0.0685  2.0652  0.6605
16142SOL    HW249005   1.221   0.981   9.083  0.1212 -2.4266 -0.3605
16143SOL     OW49006   5.773   2.743   7.081  0.7838  0.4146  0.2078
16143SOL    HW149007   5.689   2.701   7.100  0.6103  0.5075 -0.3550
16143SOL    HW249008   5.760   2.835   7.107  0.6305  0.4843 -0.1157
16144SOL     OW49009   4.382   4.584   6.310 -0.2795 -0.1459 -0.1022
16144SOL    HW149010   4.329   4.661   6.289  0.6583  0.2227 -1.1930
16144SOL    HW249011   4.369   4.526   6.235 -0.3882 -0.7391  0.3710
16145SOL     OW49012   0.743   8.528   5.986 -0.2091 -0.0074  0.0254
16145SOL    HW149013   0.673   8.522   5.921  0.4873 -1.7501 -0.5971
16145SOL    HW249014   0.822   8.548   5.935  0.5562 -2.4971  0.1350
16146SOL     OW49015   7.862   6.708   7.035  0.3636  0.2647  0.0310
16146SOL    HW149016   7.859   6.683   6.943 -0.2882 -1.3848  0.4690
16146SOL    HW249017   7.804   6.783   7.042  2.7485  2.4326 -1.4237
16147SOL     OW49018   3.455   0.260   5.517  0.1697 -0.2653 -0.1841
16147SOL    HW149019   3.479   0.169   5.533  0.9936  0.2386  1.7174
16147SOL    HW249020   3.528   0.296   5.466 -0.6043 -0.8654 -1.7939
16148SOL     OW49021   7.689   1.110   5.110 -0.0699 -0.3500  0.0184
16148SOL    HW149022   7.648   1.101   5.196  0.9202  1.6529  0.7611
16148SOL    HW249023   7.687   1.204   5.092  1.0921 -0.5722 -1.4737
16149SOL     OW49024   3.086   2.541   1.909 -0.3459 -0.7672 -0.0799
16149SOL    HW149025   3.119   2.629   1.889  0.2048 -1.3409 -1.8655
16149SOL    HW249026   2.991   2.553   1.921  0.0670  0.5366  2.9342
16150SOL     OW49027   4.189   9.009   4.856 -0.4655  0.0029 -0.0402
16150SOL    HW149028   4.098   9.021   4.881 -0.6965  0.8170 -1.2149
16150SOL    HW249029   4.186   8.977   4.766  0.4044 -0.1377 -0.0351
16151SOL     OW49030   8.931   8.093   3.196 -0.1393  0.0188 -0.5822
16151SOL    HW149031   9.026   8.091   3.184  0.1711 -1.6616  1.7035
16151SOL    HW249032   8.911   8.186   3.210  0.7791  0.7060 -3.2740
16152SOL     OW49033   9.950   3.657   4.890 -0.4880  0.4691  0.0805
16152SOL    HW149034   9.911   3.599   4.956 -1.1194  0.5976 -0.1782
16152SOL    HW249035   9.919   3.744   4.913 -0.4076  0.5638 -0.1691
16153SOL     OW49036   9.327   5.807   1.086  0.2415 -0.6240  0.1371
16153SOL    HW149037   9.382   5.746   1.135  0.5890 -0.0822  0.4405
16153SOL    HW249038   9.370   5.892   1.098 -0.1277 -0.3511 -0.4307
16154SOL     OW49039   3.452   4.778   8.102 -0.0068  0.6320  0.1524
16154SOL    HW149040   3.500   4.701   8.072  0.3674  1.1209 -0.5496
16154SOL    HW249041   3.409   4.750   8.183 -1.1475 -0.7971 -0.8850
16155SOL     OW49042   4.980   3.209   1.863 -0.1427 -0.2674  0.2799
16155SOL    HW149043   4.958   3.122   1.829 -1.5850  0.2713 -0.2333
16155SOL    HW249044   5.056   3.236   1.812 -0.5903 -0.6272 -0.5992
16156SOL     OW49045   2.604   7.643   2.877 -0.2842 -0.4376  0.6226
16156SOL    HW149046   2.591   7.736   2.863 -0.2111 -0.2751  1.6081
16156SOL    HW249047   2.603   7.605   2.789 -0.9229  0.4063  0.2550
16157SOL     OW49048   0.715   5.916   8.974 -0.0388 -0.1091  0.4677
16157SOL    HW149049   0.688   6.005   8.994 -2.6162 -0.7069 -0.0048
16157SOL    HW249050   0.663   5.891   8.898  2.0431 -1.3951 -0.6356
16158SOL     OW49051   6.761   1.184   5.058  0.1078 -0.0763 -0.0230
16158SOL    HW149052   6.717   1.181   4.973  0.2568  2.5894 -0.2694
16158SOL    HW249053   6.755   1.094   5.091 -0.3995 -1.0792 -2.6013
16159SOL     OW49054   9.589   6.978   3.366 -0.1609  0.1407  0.8113
16159SOL    HW149055   9.543   6.937   3.440 -0.3082 -0.3570  0.4545
16159SOL    HW249056   9.586   6.911   3.297 -0.5571  0.8307  0.1554
16160SOL     OW49057   2.376   8.834   1.345 -0.5301 -0.0339 -0.1506
16160SOL    HW149058   2.451   8.836   1.285 -1.3303  0.3705 -1.1579
16160SOL    HW249059   2.413   8.859   1.430  0.2061  1.7273 -0.9446
16161SOL     OW49060   0.983   9.071   3.581 -0.1309 -0.0346  0.5707
16161SOL    HW149061   0.922   9.020   3.635 -0.3132  0.1264  0.5170
16161SOL    HW249062   0.937   9.085   3.498  0.2291 -0.4533  0.2969
16162SOL     OW49063   1.814   6.482   4.136  0.6142  0.5612 -0.1916
16162SOL    HW149064   1.852   6.503   4.221 -1.2053  0.4099  0.6953
16162SOL    HW249065   1.777   6.395   4.147  1.3605  0.0412 -1.5176
16163SOL     OW49066   6.156   3.480   8.081  0.0581 -0.0380 -0.3040
16163SOL    HW149067   6.195   3.554   8.034 -1.1555  1.8442  1.4587
16163SOL    HW249068   6.221   3.457   8.148  0.2537 -0.2638 -0.5727
16164SOL     OW49069   5.048   0.018   3.552 -0.1418  0.7415  0.0532
16164SOL    HW149070   4.996   0.085   3.507 -1.0071  1.1347  1.5607
16164SOL    HW249071   4.991  -0.059   3.553  0.2499  0.4464 -0.3572
16165SOL     OW49072   3.140   7.173   3.445 -0.0283  0.0783 -0.5333
16165SOL    HW149073   3.091   7.246   3.483  1.5696  0.3063  1.2424
16165SOL    HW249074   3.110   7.096   3.494 -0.7997 -0.3069 -1.5561
16166SOL     OW49075   4.701   3.728   2.394 -0.1569  0.0206 -0.0230
16166SOL    HW149076   4.774   3.753   2.337  1.2663 -1.2919  1.1472
16166SOL    HW249077   4.743   3.692   2.472 -2.0439 -2.6191 -0.1068
16167SOL     OW49078   4.279   2.807   3.979  0.2528 -0.0303  0.2313
16167SOL    HW149079   4.330   2.888   3.984  0.8093 -0.3673  0.0479
16167SOL    HW249080   4.258   2.786   4.070  0.1828  0.2683  0.2854
16168SOL     OW49081   3.064   5.947   3.141  0.0460  0.5008  0.3606
16168SOL    HW149082   2.985   5.908   3.104  0.1813 -0.0445  0.6428
16168SOL    HW249083   3.136   5.904   3.095  0.2045  0.1482  0.9324
16169SOL     OW49084   3.002   5.027   1.417  0.3910 -0.2140 -0.4773
16169SOL    HW149085   2.978   5.072   1.498  0.5311 -0.2364 -0.4227
16169SOL    HW249086   2.962   4.940   1.426  1.9132 -0.8713  0.3960
16170SOL     OW49087   2.272   7.935   2.028  0.0409  0.0017 -0.7840
16170SOL    HW149088   2.200   7.898   2.079  0.1557  1.2694  0.3566
16170SOL    HW249089   2.228   7.981   1.956 -0.2584 -0.0000 -0.6067
16171SOL     OW49090   3.263   6.376   0.687 -0.0814 -0.0762 -0.1700
16171SOL    HW149091   3.188   6.420   0.728 -0.8441 -0.4475 -1.1174
16171SOL    HW249092   3.225   6.331   0.612  0.9181 -1.2304 -0.0036
16172SOL     OW49093   9.090   9.041   0.615  0.3037  0.5350 -0.3072
16172SOL    HW149094   9.012   9.079   0.575  0.4363 -0.6765 -1.8150
16172SOL    HW249095   9.061   8.956   0.649  1.1217 -0.2924 -1.6198
16173SOL     OW49096   7.510   1.054   5.307 -0.2389  0.2153  0.1052
16173SOL    HW149097   7.537   1.073   5.397  0.5842  1.0401 -0.3054
16173SOL    HW249098   7.511   0.958   5.301  0.2565  0.1703  0.7999
16174SOL     OW49099   6.566   6.838   7.493  0.3854 -0.1176 -0.4603
16174SOL    HW149100   6.588   6.927   7.465  0.6635  0.1650  0.6328
16174SOL    HW249101   6.572   6.786   7.412  2.3063  0.4642 -0.7348
16175SOL     OW49102   1.666   7.310   4.333  0.1571  0.0086  0.3014
16175SOL    HW149103   1.660   7.218   4.307  0.2318  0.0452  0.1539
16175SOL    HW249104   1.582   7.348   4.305  0.4374  0.1654 -0.3547
16176SOL     OW49105   4.922   7.545   6.402  0.0237 -0.1417  0.1800
16176SOL    HW149106   4.924   7.608   6.474 -1.1045  0.7644 -0.5575
16176SOL    HW249107   4.883   7.466   6.440 -0.9338  0.4622  0.4741
16177SOL     OW49108   9.656   3.982   5.863 -0.0347  0.1258  0.0429
16177SOL    HW149109   9.576   3.974   5.914  0.4916 -1.5604  0.6957
16177SOL    HW249110   9.645   3.920   5.791  0.4162  0.3520 -0.2266
16178SOL     OW49111   9.946   9.503   8.917 -0.0756  0.0757  0.1450
16178SOL    HW149112   9.869   9.555   8.894 -0.7867 -0.6280  0.8753
16178SOL    HW249113  10.017   9.567   8.927 -1.6290  1.4296  4.4732
16179SOL     OW49114   3.347   9.138   2.564  0.4536  0.0273  0.7602
16179SOL    HW149115   3.412   9.208   2.568  0.1782  0.4654 -1.3845
16179SOL    HW249116   3.280   9.164   2.628  2.0292 -0.1328  2.5698
16180SOL     OW49117   6.627   7.406   8.467 -0.2228 -0.4444 -0.2132
16180SOL    HW149118   6.556   7.471   8.468 -0.4099 -0.5914 -1.4742
16180SOL    HW249119   6.581   7.321   8.469 -0.0247 -0.5389  0.3328
16181SOL     OW49120   3.085   0.290   3.059 -0.0816  0.2368  0.7840
16181SOL    HW149121   3.170   0.256   3.031 -0.6129 -2.8808  2.4325
16181SOL    HW249122   3.047   0.328   2.980  2.5329  1.1095 -0.1381
16182SOL     OW49123   0.279   9.007   1.705  0.0208 -0.0859  0.0703
16182SOL    HW149124   0.268   9.053   1.788 -0.3918 -1.0480  0.5566
16182SOL    HW249125   0.335   9.065   1.653 -0.3330  0.8742  0.7335
16183SOL     OW49126   2.806   9.758   3.329 -0.5658  0.2481 -0.7268
16183SOL    HW149127   2.776   9.672   3.298 -0.0220  0.7460 -2.7664
16183SOL    HW249128   2.793   9.755   3.424 -2.0415 -1.4973 -0.9284
16184SOL     OW49129   4.095   6.886   0.952  0.4355 -0.0316 -0.2444
16184SOL    HW149130   4.139   6.959   0.996  1.4371 -0.7986  0.0794
16184SOL    HW249131   4.100   6.814   1.015 -0.1551 -0.5084 -0.7251
16185SOL     OW49132   9.369   6.390   4.217  0.1508  0.3744 -0.4117
16185SOL    HW149133   9.414   6.330   4.277  0.4919 -0.0340 -1.0687
16185SOL    HW249134   9.319   6.332   4.159 -1.7167  0.8297  0.6666
16186SOL     OW49135   0.168   7.304   0.349 -0.0135 -0.1049  0.3967
16186SOL    HW149136   0.180   7.373   0.284 -1.8804 -1.3053 -1.3441
16186SOL    HW249137   0.111   7.342   0.415 -1.7054 -0.1745 -0.9770
16187SOL     OW49138   6.391   7.672   3.898 -0.1256  0.5236  0.0938
16187SOL    HW149139   6.379   7.595   3.955 -2.7879  0.9786  0.2563
16187SOL    HW249140   6.380   7.638   3.809 -0.2846  0.5515  0.1033
16188SOL     OW49141   8.144   5.327   9.294  0.3749  0.9982  0.2391
16188SOL    HW149142   8.238   5.342   9.279 -0.0308  2.5411 -1.0879
16188SOL    HW249143   8.138   5.234   9.314  2.2380  0.9465  0.7967
16189SOL     OW49144   9.568   2.912   2.263 -0.7742  0.0146  0.1143
16189SOL    HW149145   9.556   2.846   2.195 -0.2611  1.1495 -1.1396
16189SOL    HW249146   9.495   2.973   2.251  1.2842  2.2863 -1.9774
16190SOL     OW49147   5.150   4.566   8.526 -0.2085  0.3676 -0.4559
16190SOL    HW149148   5.094   4.644   8.523  1.8530  1.9325 -0.3625
16190SOL    HW249149   5.238   4.599   8.508  0.6923 -2.0243 -0.8096
16191SOL     OW49150   6.956   8.961   6.437  0.2689  0.4049  0.1137
16191SOL    HW149151   6.956   8.977   6.342  0.7676  0.0398  0.0492
16191SOL    HW249152   6.943   9.048   6.475  4.7055  1.4279 -0.1896
16192SOL     OW49153   2.897   8.290   9.122 -0.0031  0.2382  1.0111
16192SOL    HW149154   2.804   8.274   9.133  0.3888 -1.3776  2.2902
16192SOL    HW249155   2.905   8.386   9.117 -1.7076  0.3878  0.8868
16193SOL     OW49156   3.273   5.370   2.459 -0.2116  0.3273 -0.2964
16193SOL    HW149157   3.304   5.335   2.543  2.1465 -0.3550 -1.3358
16193SOL    HW249158   3.180   5.351   2.458 -0.3860  0.6373  2.2768
16194SOL     OW49159   4.108   1.696   6.735 -0.0512 -0.1643 -0.1627
16194SOL    HW149160   4.202   1.686   6.750  0.3429  0.2710 -2.0541
16194SOL    HW249161   4.085   1.621   6.679 -0.6265  0.2438 -0.4788
16195SOL     OW49162   0.530   3.156   6.030  0.0622  0.0277  0.1941
16195SOL    HW149163   0.465   3.210   5.985  0.5973  1.2366  0.8297
16195SOL    HW249164   0.602   3.148   5.968 -0.1100 -0.1535  0.0151
16196SOL     OW49165   7.894   3.857   9.776  0.5625  0.1747 -0.6220
16196SOL    HW149166   7.901   3.776   9.826  1.2345 -0.0640 -1.0940
16196SOL    HW249167   7.900   3.926   9.842  2.3771 -0.1158 -0.4360
16197SOL     OW49168   5.681   4.091   2.677 -0.1205 -0.3936  0.7756
16197SOL    HW149169   5.773   4.098   2.652 -0.1328  2.2330  1.0954
16197SOL    HW249170   5.637   4.052   2.601  0.9163  0.6211 -0.3822
16198SOL     OW49171   6.174   0.905   5.899 -0.0037 -0.1385 -0.2499
16198SOL    HW149172   6.091   0.952   5.906  0.3152  0.4731 -0.5728
16198SOL    HW249173   6.236   0.958   5.948  0.2383 -0.5205 -0.1351
16199SOL     OW49174   5.360   1.801   2.765  0.0314 -0.1661  0.0447
16199SOL    HW149175   5.456   1.805   2.772  0.0919  0.8845 -1.0781
16199SOL    HW249176   5.331   1.891   2.783 -0.6120 -0.1216 -1.1305
16200SOL     OW49177   5.730   3.963   4.250 -0.2070 -0.2737  0.0191
16200SOL    HW149178   5.767   4.011   4.177 -0.8791  0.1655 -0.0453
16200SOL    HW249179   5.640   3.996   4.258 -0.1080 -0.2192  1.1217
16201SOL     OW49180   0.481   0.763   0.594  0.5903  0.3853 -0.8124
16201SOL    HW149181   0.560   0.726   0.633  0.6574 -0.2840 -1.5555
16201SOL    HW249182   0.409   0.711   0.631  0.6315 -0.0521 -1.3255
16202SOL     OW49183   7.863   9.711   3.217  0.0020  0.0183  0.1779
16202SOL    HW149184   7.896   9.703   3.128  0.7104  2.7599  0.0908
16202SOL    HW249185   7.860   9.805   3.233 -1.5929 -0.3344  2.5320
16203SOL     OW49186   8.941   9.916   8.022  0.2545 -0.7223 -0.5134
16203SOL    HW149187   8.915   9.826   8.042 -1.1879 -0.4265 -0.9573
16203SOL    HW249188   8.906   9.932   7.934 -1.4831  0.9771  0.4058
16204SOL     OW49189   1.060   8.060   1.894  0.7196 -0.3003 -0.2503
16204SOL    HW149190   0.977   8.103   1.914  0.8294 -0.4305  0.5029
16204SOL    HW249191   1.089   8.100   1.812 -1.2688 -1.9495 -1.8855
16205SOL     OW49192   2.412   3.467   1.009 -0.6810 -0.5729 -0.5219
16205SOL    HW149193   2.353   3.397   1.038  2.0765 -4.6860 -3.7263
16205SOL    HW249194   2.463   3.488   1.087 -0.5485 -3.3807  0.2484
16206SOL     OW49195   1.629   8.809   0.481  0.1146 -0.0359  0.0026
16206SOL    HW149196   1.691   8.812   0.408  0.2544 -2.0702 -0.0202
16206SOL    HW249197   1.561   8.872   0.457  1.4487  1.2155 -0.6336
16207SOL     OW49198   0.685   7.498   0.666  0.0385  0.3382 -0.4878
16207SOL    HW149199   0.656   7.489   0.576 -0.7194 -1.5869 -0.0820
16207SOL    HW249200   0.758   7.437   0.675 -0.9982 -0.7847  0.6413
16208SOL     OW49201   1.766   9.523   9.222 -0.5512  0.1175  0.1605
16208SOL    HW149202   1.717   9.517   9.141 -0.2281  0.4700 -0.0634
16208SOL    HW249203   1.856   9.539   9.195 -0.4053  0.0272  0.5806
16209SOL     OW49204   7.310   2.668   0.460  0.1074  0.2387 -0.6487
16209SOL    HW149205   7.373   2.645   0.528 -1.1705  0.5537  0.7172
16209SOL    HW249206   7.232   2.617   0.482 -2.1142  4.0227  1.2550
16210SOL     OW49207   4.671   2.731   2.597  0.1073 -0.2309 -0.1045
16210SOL    HW149208   4.752   2.775   2.623 -0.3233  0.3931  0.2236
16210SOL    HW249209   4.607   2.802   2.589  0.0171 -0.4732 -2.1492
16211SOL     OW49210   0.084   1.482   2.302  1.2053  0.3601 -0.3870
16211SOL    HW149211   0.048   1.570   2.299 -1.0571 -0.3788  1.6387
16211SOL    HW249212   0.151   1.486   2.370  0.1357  0.2578  0.7067
16212SOL     OW49213   3.744   6.936   2.645  0.0840 -0.6746  0.2425
16212SOL    HW149214   3.671   6.881   2.670  0.0272 -0.7960 -0.1825
16212SOL    HW249215   3.817   6.906   2.699 -0.3437 -0.0862  1.1776
16213SOL     OW49216   3.998   7.590   1.642 -0.6190 -0.0738 -0.1898
16213SOL    HW149217   3.920   7.537   1.628 -0.0385 -0.9437 -0.2635
16213SOL    HW249218   4.062   7.529   1.679  0.7383  0.0454 -2.1538
16214SOL     OW49219   0.691   4.072   3.515  0.3547  0.1823 -0.2628
16214SOL    HW149220   0.764   4.082   3.455  1.6399 -0.8338  1.0496
16214SOL    HW249221   0.713   4.127   3.590 -0.3361  0.0633  0.0399
16215SOL     OW49222   9.065   4.111   3.478 -0.3197  0.1721 -0.2229
16215SOL    HW149223   9.066   4.129   3.572 -1.2407  0.9156 -0.3399
16215SOL    HW249224   8.974   4.089   3.458  0.0530 -0.9064 -0.7833
16216SOL     OW49225   2.686   9.503   6.061 -0.3818  0.3982 -0.0370
16216SOL    HW149226   2.607   9.454   6.035 -0.6166 -0.1259  1.5064
16216SOL    HW249227   2.730   9.523   5.979 -1.8545  0.2335 -0.9119
16217SOL     OW49228   1.286   6.578   2.620 -0.2763  0.1029  0.1901
16217SOL    HW149229   1.290   6.588   2.525  0.1058  1.6538  0.3472
16217SOL    HW249230   1.215   6.514   2.634 -0.4519 -0.0156 -1.1162
16218SOL     OW49231   0.838   5.205   8.280  0.0290  0.0364  0.3601
16218SOL    HW149232   0.812   5.187   8.371  0.2071 -0.9481  0.2285
16218SOL    HW249233   0.900   5.277   8.287 -0.9852  0.8971  0.8892
16219SOL     OW49234   5.615   9.712   3.720  0.1516  0.0659 -0.6083
16219SOL    HW149235   5.638   9.747   3.634  1.7271  3.4349  0.9890
16219SOL    HW249236   5.542   9.767   3.749 -2.1613 -2.6997 -0.6806
16220SOL     OW49237   9.946   4.369   3.495 -0.4523 -0.4955  0.3128
16220SOL    HW149238   9.898   4.291   3.524  1.3025 -1.2949  1.1826
16220SOL    HW249239   9.924   4.436   3.559 -1.8153 -0.2912 -0.3271
16221SOL     OW49240   4.237   9.771   6.148 -0.7833 -0.1919  0.7066
16221SOL    HW149241   4.311   9.762   6.088 -2.1305  0.3033 -1.0958
16221SOL    HW249242   4.263   9.841   6.208  0.4912 -0.5451  0.6045
16222SOL     OW49243   1.867   8.699   1.628  0.0752 -0.2106  0.7621
16222SOL    HW149244   1.816   8.737   1.556  1.2147 -1.5446 -0.8208
16222SOL    HW249245   1.810   8.631   1.664 -0.8737  1.0751  1.8060
16223SOL     OW49246   4.268   8.932   2.605  0.3237  0.4285  0.2721
16223SOL    HW149247   4.284   8.930   2.699 -0.7041  0.2827  0.4512
16223SOL    HW249248   4.176   8.907   2.595  1.0145 -2.0258 -0.9289
16224SOL     OW49249   9.137   8.211   2.368  0.2114 -0.3931  0.3449
16224SOL    HW149250   9.213   8.153   2.367  0.8318  0.4119  0.1246
16224SOL    HW249251   9.173   8.299   2.368 -0.6494  0.0957 -2.8019
16225SOL     OW49252   1.416   8.807   0.784 -0.3892  0.1451 -0.0568
16225SOL    HW149253   1.418   8.741   0.854 -1.0504 -0.2940 -0.4491
16225SOL    HW249254   1.382   8.761   0.708  2.3413  0.0111 -1.3350
16226SOL     OW49255   7.916   5.531   9.883  0.0852  0.5385  0.1304
16226SOL    HW149256   7.890   5.574   9.801 -0.0044  1.1115  0.4628
16226SOL    HW249257   7.981   5.589   9.921  0.0917  0.2919  0.4930
16227SOL     OW49258   3.520   8.580   2.546 -0.1355  0.0514 -0.4810
16227SOL    HW149259   3.445   8.524   2.561 -0.7126 -0.3984 -4.1961
16227SOL    HW249260   3.555   8.598   2.634 -2.0001 -3.1770  1.0770
16228SOL     OW49261   2.609   6.712   9.617  0.6426 -0.3407 -0.7536
16228SOL    HW149262   2.690   6.741   9.659  0.9532  1.4300 -2.4217
16228SOL    HW249263   2.631   6.706   9.524 -1.8660  3.4530 -1.7958
16229SOL     OW49264   6.687   9.511   2.975  0.0337  0.6635 -0.0465
16229SOL    HW149265   6.725   9.548   3.055  0.5939  2.1289 -0.9446
16229SOL    HW249266   6.739   9.432   2.958 -0.2302  0.2195  1.1319
16230SOL     OW49267   7.615   9.222   3.735 -0.2554  0.6381 -0.4077
16230SOL    HW149268   7.615   9.131   3.706 -0.7329  0.4349  0.1928
16230SOL    HW249269   7.535   9.230   3.786  1.1669  0.6164  1.9572
16231SOL     OW49270   1.050   5.044   5.566 -0.1123  0.4682 -0.6107
16231SOL    HW149271   1.146   5.048   5.564 -0.1446  1.8172 -0.3303
16231SOL    HW249272   1.025   5.037   5.474  0.2546  0.0551 -0.6830
16232SOL     OW49273   3.667   2.726   2.874 -0.4660 -0.3519  0.5099
16232SOL    HW149274   3.743   2.738   2.930 -0.4917  0.3360  0.4075
16232SOL    HW249275   3.593   2.755   2.927 -0.4427  0.7224 -0.0071
16233SOL     OW49276   9.556   4.423   6.872 -0.1907 -0.1199 -0.1354
16233SOL    HW149277   9.482   4.408   6.813 -0.4988 -0.0812  0.2361
16233SOL    HW249278   9.574   4.337   6.910  0.2894 -0.2292 -0.6165
16234SOL     OW49279   5.416   6.627   1.622  0.5526  0.0525  0.0270
16234SOL    HW149280   5.346   6.692   1.619  0.2069 -0.3379 -1.3242
16234SOL    HW249281   5.472   6.654   1.694 -1.8191 -0.4748  2.2188
16235SOL     OW49282   1.591   3.311   8.979  0.5963 -0.4927  0.6540
16235SOL    HW149283   1.606   3.228   8.935  0.8768 -0.4953  0.7498
16235SOL    HW249284   1.497   3.315   8.994  0.3654 -0.1195 -0.7005
16236SOL     OW49285   3.250   1.528   8.722  0.1902  0.2684  0.1717
16236SOL    HW149286   3.213   1.470   8.655 -0.5842  1.9844 -0.9604
16236SOL    HW249287   3.342   1.502   8.728  0.3997  0.3465 -1.9080
16237SOL     OW49288   1.910   5.359   4.327  0.4349  0.7110 -0.2369
16237SOL    HW149289   1.861   5.321   4.400  0.1257  1.2883 -0.1432
16237SOL    HW249290   1.928   5.449   4.354  0.4767  0.8716 -0.7919
16238SOL     OW49291   7.190   8.028   9.654  0.0961 -0.7238 -0.3648
16238SOL    HW149292   7.284   8.029   9.636  0.3077  0.5315  0.6571
16238SOL    HW249293   7.182   8.069   9.740 -1.6696  2.9412 -2.0655
16239SOL     OW49294   2.001   9.101   7.741 -0.4430  0.0979 -0.3348
16239SOL    HW149295   2.054   9.168   7.784 -0.0063 -0.3474 -0.1594
16239SOL    HW249296   1.921   9.146   7.715  0.6081  1.1259 -1.8921
16240SOL     OW49297   7.261   1.986   6.359  0.2834  0.2368 -0.3762
16240SOL    HW149298   7.289   2.059   6.305  2.7957 -2.4849 -3.1726
16240SOL    HW249299   7.167   1.979   6.344  0.1177  2.3485 -0.5966
16241SOL     OW49300   7.675   1.792   1.744 -0.6239  0.2839 -0.2504
16241SOL    HW149301   7.704   1.754   1.827 -1.0322  0.8370  0.1606
16241SOL    HW249302   7.682   1.721   1.681  1.9936  0.5004 -0.2787
16242SOL     OW49303   3.744   7.786   6.021  0.1216 -0.1505  0.0076
16242SOL    HW149304   3.737   7.804   6.115  0.7832 -3.1654  0.7436
16242SOL    HW249305   3.730   7.692   6.014  1.2306 -0.1960 -2.8010
16243SOL     OW49306   3.395   2.986   7.537  0.3881  0.2393  0.1056
16243SOL    HW149307   3.446   2.909   7.560 -1.4383 -1.1689 -0.3193
16243SOL    HW249308   3.424   3.053   7.599  2.0068 -0.7638  0.5029
16244SOL     OW49309   3.022   5.752   0.664  0.2005  0.0469  0.1447
16244SOL    HW149310   3.059   5.733   0.578  0.5060  2.1678 -0.2479
16244SOL    HW249311   2.991   5.667   0.696 -0.1272 -0.7773 -2.1400
16245SOL     OW49312   8.148   2.792   0.461 -0.2858 -0.5525 -0.5885
16245SOL    HW149313   8.169   2.881   0.489 -0.3566 -0.9100  0.6280
16245SOL    HW249314   8.230   2.744   0.471 -0.2088 -0.6016 -1.3908
16246SOL     OW49315   2.066   1.719   9.521  0.0833  0.2276  0.1159
16246SOL    HW149316   2.088   1.764   9.603  0.6143  0.6448 -0.2507
16246SOL    HW249317   2.048   1.790   9.459 -1.7986 -0.0738  0.2424
16247SOL     OW49318   4.651   8.567   8.168 -0.0538  0.2781  0.4737
16247SOL    HW149319   4.592   8.504   8.210  0.3645  0.3150  1.1327
16247SOL    HW249320   4.598   8.646   8.159 -0.5859 -0.1580 -0.3726
16248SOL     OW49321   3.970   5.986   1.605 -0.3043 -0.1064  0.1331
16248SOL    HW149322   4.046   5.975   1.547 -1.5414  1.1664 -1.8202
16248SOL    HW249323   3.909   5.918   1.577  0.0548 -1.1362  1.7163
16249SOL     OW49324   7.263   2.270   5.763 -0.5226  0.4516 -0.2686
16249SOL    HW149325   7.173   2.298   5.747 -0.6868  0.6508  0.8884
16249SOL    HW249326   7.276   2.194   5.705 -1.0265  1.1465 -1.3067
16250SOL     OW49327   2.508   9.206   6.492  0.7745 -0.6807  0.7267
16250SOL    HW149328   2.425   9.204   6.445  1.1555  1.6668 -0.1998
16250SOL    HW249329   2.575   9.212   6.424  1.5203  0.1425  1.4926
16251SOL     OW49330   2.284   1.498   5.870  0.4019  0.0635 -0.9078
16251SOL    HW149331   2.199   1.480   5.910  0.5035  0.7922 -0.3580
16251SOL    HW249332   2.272   1.474   5.778 -0.5278  0.5486 -0.9254
16252SOL     OW49333   5.244   9.352   5.901  0.1752 -0.4237 -0.5641
16252SOL    HW149334   5.199   9.422   5.949 -1.1672 -1.0297 -0.9178
16252SOL    HW249335   5.255   9.283   5.966  1.4327  0.0525 -0.2371
16253SOL     OW49336   9.224   2.762   6.579 -0.3280 -0.1945 -0.3967
16253SOL    HW149337   9.224   2.719   6.494  0.9022  0.0050 -0.5195
16253SOL    HW249338   9.180   2.846   6.564 -1.0962 -0.6163 -0.5653
16254SOL     OW49339   7.670   1.949   5.333  0.3077 -0.0646  0.1798
16254SOL    HW149340   7.727   2.024   5.315  0.3804  0.1552  1.2843
16254SOL    HW249341   7.683   1.891   5.258 -0.4824  1.4463 -1.2151
16255SOL     OW49342   6.095   3.653   9.553  0.1476 -0.0503 -0.4033
16255SOL    HW149343   6.022   3.702   9.592 -0.3497 -1.3482  0.3745
16255SOL    HW249344   6.053   3.580   9.508  0.9650 -1.0913  0.4664
16256SOL     OW49345   1.008   8.389   2.248 -0.2745  0.2633  0.1495
16256SOL    HW149346   1.081   8.417   2.193 -0.7006  1.0780 -0.0283
16256SOL    HW249347   0.951   8.466   2.252 -1.3187 -0.4771 -0.0440
16257SOL     OW49348   0.941   1.698   8.691  0.7208  0.1756 -0.1300
16257SOL    HW149349   0.852   1.710   8.724  0.3467  0.0589 -1.0789
16257SOL    HW249350   0.994   1.689   8.770 -0.1017  0.2606  0.4495
16258SOL     OW49351   5.169   8.878   5.085 -0.8713 -0.6282 -0.1303
16258SOL    HW149352   5.145   8.807   5.144 -2.2302  0.0144  0.1131
16258SOL    HW249353   5.149   8.958   5.134  1.6700 -0.0160  0.0470
16259SOL     OW49354   4.181   9.887   5.466 -0.3484  0.2324  0.1781
16259SOL    HW149355   4.107   9.832   5.443 -1.1582  1.9623 -1.6808
16259SOL    HW249356   4.178   9.892   5.562 -2.4918  0.0311  0.1788
16260SOL     OW49357   1.913   3.340   1.158  0.1221 -0.1839  0.1574
16260SOL    HW149358   1.992   3.342   1.211 -1.0283  1.8296  1.9417
16260SOL    HW249359   1.932   3.397   1.084 -0.4658  2.6776  2.0351
16261SOL     OW49360   5.767   2.027   1.746 -0.1683 -0.9797 -0.4393
16261SOL    HW149361   5.675   2.007   1.726 -0.8759  0.5381  1.0505
16261SOL    HW249362   5.793   1.961   1.809 -0.6865 -0.6276  0.1565
16262SOL     OW49363   6.122   5.078   9.762 -0.1584 -0.0572  0.2254
16262SOL    HW149364   6.124   5.173   9.776 -0.9801  0.0841 -0.5199
16262SOL    HW249365   6.195   5.044   9.815  0.5214  1.0415  0.0204
16263SOL     OW49366   9.049   1.179   5.873 -0.6169 -0.5736 -0.3605
16263SOL    HW149367   9.133   1.190   5.918 -0.7434  0.6256 -0.3922
16263SOL    HW249368   8.983   1.194   5.941 -0.8017 -0.3578 -0.5864
16264SOL     OW49369   6.653   3.950   1.424  0.3155 -0.3408 -0.9982
16264SOL    HW149370   6.744   3.979   1.414  0.1996  0.4286  0.0488
16264SOL    HW249371   6.620   3.945   1.334  0.5109  2.3125 -1.2954
16265SOL     OW49372   4.114   5.242   2.566 -0.0498 -0.8252 -0.3464
16265SOL    HW149373   4.047   5.229   2.633  3.7858  1.8252  4.7135
16265SOL    HW249374   4.083   5.318   2.516 -0.5686  1.0081  2.5355
16266SOL     OW49375   8.354   5.706   2.704 -0.5084  0.5455  1.0432
16266SOL    HW149376   8.417   5.772   2.676  2.0948 -2.3283 -0.5216
16266SOL    HW249377   8.394   5.664   2.781 -1.5036 -0.0484  1.2757
16267SOL     OW49378   5.165   9.226   6.919  0.1127  0.3563 -0.3196
16267SOL    HW149379   5.107   9.291   6.879 -0.8787  0.4547  1.1935
16267SOL    HW249380   5.221   9.278   6.977 -1.1769 -0.1547  1.4663
16268SOL     OW49381   2.442   4.918   6.723 -0.0961 -0.3596  0.3716
16268SOL    HW149382   2.461   4.850   6.658 -1.1445  0.5121 -0.8888
16268SOL    HW249383   2.471   4.879   6.806 -1.4579 -2.7209 -0.1482
16269SOL     OW49384   7.306   4.137   4.468  0.2490  0.2943 -0.0371
16269SOL    HW149385   7.361   4.072   4.423 -0.4454 -0.7814  0.6178
16269SOL    HW249386   7.309   4.214   4.412  0.1841 -0.6806 -1.4320
16270SOL     OW49387   6.500   4.385   8.484  0.2305 -0.5051 -0.0396
16270SOL    HW149388   6.551   4.425   8.413 -0.9116 -1.2904 -1.3484
16270SOL    HW249389   6.432   4.450   8.503 -0.3908 -0.9412 -0.7450
16271SOL     OW49390   8.402   8.525   2.851  0.1703  0.1114 -0.4168
16271SOL    HW149391   8.368   8.450   2.802 -0.5970 -0.9991  1.7146
16271SOL    HW249392   8.424   8.490   2.937  0.5396  2.1892  0.3910
16272SOL     OW49393   9.704   3.177   8.508 -0.5629  0.1838 -0.2807
16272SOL    HW149394   9.699   3.160   8.602 -0.8846  0.2264 -0.2866
16272SOL    HW249395   9.649   3.255   8.495  0.7598  1.1432 -0.2729
16273SOL     OW49396   0.951   4.105   0.973 -0.1835 -0.2911 -0.0884
16273SOL    HW149397   0.958   4.170   1.042  1.1930 -1.4065  0.8796
16273SOL    HW249398   0.859   4.080   0.972 -0.3502  0.2707  0.8488
16274SOL     OW49399   0.339   8.794   2.273 -0.4512  0.0838 -0.1548
16274SOL    HW149400   0.422   8.753   2.248 -0.7123 -0.0648 -0.8253
16274SOL    HW249401   0.283   8.782   2.196 -0.7431  1.1419 -0.1156
16275SOL     OW49402   2.142   9.597   0.207  0.0366  0.4394  0.0743
16275SOL    HW149403   2.158   9.589   0.301  2.1941  0.8968 -0.2028
16275SOL    HW249404   2.084   9.524   0.186  0.0508 -0.0488  1.6451
16276SOL     OW49405   5.479   7.247   7.047  0.1842  0.4289  0.1056
16276SOL    HW149406   5.555   7.233   7.103 -0.6560  0.3545  1.2545
16276SOL    HW249407   5.430   7.165   7.052 -0.2224  0.6474 -0.2323
16277SOL     OW49408   7.475   8.117   8.053  0.2610 -0.2753  0.1814
16277SOL    HW149409   7.446   8.206   8.036 -1.3743 -0.4837  1.6062
16277SOL    HW249410   7.541   8.126   8.121  0.0825 -0.1645  0.3390
16278SOL     OW49411   2.795   6.991   7.468 -0.7573 -0.2521 -0.0104
16278SOL    HW149412   2.790   7.067   7.526 -1.2961 -0.5730  0.3754
16278SOL    HW249413   2.759   7.022   7.385 -0.6918 -0.0035  0.0533
16279SOL     OW49414   8.426   4.862   3.744  0.0851 -0.3956  0.0440
16279SOL    HW149415   8.490   4.808   3.696  1.0257  0.3699  0.3943
16279SOL    HW249416   8.477   4.902   3.814 -0.4836  1.2865 -0.4681
16280SOL     OW49417   3.485   6.542   0.616  0.4527 -0.2298 -0.3584
16280SOL    HW149418   3.473   6.605   0.687  2.0016 -0.8720  0.5294
16280SOL    HW249419   3.426   6.470   0.638  0.2284 -0.0133 -0.2432
16281SOL     OW49420   6.002   4.315   3.209 -0.2343  0.5024 -0.4004
16281SOL    HW149421   5.998   4.221   3.195  0.5215  0.6216 -1.4675
16281SOL    HW249422   6.061   4.348   3.142  0.0605  1.6581  0.3901
16282SOL     OW49423   1.148   3.910   7.519  0.5712  0.1129 -0.0200
16282SOL    HW149424   1.075   3.952   7.472  0.3803 -2.1149 -1.9109
16282SOL    HW249425   1.174   3.974   7.585 -1.5522  1.9509 -0.8297
16283SOL     OW49426   9.012   6.012   0.451  0.4571  0.4722 -0.4802
16283SOL    HW149427   9.010   5.992   0.357 -1.0687  0.0449 -0.3832
16283SOL    HW249428   8.937   6.068   0.465 -0.5907 -1.1636  0.8260
16284SOL     OW49429   5.535   9.287   2.770  0.0365  0.0616  0.0124
16284SOL    HW149430   5.575   9.201   2.788  3.3950  1.5769  0.6658
16284SOL    HW249431   5.480   9.303   2.847  0.6893 -0.8304  0.7022
16285SOL     OW49432   7.408   0.431   3.670 -0.2460 -0.8694 -0.5544
16285SOL    HW149433   7.483   0.427   3.610  0.2720 -1.2623  0.0971
16285SOL    HW249434   7.336   0.465   3.617  0.5947  0.2896 -0.9858
16286SOL     OW49435   5.517   3.048   1.358  0.2678  0.4068  0.2592
16286SOL    HW149436   5.587   3.082   1.303  0.9334  0.0728  0.8847
16286SOL    HW249437   5.509   3.112   1.429 -0.5264  0.7917 -0.1608
16287SOL     OW49438   6.897   5.761   1.490 -0.0287  0.4517  0.9134
16287SOL    HW149439   6.825   5.768   1.552 -0.1481 -0.1641  0.8572
16287SOL    HW249440   6.879   5.680   1.442 -0.2823  1.2552 -0.3863
16288SOL     OW49441   3.341   7.389   9.909 -0.6241 -0.1419 -0.1932
16288SOL    HW149442   3.326   7.321   9.844  0.8408 -0.7517  0.0726
16288SOL    HW249443   3.295   7.358   9.987  0.8397 -1.3458  0.2306
16289SOL     OW49444   1.455   2.689   4.873 -0.6802  0.0065  0.0292
16289SOL    HW149445   1.471   2.648   4.788 -0.3026  0.8376 -0.3186
16289SOL    HW249446   1.536   2.673   4.923 -1.2086 -1.1885  0.5492
16290SOL     OW49447   5.875   5.518   4.184 -0.2183 -0.3105 -0.1730
16290SOL    HW149448   5.877   5.436   4.234  1.5772 -0.5251 -0.5051
16290SOL    HW249449   5.819   5.498   4.109  1.2969 -1.7434 -0.9920
16291SOL     OW49450   1.133   7.850   6.451  0.2856 -0.6003  0.6241
16291SOL    HW149451   1.145   7.922   6.389  1.5139 -2.4348 -1.4317
16291SOL    HW249452   1.052   7.871   6.497 -1.6435  0.1652 -2.7320
16292SOL     OW49453   1.247   8.137   3.174  0.0176 -0.0843 -0.0165
16292SOL    HW149454   1.187   8.211   3.185  0.7365  0.3548  1.0546
16292SOL    HW249455   1.262   8.104   3.263  0.3515 -1.0121 -0.3957
16293SOL     OW49456   5.842   8.382   4.460 -0.0464 -0.3237 -0.9123
16293SOL    HW149457   5.936   8.366   4.458  0.0808  0.2665  0.1168
16293SOL    HW249458   5.834   8.475   4.478 -0.8231 -0.8136  1.6810
16294SOL     OW49459   1.242   7.817   8.598 -0.0969  0.1491 -0.8940
16294SOL    HW149460   1.180   7.856   8.660  1.5394 -0.1436  0.9965
16294SOL    HW249461   1.325   7.862   8.614  0.7499 -1.0096 -1.8143
16295SOL     OW49462   7.899   5.729   1.484 -0.4403  0.5894 -0.1214
16295SOL    HW149463   7.945   5.694   1.561 -0.0750 -0.6670 -0.8946
16295SOL    HW249464   7.962   5.720   1.413 -1.7516 -0.8377 -1.1345
16296SOL     OW49465   8.257   4.650   5.686  0.0784  0.1706  0.3775
16296SOL    HW149466   8.259   4.626   5.593  0.0331  2.1785 -0.2037
16296SOL    HW249467   8.324   4.596   5.726 -0.8883 -1.7966 -0.5158
16297SOL     OW49468   4.459   5.191   6.744 -0.5705  0.8393  0.2888
16297SOL    HW149469   4.488   5.193   6.835  1.3792  1.2007 -0.2868
16297SOL    HW249470   4.519   5.129   6.702 -2.2953 -0.3705 -0.5005
16298SOL     OW49471   3.160   7.956   3.007 -0.0487  0.3795  0.0584
16298SOL    HW149472   3.083   7.903   3.029 -0.8858  0.9450 -1.4229
16298SOL    HW249473   3.201   7.973   3.092 -0.0015 -2.1971  0.6617
16299SOL     OW49474   7.179   4.814   8.112 -0.0516  0.2610 -0.4355
16299SOL    HW149475   7.123   4.867   8.055 -0.3682 -0.6292 -0.9579
16299SOL    HW249476   7.217   4.748   8.054  0.9382  0.3664  0.0635
16300SOL     OW49477   8.184   1.035   4.289  0.2315  0.1224 -0.4130
16300SOL    HW149478   8.203   0.976   4.217  0.4443  0.0495 -0.3005
16300SOL    HW249479   8.092   1.058   4.279  0.1084 -0.3500 -0.3681
16301SOL     OW49480   8.080   2.937   9.259 -0.2491 -0.4522  0.3802
16301SOL    HW149481   8.151   2.948   9.322  0.0051 -1.6314  0.3249
16301SOL    HW249482   8.040   2.853   9.283 -0.4897 -0.6570 -0.6841
16302SOL     OW49483   9.023   2.797   6.144 -0.3287  0.6570  0.2944
16302SOL    HW149484   8.959   2.728   6.160 -0.2672  0.7839  1.1344
16302SOL    HW249485   9.002   2.829   6.056  0.4336 -1.2658 -0.6529
16303SOL     OW49486   9.455   2.417   0.717 -0.0693 -0.0725 -0.3862
16303SOL    HW149487   9.362   2.424   0.739 -0.2628  1.1856 -1.4641
16303SOL    HW249488   9.482   2.507   0.697  1.3765 -0.4219 -0.1657
16304SOL     OW49489   6.377   8.082   2.163 -0.0712  0.0235  0.1360
16304SOL    HW149490   6.303   8.025   2.184 -1.4317  0.9799 -1.6942
16304SOL    HW249491   6.454   8.029   2.182 -1.2065 -3.2840 -3.1460
16305SOL     OW49492   3.679   5.873   1.396 -0.0970  0.4785 -0.6916
16305SOL    HW149493   3.687   5.779   1.407 -0.8556  0.3740 -0.9366
16305SOL    HW249494   3.589   5.893   1.423  0.0372  1.1247 -0.6906
16306SOL     OW49495   6.034   0.736   9.573 -0.2402 -0.3332 -0.2139
16306SOL    HW149496   5.964   0.714   9.635 -0.8143 -0.4508 -0.8874
16306SOL    HW249497   5.991   0.733   9.487  0.7446 -1.0494 -0.6984
16307SOL     OW49498   6.810   0.416   7.307  0.0406  0.2274 -0.0956
16307SOL    HW149499   6.727   0.424   7.260 -0.0737  2.2028  0.3278
16307SOL    HW249500   6.860   0.493   7.280  0.1870  1.1690  2.5538
16308SOL     OW49501   5.645   5.839   8.737 -0.1883  0.1584 -0.1462
16308SOL    HW149502   5.737   5.866   8.734 -0.0132 -0.4708 -1.9121
16308SOL    HW249503   5.646   5.757   8.785 -0.0298  0.7918  0.9630
16309SOL     OW49504   8.216   6.405   6.460  0.2413  0.0084 -0.1682
16309SOL    HW149505   8.138   6.460   6.468 -1.0517 -1.8972  1.1839
16309SOL    HW249506   8.218   6.354   6.541  0.4499 -3.0704 -1.9515
16310SOL     OW49507   6.235   3.577   9.182  0.0672 -0.2224 -0.5519
16310SOL    HW149508   6.264   3.537   9.263 -0.0305 -0.7671 -0.7819
16310SOL    HW249509   6.307   3.634   9.155  0.2336 -0.2968 -0.2589
16311SOL     OW49510   8.369   9.703   9.003 -0.3598  0.6974  0.1342
16311SOL    HW149511   8.346   9.710   8.911 -0.9287 -1.8183  0.0012
16311SOL    HW249512   8.464   9.701   9.005 -0.3451  0.8347 -0.3934
16312SOL     OW49513  -0.013   5.001   3.313  0.0178  0.8186  0.5807
16312SOL    HW149514   0.059   4.945   3.284 -0.8238  1.2577 -2.7235
16312SOL    HW249515   0.022   5.090   3.308 -1.0586  1.1617 -2.5073
16313SOL     OW49516   2.708   4.416   9.320  0.4144  0.3824  0.1899
16313SOL    HW149517   2.759   4.335   9.318 -0.7803 -0.3912 -0.7935
16313SOL    HW249518   2.762   4.479   9.271  0.4780 -0.4021 -0.7918
16314SOL     OW49519   8.844   2.916   0.265 -0.1331  0.3321  0.5466
16314SOL    HW149520   8.831   3.005   0.300 -1.6339 -0.3979  2.0275
16314SOL    HW249521   8.932   2.892   0.293 -0.0145  1.0718  0.8455
16315SOL     OW49522   0.935   8.679   6.964  0.0890 -0.0015  0.4831
16315SOL    HW149523   0.885   8.598   6.951 -0.8726  0.6377  0.1192
16315SOL    HW249524   0.882   8.729   7.027  0.3793  0.5938  0.2548
16316SOL     OW49525   2.990   3.813   5.057  0.2963 -0.6663 -0.2048
16316SOL    HW149526   3.038   3.874   5.113  0.3993 -0.8943 -0.0444
16316SOL    HW249527   3.016   3.836   4.968 -3.0615  2.5792 -0.5758
16317SOL     OW49528   1.939   0.173   8.695 -0.5054  0.2295 -0.2279
16317SOL    HW149529   1.982   0.162   8.610  0.8213  2.3528  0.0825
16317SOL    HW249530   1.937   0.268   8.709 -0.8252 -0.0429  2.0468
16318SOL     OW49531   6.420   7.519   4.502 -0.0913  0.2086  0.1677
16318SOL    HW149532   6.422   7.444   4.443  1.4309  0.6603 -0.3945
16318SOL    HW249533   6.392   7.482   4.586  1.5143 -1.1767  0.1384
16319SOL     OW49534   8.530   1.428   4.476 -0.2657  0.3755  0.3184
16319SOL    HW149535   8.497   1.510   4.511  0.4318  0.4407  0.8414
16319SOL    HW249536   8.473   1.409   4.401  0.2237  1.8697 -0.4747
16320SOL     OW49537   0.349   4.857   2.419 -0.2732 -0.1032 -0.9138
16320SOL    HW149538   0.429   4.848   2.366 -0.1698 -0.7729 -0.6572
16320SOL    HW249539   0.381   4.862   2.509 -0.5444 -1.1411 -0.7437
16321SOL     OW49540   1.718   9.823   9.878 -0.3086  0.4802  0.1044
16321SOL    HW149541   1.632   9.862   9.866 -0.1241  0.4987 -1.3663
16321SOL    HW249542   1.772   9.893   9.914 -0.6119  0.8056 -0.0722
16322SOL     OW49543   3.219   2.460   8.103  0.0614 -0.0087  0.0379
16322SOL    HW149544   3.313   2.451   8.085  0.3503  1.4897  0.5925
16322SOL    HW249545   3.191   2.373   8.128  0.8962 -0.8979 -1.8760
16323SOL     OW49546   5.629   6.531   4.334 -0.1436  0.5423  0.3754
16323SOL    HW149547   5.591   6.444   4.339 -1.4176  1.0965  0.5546
16323SOL    HW249548   5.619   6.568   4.422 -0.7173  1.3067  0.0064
16324SOL     OW49549   3.812   0.608   2.835  0.6298  0.6312  0.1575
16324SOL    HW149550   3.907   0.609   2.835  0.6995 -1.6515  0.0574
16324SOL    HW249551   3.787   0.700   2.844  2.8166  1.3540 -0.5795
16325SOL     OW49552   4.264   3.048   9.376  0.6212 -0.5811 -0.4535
16325SOL    HW149553   4.228   3.130   9.344  2.3945  0.9295  1.1381
16325SOL    HW249554   4.219   3.033   9.459  2.4087  0.5545  0.8225
16326SOL     OW49555   7.266   9.412   0.351 -0.1150 -0.1035 -0.3293
16326SOL    HW149556   7.256   9.503   0.322 -2.0022 -0.6604 -1.6344
16326SOL    HW249557   7.275   9.419   0.447 -1.1713  1.4336 -0.2920
16327SOL     OW49558   1.825   8.315   6.423  0.4889  0.4596  0.4695
16327SOL    HW149559   1.847   8.298   6.514  0.8171  1.8554  0.6782
16327SOL    HW249560   1.810   8.410   6.419 -3.0264  0.0157 -0.2033
16328SOL     OW49561   4.918   7.284   8.007 -0.1161 -0.0285 -0.0688
16328SOL    HW149562   4.953   7.364   8.047  1.8507 -1.5579  1.4153
16328SOL    HW249563   4.968   7.274   7.926  0.8963 -0.6529  0.6132
16329SOL     OW49564   2.158   7.727   7.035  0.5443 -0.3667  0.1235
16329SOL    HW149565   2.140   7.773   6.953  2.2533 -2.3653 -1.5151
16329SOL    HW249566   2.217   7.785   7.083  0.1429  0.5037 -0.4249
16330SOL     OW49567   0.937   7.689   8.691 -0.0515  0.3637 -0.0666
16330SOL    HW149568   0.895   7.665   8.609  0.8239  1.9193 -1.0169
16330SOL    HW249569   1.008   7.626   8.701 -0.2605  0.0676 -0.4184
16331SOL     OW49570   2.089   5.884   1.411  0.0804  0.0110 -0.3382
16331SOL    HW149571   2.110   5.791   1.402 -1.7122 -0.3770 -0.9414
16331SOL    HW249572   2.129   5.910   1.494  0.8923 -1.2138 -0.3351
16332SOL     OW49573   0.190   5.718   8.423  0.2758 -0.1729 -0.0669
16332SOL    HW149574   0.120   5.741   8.484  1.2742  0.1295  1.0166
16332SOL    HW249575   0.270   5.748   8.467  1.2206 -1.7916 -0.6188
16333SOL     OW49576   4.162   2.233   4.823  0.4209 -0.5253  0.4840
16333SOL    HW149577   4.250   2.250   4.856  0.0198  0.9943  0.8769
16333SOL    HW249578   4.124   2.320   4.809 -1.3665 -1.0993  1.3250
16334SOL     OW49579   6.075   1.649   6.774  0.0805  0.0801  0.3389
16334SOL    HW149580   6.055   1.717   6.838 -1.5601 -0.2962  0.2582
16334SOL    HW249581   6.012   1.579   6.792  1.0239 -0.9614 -0.2848
16335SOL     OW49582   4.378   7.494   9.780  0.1161  0.1555  0.0257
16335SOL    HW149583   4.376   7.588   9.762 -0.3105 -0.0540 -1.0557
16335SOL    HW249584   4.465   7.466   9.753  0.6405  0.4047  1.3411
16336SOL     OW49585   2.921   5.567   4.480  0.2784  0.2257  0.3362
16336SOL    HW149586   2.973   5.603   4.407 -0.7098  0.4622 -0.2730
16336SOL    HW249587   2.986   5.529   4.539  1.0967 -0.2012 -0.7984
16337SOL     OW49588   0.116   4.462   8.817  0.5111  0.6276  0.4698
16337SOL    HW149589   0.098   4.523   8.889 -2.6909 -1.0643  1.2714
16337SOL    HW249590   0.045   4.477   8.755  0.8261 -0.8835 -0.2942
16338SOL     OW49591   4.903   3.672   9.086  0.1132 -0.4927  0.5711
16338SOL    HW149592   4.904   3.614   9.011  1.6979 -1.0271  0.9683
16338SOL    HW249593   4.811   3.676   9.112 -0.2333 -1.5930 -0.3925
16339SOL     OW49594   2.469   1.111   8.969 -0.0292  0.1296 -0.5213
16339SOL    HW149595   2.524   1.189   8.968 -0.5066  0.4773 -0.3007
16339SOL    HW249596   2.403   1.130   9.035  0.1225 -0.6571 -0.1376
16340SOL     OW49597   3.339   8.478   9.066 -0.1067 -0.0522  0.4121
16340SOL    HW149598   3.348   8.387   9.095 -1.7193 -1.4142 -2.9431
16340SOL    HW249599   3.251   8.504   9.094  0.3534  0.5719  1.3758
16341SOL     OW49600   7.126   6.090   8.990 -0.1448 -0.4500  0.0030
16341SOL    HW149601   7.109   6.146   8.915 -1.2672 -0.3320  0.3373
16341SOL    HW249602   7.158   6.149   9.058 -1.5177 -0.1474  0.4224
16342SOL     OW49603   5.926   2.506   1.124  0.5726  0.4703 -0.0477
16342SOL    HW149604   5.867   2.437   1.094 -0.3387  1.6953 -1.2110
16342SOL    HW249605   5.936   2.490   1.218 -1.2646 -0.0431  0.1046
16343SOL     OW49606   2.324   2.388   1.332  0.0465 -0.3082  0.0897
16343SOL    HW149607   2.328   2.477   1.367  0.0475  0.1879 -1.1109
16343SOL    HW249608   2.412   2.352   1.347  0.1016 -0.0412  0.4113
16344SOL     OW49609   2.069   9.225   5.425  0.1646  0.0776  0.0210
16344SOL    HW149610   2.036   9.299   5.375  2.3894  2.0773  1.3182
16344SOL    HW249611   2.163   9.222   5.405  0.2883 -1.8552  0.6723
16345SOL     OW49612   0.859   9.486   5.423  0.0950  0.4060  0.6283
16345SOL    HW149613   0.913   9.565   5.419  0.2771  0.2561 -0.1567
16345SOL    HW249614   0.920   9.415   5.403 -0.0873  0.0706  1.2351
16346SOL     OW49615   1.169   9.297   5.634 -0.4704  0.1844  0.1540
16346SOL    HW149616   1.119   9.282   5.555  0.3238 -0.8873 -0.1692
16346SOL    HW249617   1.155   9.218   5.687  1.2457 -0.3658 -0.1647
16347SOL     OW49618   3.953   6.014   3.217 -0.4317 -0.0728  0.0128
16347SOL    HW149619   4.030   5.962   3.193 -0.8075 -0.9510  0.6836
16347SOL    HW249620   3.900   6.016   3.137 -0.5570 -0.9850  0.0659
16348SOL     OW49621   7.756   6.849   1.251  0.4947 -0.1040 -0.1478
16348SOL    HW149622   7.799   6.933   1.265  2.6121 -0.9733 -0.9632
16348SOL    HW249623   7.828   6.788   1.231 -1.1313 -1.6583 -1.6852
16349SOL     OW49624   6.980   2.268   2.743  0.4547 -0.9248 -0.5952
16349SOL    HW149625   6.915   2.312   2.797 -0.1543 -3.0714  0.5641
16349SOL    HW249626   6.934   2.249   2.661  0.3685 -0.4087 -0.6667
16350SOL     OW49627   5.789   4.676   9.288 -0.3926 -0.0649 -0.3838
16350SOL    HW149628   5.721   4.706   9.228 -0.7979  1.0625  0.5950
16350SOL    HW249629   5.763   4.710   9.373 -0.3507 -2.4731  0.6572
16351SOL     OW49630   7.276   1.225   7.422  0.1499  0.1171 -0.3851
16351SOL    HW149631   7.208   1.273   7.374  0.8684  1.1933 -0.3620
16351SOL    HW249632   7.237   1.208   7.508  0.8519  3.2431  0.6714
16352SOL     OW49633   1.733   1.699   8.209  0.0755  0.0451  0.7064
16352SOL    HW149634   1.806   1.661   8.160 -1.1177 -1.5883  0.1204
16352SOL    HW249635   1.719   1.785   8.169  0.4086 -0.4391 -0.4800
16353SOL     OW49636   6.770   8.926   9.158 -0.0155  0.1855 -0.4054
16353SOL    HW149637   6.822   8.849   9.137  1.0671  0.2064  1.8389
16353SOL    HW249638   6.787   8.987   9.086 -1.2625 -1.7402 -2.4767
16354SOL     OW49639   0.680   3.236   7.747  0.1119  0.3557 -0.3716
16354SOL    HW149640   0.599   3.207   7.791  0.9485 -0.6866  0.5413
16354SOL    HW249641   0.663   3.327   7.724 -2.2455 -0.4574 -2.3789
16355SOL     OW49642   4.775   1.378   3.986 -0.2219  0.7979  0.5732
16355SOL    HW149643   4.851   1.427   3.953  0.5536 -0.6508  0.1372
16355SOL    HW249644   4.805   1.344   4.071  0.1963 -1.0702 -0.2957
16356SOL     OW49645   3.461   9.239   3.366  0.1803  0.0156  0.0306
16356SOL    HW149646   3.384   9.260   3.313 -0.6192 -0.3191  1.0287
16356SOL    HW249647   3.523   9.310   3.348 -0.0497 -0.1222 -1.3780
16357SOL     OW49648   8.012   4.646   6.480  0.0984  0.1566 -0.0459
16357SOL    HW149649   8.032   4.739   6.472  0.9587 -0.0953 -1.1278
16357SOL    HW249650   8.066   4.604   6.412  0.3231 -1.2139  0.9315
16358SOL     OW49651   7.415   5.535   7.067 -0.1233  0.1025 -0.0893
16358SOL    HW149652   7.415   5.557   7.160  0.6544 -0.2368  0.0056
16358SOL    HW249653   7.345   5.587   7.030 -1.3614 -0.7808  0.9220
16359SOL     OW49654   6.314   6.997   9.675  0.2592  0.3207  0.0786
16359SOL    HW149655   6.283   6.911   9.704  0.0309  0.6693  0.8682
16359SOL    HW249656   6.304   6.994   9.579  0.6436 -0.6807  0.0477
16360SOL     OW49657   4.827   3.083   5.984 -0.0263  0.3988  0.0194
16360SOL    HW149658   4.802   3.173   5.961  2.8707  1.1752 -0.5511
16360SOL    HW249659   4.809   3.032   5.905  0.3281  0.9538 -0.4318
16361SOL     OW49660   8.599   9.310   2.381 -0.0077  0.3016 -0.2021
16361SOL    HW149661   8.524   9.257   2.408  0.2972 -0.9761 -1.7515
16361SOL    HW249662   8.658   9.249   2.338  2.0492  1.2540  1.1455
16362SOL     OW49663   6.497   2.863   8.018  0.4051  0.0888  0.3088
16362SOL    HW149664   6.581   2.891   7.983  0.3655 -1.1506 -0.8756
16362SOL    HW249665   6.442   2.850   7.941 -0.1359 -1.3461  0.8920
16363SOL     OW49666   7.445   7.340   3.517 -0.8811  0.0715  0.3876
16363SOL    HW149667   7.416   7.367   3.429  0.7897 -1.4229 -0.6968
16363SOL    HW249668   7.398   7.258   3.533  0.2228 -0.6657  0.0108
16364SOL     OW49669   3.694   2.731   4.819 -0.1848  0.4197  0.3889
16364SOL    HW149670   3.600   2.749   4.816 -0.3625 -0.5488 -0.8065
16364SOL    HW249671   3.708   2.668   4.748  1.4294  0.8261  0.3105
16365SOL     OW49672   6.771   1.902   6.508 -0.8661  0.1484 -0.5017
16365SOL    HW149673   6.793   1.852   6.586  0.2962  0.9896 -0.2641
16365SOL    HW249674   6.689   1.947   6.530  0.3620  1.7865  0.9364
16366SOL     OW49675   3.319   0.753   3.502  0.1836  0.4492  0.1634
16366SOL    HW149676   3.329   0.842   3.467  1.0479  0.6743  0.9322
16366SOL    HW249677   3.409   0.726   3.522 -0.0900 -0.5502  0.0542
16367SOL     OW49678   5.224   1.476   0.059 -0.8466 -0.7021  0.4983
16367SOL    HW149679   5.143   1.457   0.107 -0.6117 -0.7887  0.8624
16367SOL    HW249680   5.239   1.397   0.007 -0.6720 -0.9334  0.8912
16368SOL     OW49681   0.730   6.361   3.914  0.3524  0.4055  0.0805
16368SOL    HW149682   0.694   6.308   3.985  0.4743  0.0953 -0.0878
16368SOL    HW249683   0.823   6.370   3.935  0.4552  0.0375 -0.2102
16369SOL     OW49684   7.260   5.666   0.082 -0.2520 -0.2398  0.0245
16369SOL    HW149685   7.344   5.686   0.040 -0.4419  0.8463  0.1435
16369SOL    HW249686   7.270   5.575   0.112  0.0576 -0.8926 -1.9297
16370SOL     OW49687   8.384   6.795   7.321  0.7609  0.1743  0.3706
16370SOL    HW149688   8.460   6.740   7.339 -1.1558 -2.2248  1.9379
16370SOL    HW249689   8.374   6.793   7.226  1.4503 -1.2826  0.2967
16371SOL     OW49690   6.643   8.753   8.444  0.0651 -0.4713 -0.3725
16371SOL    HW149691   6.668   8.717   8.529 -1.0638 -0.6371 -0.0961
16371SOL    HW249692   6.556   8.789   8.458  0.1052  0.0233 -1.3193
16372SOL     OW49693   9.228   4.562   8.637 -0.1638  0.2300  0.2644
16372SOL    HW149694   9.170   4.526   8.703 -0.5938 -0.0857 -0.2771
16372SOL    HW249695   9.171   4.614   8.580 -0.1223 -0.9376 -0.8865
16373SOL     OW49696   7.573   4.395   3.004 -0.4428 -0.1293  0.0076
16373SOL    HW149697   7.551   4.370   3.093 -0.2468  1.7303  0.6117
16373SOL    HW249698   7.604   4.313   2.963  1.0610 -0.6916  2.1193
16374SOL     OW49699   0.176   0.985   0.948 -0.1863  0.0637 -0.5793
16374SOL    HW149700   0.088   0.952   0.964 -0.2350  0.4173 -0.1014
16374SOL    HW249701   0.224   0.966   1.029  0.3899 -0.8024 -1.1017
16375SOL     OW49702   7.054   0.447   2.961 -0.0927 -0.1042 -0.3622
16375SOL    HW149703   7.054   0.502   2.883  0.2609  2.9806  1.6187
16375SOL    HW249704   7.138   0.402   2.960  0.7544  1.4247 -0.8336
16376SOL     OW49705   9.293   9.573   7.033  0.6216 -0.1692  0.0010
16376SOL    HW149706   9.297   9.645   6.970  1.4965  0.4216  0.7095
16376SOL    HW249707   9.251   9.502   6.984  1.2707  0.2696 -1.2505
16377SOL     OW49708   9.372   4.511   9.645 -0.1276  0.2061 -0.6634
16377SOL    HW149709   9.377   4.555   9.560 -1.7537  0.0836 -0.8680
16377SOL    HW249710   9.416   4.427   9.632  1.1442  0.8787 -0.8681
16378SOL     OW49711   6.959   5.465   7.446 -0.0073  0.1673 -0.2967
16378SOL    HW149712   7.017   5.540   7.451  0.4485 -0.2202  0.2933
16378SOL    HW249713   6.871   5.503   7.444  0.2537  0.7578 -1.3388
16379SOL     OW49714   9.469   3.772   4.709 -0.1190  0.3790 -0.2959
16379SOL    HW149715   9.432   3.858   4.730  0.3587  0.8219 -1.2388
16379SOL    HW249716   9.508   3.743   4.792 -0.8872  0.7512  0.2150
16380SOL     OW49717   0.529   7.598   5.914  0.0063 -0.0483 -0.0671
16380SOL    HW149718   0.508   7.544   5.990  0.3226  2.0917  1.6320
16380SOL    HW249719   0.602   7.553   5.872  0.4928 -0.7708  1.4810
16381SOL     OW49720  -0.000   9.746   5.472 -0.4912 -0.7126  0.2267
16381SOL    HW149721   0.040   9.662   5.493 -1.0897 -1.0394  0.1034
16381SOL    HW249722   0.048   9.777   5.395 -2.7584 -2.8735 -2.2854
16382SOL     OW49723   9.947   1.747   2.292  0.1180  0.2577 -0.3665
16382SOL    HW149724   9.859   1.781   2.308  0.7914  1.4236  1.0856
16382SOL    HW249725  10.001   1.787   2.360  1.5895 -1.2415 -0.5906
16383SOL     OW49726   7.982   4.031   2.955 -0.0931 -0.2783  0.1529
16383SOL    HW149727   8.002   4.122   2.975 -1.5283  0.5237 -1.7003
16383SOL    HW249728   8.034   4.012   2.877 -0.1911 -0.8947  0.2332
16384SOL     OW49729   0.876   8.032   5.183 -0.7975  1.1999 -0.3235
16384SOL    HW149730   0.932   7.956   5.168  0.9036  2.4630 -0.7314
16384SOL    HW249731   0.834   8.015   5.267  0.2027  0.1912 -0.0048
16385SOL     OW49732   1.674   4.656   4.161 -0.0068  0.1613  0.2096
16385SOL    HW149733   1.672   4.680   4.068  0.9225  0.4960  0.2662
16385SOL    HW249734   1.767   4.648   4.182 -0.2106 -0.0160  1.0887
16386SOL     OW49735   5.970   8.655   0.577 -0.1984 -0.2100 -0.3678
16386SOL    HW149736   6.049   8.601   0.577 -0.7170 -1.0499 -2.1803
16386SOL    HW249737   5.898   8.594   0.562 -1.4724  0.2981  2.8542
16387SOL     OW49738   9.911   5.379   9.882 -0.1987 -0.8088  0.5731
16387SOL    HW149739   9.876   5.293   9.904 -2.1851 -0.0762  0.5148
16387SOL    HW249740   9.846   5.416   9.822  0.8546  0.5411  0.2272
16388SOL     OW49741   1.437   8.757   2.531  0.1094 -0.2995 -0.0881
16388SOL    HW149742   1.377   8.831   2.527 -0.5569 -0.8619 -1.0929
16388SOL    HW249743   1.434   8.728   2.622 -1.0930 -0.2628 -0.1059
16389SOL     OW49744   5.288   8.256   4.486  0.0390 -0.5120 -0.1751
16389SOL    HW149745   5.292   8.185   4.550 -0.6512 -1.1561 -0.8301
16389SOL    HW249746   5.297   8.213   4.401 -0.7195  0.1297 -0.5985
16390SOL     OW49747   9.956   7.492   0.450  0.2109 -0.1840  0.3625
16390SOL    HW149748   9.917   7.563   0.398 -0.1000  0.1437  1.0270
16390SOL    HW249749   9.897   7.483   0.525  1.1842  0.0325  1.1712
16391SOL     OW49750   8.084   8.839   0.275  0.7493 -0.1298 -0.3603
16391SOL    HW149751   8.002   8.790   0.277  0.2657  0.6703 -0.0089
16391SOL    HW249752   8.151   8.774   0.253 -0.2071 -0.4565 -2.5784
16392SOL     OW49753   8.405   6.286   1.807  0.4721  0.3883 -0.3213
16392SOL    HW149754   8.489   6.267   1.765  0.4140  1.0004 -0.7304
16392SOL    HW249755   8.415   6.373   1.845 -0.0430  0.5647 -0.5682
16393SOL     OW49756   7.658   1.218   4.150 -0.3173  0.2969  0.6823
16393SOL    HW149757   7.591   1.202   4.083  0.7581 -0.7150 -0.2096
16393SOL    HW249758   7.702   1.133   4.160  1.6313  1.1912  0.3017
16394SOL     OW49759   5.078   2.120   8.900  0.0121  0.3350 -1.0741
16394SOL    HW149760   5.132   2.196   8.879  1.2148 -0.5680 -1.3897
16394SOL    HW249761   4.998   2.133   8.851 -0.1508  1.7962 -0.4713
16395SOL     OW49762   6.011   7.206   1.217 -0.3622 -0.0213 -0.1013
16395SOL    HW149763   5.938   7.152   1.246 -1.0694  0.7053 -0.4981
16395SOL    HW249764   6.074   7.143   1.180 -0.9642 -0.6183 -0.1223
16396SOL     OW49765   8.700   7.406   7.789 -0.2021  0.6983 -0.5740
16396SOL    HW149766   8.768   7.460   7.830  2.0724 -1.0913 -1.7173
16396SOL    HW249767   8.648   7.372   7.861  1.2701  0.6942  0.5271
16397SOL     OW49768   8.565   4.591   4.827  0.0031 -0.0179  0.3164
16397SOL    HW149769   8.653   4.629   4.819  1.1772 -2.2973  1.3960
16397SOL    HW249770   8.517   4.624   4.752  2.7778 -1.1675 -2.1402
16398SOL     OW49771   5.806   2.392   3.216  0.1927 -0.1174  0.0920
16398SOL    HW149772   5.753   2.447   3.274 -1.0560 -0.9659 -0.2133
16398SOL    HW249773   5.775   2.302   3.233  3.6071 -1.1030  2.1701
16399SOL     OW49774   0.170   4.490   6.101  0.1115 -0.7453 -0.3967
16399SOL    HW149775   0.233   4.457   6.166 -0.4679 -1.7807 -0.3273
16399SOL    HW249776   0.211   4.568   6.065  0.3705 -0.0210  1.3504
16400SOL     OW49777   7.403   4.565   2.877 -0.6350 -0.4927 -0.1100
16400SOL    HW149778   7.447   4.507   2.938  0.4227  0.7061  0.2961
16400SOL    HW249779   7.389   4.646   2.926  1.8183  1.1416 -1.8797
16401SOL     OW49780   5.382   1.824   0.032  0.7471  0.0376 -0.2618
16401SOL    HW149781   5.388   1.874   0.114 -0.3080 -1.6602  0.8995
16401SOL    HW249782   5.403   1.734   0.057  1.0418 -0.4218 -2.0079
16402SOL     OW49783   0.862   0.556   2.238  0.0998  0.0747  0.3071
16402SOL    HW149784   0.812   0.538   2.158  0.7571  2.9264 -0.8363
16402SOL    HW249785   0.945   0.509   2.226  0.1307  0.3634 -0.6012
16403SOL     OW49786   9.609   7.167   9.479  0.0527  0.2309 -0.3812
16403SOL    HW149787   9.674   7.098   9.492  0.9618  1.3005  1.0655
16403SOL    HW249788   9.614   7.221   9.558  0.3645  2.7628 -2.0025
16404SOL     OW49789   8.802   3.678   1.306 -0.3423 -0.0385  0.6878
16404SOL    HW149790   8.874   3.734   1.337  0.6697 -1.6157  1.3634
16404SOL    HW249791   8.775   3.716   1.223  0.9130  0.9281  0.6969
16405SOL     OW49792   5.784   8.479   2.864  0.6224  0.3291  0.4445
16405SOL    HW149793   5.834   8.551   2.903  1.4489 -0.2624  0.5068
16405SOL    HW249794   5.737   8.441   2.938 -2.1313  2.5389 -0.0013
16406SOL     OW49795   7.374   5.345   1.578 -0.0613 -0.0128  0.5990
16406SOL    HW149796   7.426   5.304   1.510  1.8436  1.1069  1.2940
16406SOL    HW249797   7.435   5.358   1.651 -1.4948  0.7206  1.7306
16407SOL     OW49798   9.544   2.620   5.650  0.3403  0.1360 -0.1702
16407SOL    HW149799   9.476   2.567   5.693  1.7966 -0.6720  1.2172
16407SOL    HW249800   9.559   2.576   5.567  0.8868 -1.1222  0.5768
16408SOL     OW49801   5.101   7.641   5.619  0.1570 -0.0036  0.5620
16408SOL    HW149802   5.141   7.577   5.559  0.2950 -0.1334  0.7919
16408SOL    HW249803   5.169   7.657   5.684 -0.6297 -1.2432  1.7397
16409SOL     OW49804   8.360   6.593   1.572  0.7965 -0.9109 -0.0934
16409SOL    HW149805   8.372   6.668   1.514 -0.5011 -1.5040 -1.1525
16409SOL    HW249806   8.366   6.631   1.660  0.3941  0.3943 -0.6003
16410SOL     OW49807   0.856   2.117   3.279  0.4054 -1.0452 -0.4451
16410SOL    HW149808   0.778   2.114   3.224  0.3618 -1.8517 -0.3534
16410SOL    HW249809   0.847   2.042   3.338 -0.0360  0.3168  1.3356
16411SOL     OW49810   9.561   5.076   5.590  0.0459 -0.3390  0.0812
16411SOL    HW149811   9.636   5.137   5.586  1.6153 -2.1983 -0.2030
16411SOL    HW249812   9.536   5.076   5.683  0.5033  0.1717  0.2171
16412SOL     OW49813   0.524   5.402   5.150  0.1823  0.0362  0.1893
16412SOL    HW149814   0.586   5.444   5.090 -0.1126  1.1750  0.6658
16412SOL    HW249815   0.452   5.374   5.094  1.5805 -2.3389 -0.5660
16413SOL     OW49816   1.504   8.285   0.892  0.3334 -0.2845 -0.3924
16413SOL    HW149817   1.455   8.298   0.811  0.2506 -2.4171 -0.7380
16413SOL    HW249818   1.588   8.248   0.864  0.6749 -0.1473  0.4290
16414SOL     OW49819   4.040   9.581   3.334 -0.4365 -0.1363 -0.3906
16414SOL    HW149820   4.006   9.492   3.335  0.7020 -0.5786 -0.2233
16414SOL    HW249821   4.068   9.595   3.244 -0.6103  0.0596 -0.4159
16415SOL     OW49822   9.025   0.582   5.262 -0.1806 -0.0965 -0.7990
16415SOL    HW149823   9.113   0.545   5.269  0.6646  1.9309  0.0708
16415SOL    HW249824   8.973   0.532   5.325  1.4088  1.3917  1.8668
16416SOL     OW49825   3.667   7.638   1.918 -0.2847 -0.1758  0.1257
16416SOL    HW149826   3.649   7.584   1.994 -2.4642 -1.0046 -0.9125
16416SOL    HW249827   3.732   7.702   1.949 -0.3123 -1.1350  2.3464
16417SOL     OW49828   7.691   1.393   0.119  0.2272 -0.1297 -0.3860
16417SOL    HW149829   7.735   1.477   0.114  2.0754 -1.0689 -0.7721
16417SOL    HW249830   7.598   1.413   0.108  0.7979  1.6452 -2.5471
16418SOL     OW49831   1.547   1.971   1.081  0.4961  0.5195  0.3313
16418SOL    HW149832   1.459   2.009   1.082  0.6871  0.9780  0.2395
16418SOL    HW249833   1.604   2.045   1.059  1.0847  0.6045  2.0025
16419SOL     OW49834   3.096   1.375   0.264  0.4279  0.2745 -0.0875
16419SOL    HW149835   3.171   1.399   0.210  0.9880  1.8310  1.2880
16419SOL    HW249836   3.071   1.456   0.308 -1.9068 -0.2684 -0.2795
16420SOL     OW49837   2.393   2.973   2.607  0.0137 -0.3525 -0.1932
16420SOL    HW149838   2.305   2.954   2.573 -0.8519  2.0682  0.4630
16420SOL    HW249839   2.419   2.893   2.652 -1.8366 -1.1705 -0.4735
16421SOL     OW49840   1.522   7.572   6.677  0.0304  0.4140  0.0084
16421SOL    HW149841   1.543   7.665   6.685  0.0154  0.4240 -0.0703
16421SOL    HW249842   1.452   7.558   6.742  1.0308  0.1378  1.0643
16422SOL     OW49843   9.667   1.283   0.953  0.4280  0.3724  0.5261
16422SOL    HW149844   9.712   1.228   1.017  0.9458  0.7685  0.5040
16422SOL    HW249845   9.620   1.221   0.897  0.5953 -0.0191  0.8171
16423SOL     OW49846   8.576   3.329   6.312 -0.5693 -0.1376  0.4400
16423SOL    HW149847   8.498   3.384   6.303 -0.9507 -0.5984  0.8954
16423SOL    HW249848   8.585   3.314   6.406 -0.7840 -1.2916  0.2902
16424SOL     OW49849   6.913   3.023   6.526  0.3941  0.5080  0.0148
16424SOL    HW149850   6.881   2.976   6.449  1.3945  1.0094 -0.7290
16424SOL    HW249851   7.008   3.016   6.521  0.4764 -0.0435  1.6021
16425SOL     OW49852   5.787   4.442   9.398 -0.5095 -0.1764  1.0971
16425SOL    HW149853   5.796   4.526   9.353 -2.2406  0.0857  1.1935
16425SOL    HW249854   5.813   4.377   9.332  0.0197  0.3813  0.7472
16426SOL     OW49855   8.275   4.067   0.764  0.0325  0.2930  0.4727
16426SOL    HW149856   8.263   4.162   0.764 -2.3645  0.0602 -0.7489
16426SOL    HW249857   8.242   4.039   0.849 -0.0484  0.4751  0.5023
16427SOL     OW49858   8.139   8.175   6.515  0.2467 -0.5186  0.1421
16427SOL    HW149859   8.234   8.163   6.511  0.5390  0.8534  1.9520
16427SOL    HW249860   8.104   8.097   6.474  2.1411 -1.5132  0.2917
16428SOL     OW49861   3.603   8.527   3.940  0.5204  0.0630  0.2059
16428SOL    HW149862   3.612   8.431   3.942 -1.3514 -0.1529 -0.2081
16428SOL    HW249863   3.586   8.548   3.848 -1.7425  0.4619  0.6525
16429SOL     OW49864   5.010   6.373   8.171  0.2135  0.3959  0.1973
16429SOL    HW149865   4.953   6.390   8.097 -0.1152  1.4074  0.6622
16429SOL    HW249866   5.038   6.282   8.160 -0.6767  0.2059 -0.5750
16430SOL     OW49867   1.595   9.637   0.811  0.2021 -0.0113  0.0981
16430SOL    HW149868   1.579   9.543   0.811 -0.0563  0.0322 -0.0972
16430SOL    HW249869   1.660   9.650   0.742 -2.1054  0.3369 -2.1645
16431SOL     OW49870   2.382   8.120   8.401  0.3233 -0.2506  0.5074
16431SOL    HW149871   2.322   8.193   8.391  1.1302  0.4435  0.6201
16431SOL    HW249872   2.330   8.043   8.381 -0.3928  0.4010 -0.1733
16432SOL     OW49873   4.790   6.433   8.635  0.0537  0.0576  0.9827
16432SOL    HW149874   4.736   6.417   8.557  1.8591  0.0684 -0.3301
16432SOL    HW249875   4.847   6.357   8.641  1.8451  1.3018  0.6058
16433SOL     OW49876   5.777   4.053   1.093  0.2607  0.0966  0.0273
16433SOL    HW149877   5.736   4.139   1.095  0.9711  0.4508 -0.1233
16433SOL    HW249878   5.869   4.070   1.116  0.0874 -0.8241  1.5580
16434SOL     OW49879   2.222   3.347   8.041  0.1348 -0.0941 -0.5697
16434SOL    HW149880   2.139   3.337   8.089 -0.8580  0.7139 -2.0406
16434SOL    HW249881   2.252   3.434   8.064  1.0128 -0.6639  0.5560
16435SOL     OW49882   5.129   6.764   0.745 -0.0826  0.1749  0.5187
16435SOL    HW149883   5.102   6.840   0.795  0.6652  0.3672  0.6422
16435SOL    HW249884   5.078   6.769   0.664  1.4164  1.9776 -0.4003
16436SOL     OW49885   1.304   8.087   9.127 -0.3494  0.5262 -0.3632
16436SOL    HW149886   1.302   8.010   9.070  0.1428  0.5415 -0.4100
16436SOL    HW249887   1.387   8.129   9.106 -0.5786  1.0263 -0.2776
16437SOL     OW49888   3.608   3.341   9.614 -0.6059 -0.2527 -0.2795
16437SOL    HW149889   3.591   3.430   9.645 -1.3540 -0.5211  0.1127
16437SOL    HW249890   3.663   3.352   9.536  0.0748  0.5017  0.2971
16438SOL     OW49891   7.451   5.427   0.384  0.3125  0.0752  0.1680
16438SOL    HW149892   7.437   5.394   0.473  0.8964  0.6922  0.5003
16438SOL    HW249893   7.497   5.510   0.397  1.9493 -0.6550 -0.7670
16439SOL     OW49894   4.058   6.223   0.325 -0.1643  0.1872  0.5204
16439SOL    HW149895   4.083   6.135   0.354 -0.9953 -0.2649 -0.1008
16439SOL    HW249896   3.983   6.209   0.267  0.5593  1.1915 -0.6938
16440SOL     OW49897   8.242   5.881   9.632  0.1422  0.1913 -0.0132
16440SOL    HW149898   8.315   5.927   9.592 -1.4117  1.9475 -1.0129
16440SOL    HW249899   8.278   5.842   9.712  2.2068  0.6941 -0.6506
16441SOL     OW49900   0.561   5.676   6.880  0.1437 -0.0167  0.2946
16441SOL    HW149901   0.503   5.640   6.814  0.7225  0.0943 -0.2851
16441SOL    HW249902   0.582   5.763   6.849 -0.5764  0.5243  1.2688
16442SOL     OW49903   2.214   3.458   3.912 -0.1413 -0.1911 -0.1728
16442SOL    HW149904   2.139   3.498   3.956 -0.7026  0.2532 -1.4860
16442SOL    HW249905   2.289   3.481   3.968 -0.5307  2.1669 -0.5031
16443SOL     OW49906   6.161   2.449   5.448 -0.0815 -0.3417 -0.4936
16443SOL    HW149907   6.103   2.420   5.518 -1.4352  2.4187 -0.3583
16443SOL    HW249908   6.221   2.511   5.489 -0.1768  0.4889 -1.5642
16444SOL     OW49909   2.154   8.554   3.581 -0.0616 -0.3922  0.1180
16444SOL    HW149910   2.219   8.555   3.651 -0.9220 -0.5749  0.9314
16444SOL    HW249911   2.156   8.643   3.545  1.0405 -0.5593 -0.2507
16445SOL     OW49912   5.035   0.258   9.508 -0.1508 -0.7082  0.0771
16445SOL    HW149913   4.947   0.241   9.475 -0.1460 -0.5418 -0.0178
16445SOL    HW249914   5.090   0.195   9.461 -0.3424 -1.4156  0.7678
16446SOL     OW49915   8.581   3.349   2.960 -0.0123 -0.1287 -0.2251
16446SOL    HW149916   8.597   3.420   2.899 -0.2869  1.7099  1.7076
16446SOL    HW249917   8.588   3.269   2.908  2.4392  1.1816 -2.0812
16447SOL     OW49918   7.139   5.049   7.257  0.3687 -0.2697 -0.1132
16447SOL    HW149919   7.052   5.057   7.219  0.2857 -2.7250 -0.5519
16447SOL    HW249920   7.197   5.029   7.184  1.2553  0.8018  0.2513
16448SOL     OW49921   4.869   6.134   1.647  0.0559 -0.0125  0.2012
16448SOL    HW149922   4.889   6.103   1.735  0.2551 -0.2941  0.0600
16448SOL    HW249923   4.867   6.054   1.593 -3.2933 -0.2846  0.5151
16449SOL     OW49924   9.809   7.402   0.652  0.0593 -0.5424  0.7080
16449SOL    HW149925   9.796   7.386   0.746 -1.8682 -2.5496  0.1812
16449SOL    HW249926   9.731   7.449   0.624  0.3260 -0.5217 -0.0313
16450SOL     OW49927   3.261   6.509   2.074  0.3054  0.2863  0.2663
16450SOL    HW149928   3.330   6.452   2.108  0.4164  0.1063 -0.2445
16450SOL    HW249929   3.301   6.596   2.072  0.5723  0.1575 -0.1681
16451SOL     OW49930   0.811   9.201   3.324 -0.2831 -0.5601  0.0503
16451SOL    HW149931   0.738   9.143   3.342  0.0598 -0.8902  0.4028
16451SOL    HW249932   0.813   9.261   3.399  0.2071 -0.9663  0.3651
16452SOL     OW49933   4.842   0.148   6.586  0.7908 -0.2041 -0.3249
16452SOL    HW149934   4.759   0.163   6.541  1.0070  0.2618 -0.5653
16452SOL    HW249935   4.816   0.112   6.671  0.3406  0.0261 -0.3599
16453SOL     OW49936   7.143   1.149   9.645 -0.1241  0.3109  0.5048
16453SOL    HW149937   7.223   1.109   9.611 -0.4637  0.1092 -0.0770
16453SOL    HW249938   7.103   1.191   9.569 -1.0182 -0.3510  0.5907
16454SOL     OW49939   1.776   1.810   0.496  0.1282 -0.2975 -0.0182
16454SOL    HW149940   1.769   1.730   0.548  0.6583 -0.3392 -0.0077
16454SOL    HW249941   1.713   1.870   0.536  0.4390 -0.3722  0.5923
16455SOL     OW49942   8.465   1.374   9.028 -0.8092  0.2549 -0.5270
16455SOL    HW149943   8.491   1.310   8.961 -0.9275 -2.0384  1.4824
16455SOL    HW249944   8.370   1.379   9.021 -0.7774  0.3956 -0.8511
16456SOL     OW49945   2.506   1.271   9.412  0.3237 -0.4718 -0.2463
16456SOL    HW149946   2.462   1.272   9.497 -0.5566  0.2854 -0.6848
16456SOL    HW249947   2.451   1.215   9.357 -0.6756  1.1853 -1.0521
16457SOL     OW49948   2.918   2.001   8.543  0.1817  0.0974  0.0072
16457SOL    HW149949   2.881   1.919   8.576 -1.1994 -0.4016 -2.5544
16457SOL    HW249950   2.866   2.070   8.584 -1.1097 -0.4734 -0.6284
16458SOL     OW49951   7.509   7.757   8.742  0.0380  0.1477  0.1096
16458SOL    HW149952   7.569   7.747   8.668  0.5614  0.9491  0.4179
16458SOL    HW249953   7.422   7.745   8.704  0.3714 -0.7401 -0.3919
16459SOL     OW49954   9.968   9.742   8.453 -0.2924  0.1551 -0.4122
16459SOL    HW149955   9.941   9.654   8.477  1.5649  0.0024  1.3792
16459SOL    HW249956   9.943   9.796   8.528  1.1147  0.6066 -0.2383
16460SOL     OW49957   0.631   7.471   7.253  0.0758 -0.5106 -0.3358
16460SOL    HW149958   0.537   7.472   7.235  0.1473 -0.2404 -0.6942
16460SOL    HW249959   0.665   7.552   7.215  0.6052 -1.0446 -1.0340
16461SOL     OW49960   6.664   5.522   5.197 -0.5100  0.0540 -0.6205
16461SOL    HW149961   6.683   5.609   5.233 -3.6528  0.4524  0.3303
16461SOL    HW249962   6.584   5.534   5.146 -1.3957 -2.3986  0.0678
16462SOL     OW49963   7.407   1.890   2.104 -0.2821 -0.1605 -0.3222
16462SOL    HW149964   7.350   1.945   2.050  1.5074 -0.7755 -3.0205
16462SOL    HW249965   7.453   1.952   2.161 -1.1166  0.6656 -0.5069
16463SOL     OW49966   1.383   1.709   0.284  0.2554 -0.5401  0.5899
16463SOL    HW149967   1.311   1.690   0.223  0.6997 -0.2082 -0.0593
16463SOL    HW249968   1.445   1.637   0.271 -0.8962 -1.9936  2.7018
16464SOL     OW49969   2.247   8.972   5.448 -0.1598 -0.0300 -0.0972
16464SOL    HW149970   2.250   9.068   5.451  0.3732 -0.0721  1.7390
16464SOL    HW249971   2.164   8.952   5.405 -1.5744  1.2828  1.8524
16465SOL     OW49972   7.787   6.003   8.380 -0.1878 -0.5225  0.2401
16465SOL    HW149973   7.807   5.922   8.333  1.9272 -0.4526  0.9388
16465SOL    HW249974   7.824   6.072   8.325 -2.2492  0.0672 -0.5088
16466SOL     OW49975   8.160   8.848   4.175 -0.4619  0.4088  0.9580
16466SOL    HW149976   8.231   8.808   4.125 -0.2685 -1.0899  2.3559
16466SOL    HW249977   8.154   8.796   4.255 -3.0217  0.6195  0.9893
16467SOL     OW49978   3.532   7.064   9.516 -0.5465  0.0111  0.4619
16467SOL    HW149979   3.501   7.087   9.428  0.5303 -3.3136 -0.9542
16467SOL    HW249980   3.557   7.147   9.555 -0.9045  1.6201 -2.4332
16468SOL     OW49981   0.641   1.681   6.427 -0.2279  0.0102 -0.5289
16468SOL    HW149982   0.697   1.605   6.410  0.6188  0.4371  0.3366
16468SOL    HW249983   0.681   1.725   6.501 -2.1564 -0.1170  0.6617
16469SOL     OW49984   7.944   6.155   3.562 -0.2882 -0.2654 -0.0314
16469SOL    HW149985   7.935   6.065   3.593 -0.5434 -0.4067 -0.5114
16469SOL    HW249986   7.904   6.208   3.632  1.8162 -0.3233  1.3216
16470SOL     OW49987   3.725   8.467   3.326  0.7168 -0.2312 -0.0369
16470SOL    HW149988   3.727   8.371   3.328 -1.4876 -0.3671 -1.1528
16470SOL    HW249989   3.741   8.489   3.234  0.5717  0.4496  0.0955
16471SOL     OW49990   5.490   8.975   7.346  0.1129  0.1278  0.0769
16471SOL    HW149991   5.571   8.930   7.323 -0.5746 -0.9971 -0.2426
16471SOL    HW249992   5.513   9.068   7.347  0.9960 -0.0213 -1.8208
16472SOL     OW49993   9.229   1.879   3.220 -0.2050 -0.4331  0.3766
16472SOL    HW149994   9.209   1.971   3.235  1.1218 -0.2603  1.3021
16472SOL    HW249995   9.172   1.853   3.148 -0.5567  1.1210  0.0640
16473SOL     OW49996   4.617   7.559   0.370  0.5943 -0.3303  0.0380
16473SOL    HW149997   4.674   7.527   0.300  2.1479  1.7397  0.2704
16473SOL    HW249998   4.608   7.484   0.429  1.1742 -1.4014 -1.1900
16474SOL     OW49999   6.335   1.683   9.006  0.5582  0.1098 -0.3225
16474SOL    HW150000   6.265   1.739   9.040  0.2981 -0.7040  0.5380
16474SOL    HW250001   6.290   1.602   8.981  1.1438 -0.2908 -0.0887
16475SOL     OW50002   8.116   9.780   0.158  0.4710 -0.3420 -0.3655
16475SOL    HW150003   8.117   9.704   0.099 -1.1618  1.0346 -2.3131
16475SOL    HW250004   8.045   9.762   0.219  1.6052 -1.3824  0.7015
16476SOL     OW50005   6.598   3.705   9.282 -0.3473 -0.1019  0.2159
16476SOL    HW150006   6.567   3.781   9.233 -3.0480 -2.4173 -1.9845
16476SOL    HW250007   6.657   3.660   9.221 -0.0595 -0.6619  0.8879
16477SOL     OW50008   8.919   6.290   8.614 -0.1414 -0.1317  0.1261
16477SOL    HW150009   8.830   6.319   8.635  0.5491  0.4423  2.5083
16477SOL    HW250010   8.914   6.265   8.522 -2.6424  0.3504  0.0510
16478SOL     OW50011   3.844   5.024   0.773 -0.5058 -0.1948 -0.4201
16478SOL    HW150012   3.935   5.039   0.749  0.3587  2.1514  3.3687
16478SOL    HW250013   3.847   4.944   0.826 -1.3962 -2.0864 -3.0213
16479SOL     OW50014   5.864   0.650   0.069  0.3809  0.1278  0.2929
16479SOL    HW150015   5.905   0.732   0.097  1.8920 -0.3715 -0.3407
16479SOL    HW250016   5.794   0.635   0.132  0.8906  1.2566  1.1666
16480SOL     OW50017   9.957   5.637   3.731  0.2379 -0.0636  0.3470
16480SOL    HW150018   9.931   5.592   3.812 -0.4243  0.4718  0.4392
16480SOL    HW250019  10.052   5.629   3.729  0.0525 -3.6210 -0.9048
16481SOL     OW50020   7.160   8.352   9.833  0.0307 -0.2360 -0.3141
16481SOL    HW150021   7.118   8.387   9.911 -1.0021  3.0151 -2.1625
16481SOL    HW250022   7.254   8.350   9.855 -0.3065 -0.0937  1.2201
16482SOL     OW50023   1.793   8.984   7.458  0.3436  0.1285 -0.1160
16482SOL    HW150024   1.710   8.998   7.414  0.8864  0.1243 -1.1731
16482SOL    HW250025   1.786   9.035   7.539 -0.7397 -0.0126 -0.1082
16483SOL     OW50026   2.781   5.110   2.247 -0.8006  0.1896 -1.3936
16483SOL    HW150027   2.799   5.105   2.341  4.4709 -0.3570 -2.1360
16483SOL    HW250028   2.776   5.204   2.230  0.1747  0.3675 -0.7927
16484SOL     OW50029   3.953   3.149   0.336  0.4901 -0.1050  0.2930
16484SOL    HW150030   3.892   3.145   0.262  0.7299 -0.2233  0.0969
16484SOL    HW250031   4.014   3.220   0.312  0.3009  0.1570  0.5872
16485SOL     OW50032   9.448   0.665   1.247 -0.6403 -0.2768  0.2876
16485SOL    HW150033   9.399   0.729   1.300 -0.0839  0.2099  0.2245
16485SOL    HW250034   9.392   0.588   1.245 -0.7975 -0.2038  1.3539
16486SOL     OW50035   7.540   8.029   0.876 -0.3459 -0.2522  0.1207
16486SOL    HW150036   7.476   7.968   0.912  1.0266 -2.6249 -1.2675
16486SOL    HW250037   7.619   8.015   0.929  0.4411 -0.8448 -1.1587
16487SOL     OW50038   1.981   2.601   3.012 -0.6683  0.6594  0.2583
16487SOL    HW150039   1.955   2.620   2.921  0.2368 -0.0819 -0.1787
16487SOL    HW250040   1.903   2.562   3.051 -0.5973 -0.5125 -0.6971
16488SOL     OW50041   3.627   9.307   5.695 -0.2737 -0.6707  0.0436
16488SOL    HW150042   3.644   9.214   5.713  0.1214 -0.5738  0.1791
16488SOL    HW250043   3.702   9.335   5.642 -0.9968 -0.7347 -1.0535
16489SOL     OW50044   8.110   2.976   3.100 -0.1045 -0.0563 -0.4427
16489SOL    HW150045   8.041   2.910   3.094 -0.9316  0.8227 -0.8619
16489SOL    HW250046   8.099   3.014   3.187  0.3810 -0.4771 -0.1957
16490SOL     OW50047   1.181   6.351   0.935 -1.0903 -0.4389 -0.0319
16490SOL    HW150048   1.265   6.388   0.962 -1.0143 -0.9053  0.3980
16490SOL    HW250049   1.168   6.277   0.994 -1.7205 -0.4772 -0.2131
16491SOL     OW50050   6.102   0.485   4.591  0.6009 -0.1688  0.1004
16491SOL    HW150051   6.129   0.565   4.636  0.5479  0.0340 -0.2242
16491SOL    HW250052   6.176   0.425   4.602 -0.0380 -0.6895  1.8084
16492SOL     OW50053   6.372   9.440   4.435 -0.2943 -0.1911  0.6598
16492SOL    HW150054   6.363   9.529   4.403 -1.5736 -0.2238  0.8776
16492SOL    HW250055   6.456   9.409   4.399  0.0748  1.0261  0.4504
16493SOL     OW50056   9.150   7.680   6.627 -0.3603 -0.6118 -0.0723
16493SOL    HW150057   9.100   7.605   6.658 -1.4891 -0.9369 -2.4804
16493SOL    HW250058   9.184   7.653   6.542 -0.3494  1.4266 -0.7737
16494SOL     OW50059   0.365   5.077   5.199 -0.0186  0.4841 -0.2736
16494SOL    HW150060   0.429   5.078   5.271  0.7918 -0.4861 -0.9587
16494SOL    HW250061   0.355   4.985   5.178  0.3764  0.8010 -1.9554
16495SOL     OW50062   9.579   1.974   9.631 -0.1929  0.0760 -0.2164
16495SOL    HW150063   9.592   1.889   9.674 -0.6992 -0.7443 -1.6251
16495SOL    HW250064   9.638   2.034   9.678  2.3860 -1.6689 -1.0406
16496SOL     OW50065   7.206   6.249   9.224  0.0020 -0.3693  0.0100
16496SOL    HW150066   7.257   6.321   9.189  0.2203 -1.7630 -2.7970
16496SOL    HW250067   7.126   6.290   9.258 -0.1493  1.1521 -2.0323
16497SOL     OW50068   2.992   7.837   6.966 -0.5297  0.1690 -0.4410
16497SOL    HW150069   3.047   7.760   6.954 -2.4504 -1.1733 -1.0495
16497SOL    HW250070   3.013   7.869   7.053 -0.9417 -2.1219  0.5696
16498SOL     OW50071   1.743   4.696   7.745  0.1341  0.4876 -0.0040
16498SOL    HW150072   1.805   4.669   7.813 -0.1341 -0.0464  0.0338
16498SOL    HW250073   1.662   4.650   7.767 -0.0943  0.6861 -0.4163
16499SOL     OW50074   5.081   4.360   4.114  0.3041  0.0835  0.1287
16499SOL    HW150075   5.004   4.304   4.101  0.2816 -0.2363  1.4438
16499SOL    HW250076   5.049   4.433   4.167  0.7341  0.3675  0.0011
16500SOL     OW50077   1.250   3.120   5.911  0.1816 -0.3079 -0.4409
16500SOL    HW150078   1.340   3.102   5.883  0.7086 -1.5796  1.7667
16500SOL    HW250079   1.259   3.197   5.968  0.3207 -1.6500  1.4783
16501SOL     OW50080   6.425   5.816   5.556 -0.3936 -0.3082  0.4501
16501SOL    HW150081   6.399   5.829   5.647 -0.1077  1.2462  0.3375
16501SOL    HW250082   6.465   5.729   5.554  1.4109  0.4151  2.2529
16502SOL     OW50083   2.173   0.464   3.698  0.0453  0.1191  0.3008
16502SOL    HW150084   2.146   0.447   3.607 -0.9288  1.7195  0.2567
16502SOL    HW250085   2.246   0.525   3.690  0.7486 -0.6676  0.5769
16503SOL     OW50086   2.916   6.825   4.090 -0.2389 -0.2120  0.2987
16503SOL    HW150087   2.886   6.850   4.002 -1.8756 -1.0054  0.5975
16503SOL    HW250088   2.946   6.907   4.129  0.0429  0.2382 -0.8290
16504SOL     OW50089   0.181   1.482   9.270  0.1393 -0.3200  0.1668
16504SOL    HW150090   0.095   1.466   9.230  1.0287 -1.6545 -1.3333
16504SOL    HW250091   0.232   1.404   9.249  1.7565  0.4829  0.9419
16505SOL     OW50092   7.157   1.130   8.238 -0.2256  0.1024 -0.1977
16505SOL    HW150093   7.096   1.095   8.303  0.5433 -0.5974  0.1575
16505SOL    HW250094   7.119   1.214   8.213 -1.7564 -0.6483 -0.5538
16506SOL     OW50095   5.235   2.703   8.269 -0.0786 -0.1742  0.7841
16506SOL    HW150096   5.313   2.695   8.214  0.4385  0.8745  1.3422
16506SOL    HW250097   5.190   2.619   8.259  0.6203 -0.4354 -0.2985
16507SOL     OW50098   6.939   0.778   9.218  0.2326 -0.0295  0.0932
16507SOL    HW150099   7.003   0.713   9.246  1.2243  0.4776 -0.9266
16507SOL    HW250100   6.855   0.732   9.220  0.8851 -1.2792 -0.4419
16508SOL     OW50101   3.470   9.150   0.872  0.7546 -0.2500  0.1171
16508SOL    HW150102   3.432   9.073   0.915  1.1321  0.0822  1.0530
16508SOL    HW250103   3.524   9.114   0.802  1.0055 -0.8390  0.6087
16509SOL     OW50104   3.761   3.418   4.076 -0.0833  0.1885  0.1321
16509SOL    HW150105   3.710   3.455   4.147 -0.2532 -0.0599  0.1368
16509SOL    HW250106   3.698   3.403   4.006 -0.2175 -1.1408  0.5214
16510SOL     OW50107   9.979   5.691   9.109  0.0492  0.0063 -0.0992
16510SOL    HW150108   9.917   5.728   9.045 -1.1143  0.1767  1.0968
16510SOL    HW250109   9.926   5.673   9.186  1.3538 -0.6149  0.6752
16511SOL     OW50110   4.728   1.876   9.432 -0.5314  0.5669 -0.1417
16511SOL    HW150111   4.756   1.861   9.342 -0.2179 -1.7017  0.2750
16511SOL    HW250112   4.683   1.961   9.430 -2.2997 -0.3141 -2.8385
16512SOL     OW50113   1.675   4.293   9.213 -0.5169 -0.3608  0.2550
16512SOL    HW150114   1.745   4.353   9.238 -0.8198 -0.4523  1.3403
16512SOL    HW250115   1.675   4.226   9.280 -0.7670 -1.1115 -0.4750
16513SOL     OW50116   8.470   6.283   5.899 -0.2517  0.0939  0.6712
16513SOL    HW150117   8.382   6.298   5.933 -0.2709 -1.5025  1.4158
16513SOL    HW250118   8.526   6.284   5.976  0.2398  0.1464  0.3178
16514SOL     OW50119   3.452   0.918   1.691  0.4588 -0.5022 -0.2864
16514SOL    HW150120   3.507   0.958   1.758  0.9146 -1.4290 -0.0869
16514SOL    HW250121   3.390   0.986   1.666  1.1816  0.2969  0.0734
16515SOL     OW50122   0.700   4.647   7.811 -0.6885 -0.5344  0.0668
16515SOL    HW150123   0.779   4.596   7.793  0.3879  1.7538 -2.3008
16515SOL    HW250124   0.636   4.616   7.747 -0.6885 -0.2564 -0.0673
16516SOL     OW50125   9.325   3.643   1.110 -0.0404  0.4095 -0.3290
16516SOL    HW150126   9.401   3.588   1.090  0.3130  0.4078  0.9466
16516SOL    HW250127   9.259   3.616   1.046  0.4230 -0.8847 -0.2973
16517SOL     OW50128   5.201   9.816   5.426  0.4550 -0.0651 -0.2894
16517SOL    HW150129   5.127   9.781   5.376  0.2241  0.7069 -0.4976
16517SOL    HW250130   5.272   9.753   5.410 -0.9220 -2.5041  2.3455
16518SOL     OW50131   0.312   2.330   9.713  0.1554  0.2734  0.1359
16518SOL    HW150132   0.291   2.243   9.678  0.6880  0.3555 -0.4035
16518SOL    HW250133   0.247   2.344   9.782 -0.3715 -0.2588 -0.2392
16519SOL     OW50134   2.024   0.696   3.852  0.6311  0.2105 -0.0041
16519SOL    HW150135   2.068   0.638   3.789  1.4462  0.9849 -0.1539
16519SOL    HW250136   2.079   0.774   3.856 -0.7650  1.2464 -0.2574
16520SOL     OW50137   1.091   5.799   5.578  0.6289  0.1108 -0.0072
16520SOL    HW150138   1.072   5.708   5.601  0.0354  0.7245  2.0845
16520SOL    HW250139   1.186   5.804   5.575  0.7419 -1.2596 -3.3157
16521SOL     OW50140   1.601   3.307   2.592 -0.5750 -0.0302 -0.0176
16521SOL    HW150141   1.587   3.242   2.523  0.5191 -0.0489 -0.2411
16521SOL    HW250142   1.676   3.274   2.641  0.2952  1.2933 -0.4206
16522SOL     OW50143   8.244   0.068   4.399  0.1489 -0.2681 -0.3309
16522SOL    HW150144   8.214   0.033   4.315 -1.1118  1.8682 -0.8376
16522SOL    HW250145   8.249   0.163   4.386  1.1631  0.0120  1.6378
16523SOL     OW50146   0.729   6.475   7.048  0.5653  0.0256  0.3701
16523SOL    HW150147   0.752   6.382   7.056  1.0519  0.2145  1.3215
16523SOL    HW250148   0.772   6.517   7.123  0.7204  1.0894 -0.2871
16524SOL     OW50149   1.251   0.774   9.615  0.6098  0.3255  0.2107
16524SOL    HW150150   1.322   0.827   9.579  1.9363  0.8770  3.2946
16524SOL    HW250151   1.293   0.692   9.641  0.3477  0.8823  2.6078
16525SOL     OW50152   1.295   0.693   8.692 -0.0712 -0.0530 -0.2754
16525SOL    HW150153   1.336   0.770   8.653 -1.5459  0.7776 -0.2374
16525SOL    HW250154   1.256   0.647   8.617 -0.7536  0.2070 -0.0807
16526SOL     OW50155   0.692   6.740   8.256 -0.2745  0.1887 -0.6265
16526SOL    HW150156   0.619   6.708   8.204  0.3668 -1.2111 -0.7238
16526SOL    HW250157   0.682   6.696   8.341  0.9039 -0.6948 -0.9211
16527SOL     OW50158   9.288   7.964   3.799  0.2040  0.2273 -0.0554
16527SOL    HW150159   9.214   7.925   3.752 -0.4469  1.8134 -0.4383
16527SOL    HW250160   9.282   8.058   3.778  0.8963  0.7412  1.8664
16528SOL     OW50161   2.670   1.766   3.217 -0.7132  0.0655 -0.2081
16528SOL    HW150162   2.649   1.706   3.145  0.4262 -0.4343 -0.1481
16528SOL    HW250163   2.624   1.847   3.195 -0.2304 -0.0154 -1.6118
16529SOL     OW50164   9.816   5.619   1.650  0.1078 -0.2572  0.5481
16529SOL    HW150165   9.902   5.611   1.608  0.4085  0.2868  1.0568
16529SOL    HW250166   9.801   5.713   1.657 -1.1575 -0.3249 -0.7898
16530SOL     OW50167   7.818   2.480   0.240 -0.1180 -0.2717 -0.5902
16530SOL    HW150168   7.880   2.478   0.313  0.4613 -0.2471 -1.0814
16530SOL    HW250169   7.735   2.452   0.279 -0.2759  1.5368  0.5298
16531SOL     OW50170   7.314   5.580   4.162  0.6202  0.4104  0.0860
16531SOL    HW150171   7.399   5.536   4.153  1.6333  1.5519  2.8399
16531SOL    HW250172   7.261   5.520   4.215  0.2977  0.4344 -0.2068
16532SOL     OW50173   0.256   3.267   1.409  0.1584 -0.0301  0.0627
16532SOL    HW150174   0.224   3.357   1.405  0.9359  0.2210 -0.8149
16532SOL    HW250175   0.212   3.221   1.337 -0.5334 -0.4618  0.7475
16533SOL     OW50176   8.920   0.747   5.550 -0.0909 -0.2669 -0.0438
16533SOL    HW150177   8.949   0.812   5.485 -0.9928  1.0455  0.8127
16533SOL    HW250178   8.992   0.743   5.613 -0.1561  0.1449  0.0619
16534SOL     OW50179   7.932   0.205   4.986  0.3821  0.6457 -0.3312
16534SOL    HW150180   7.987   0.132   5.015  0.2073  0.2845 -0.8830
16534SOL    HW250181   7.976   0.238   4.907 -0.2941  0.2268 -0.8876
16535SOL     OW50182   1.484   3.280   1.345  0.5502 -0.4087  0.7332
16535SOL    HW150183   1.420   3.344   1.376 -0.4798 -0.3368 -1.3738
16535SOL    HW250184   1.533   3.326   1.277  3.0455 -0.4080  2.3888
16536SOL     OW50185   3.404   8.709   8.074 -0.1146 -0.0336 -0.1152
16536SOL    HW150186   3.449   8.793   8.064  1.0376 -0.3327  1.9121
16536SOL    HW250187   3.380   8.706   8.166 -2.5153 -0.8212 -0.7142
16537SOL     OW50188   4.684   7.128   6.413  0.1490  0.0528  0.0104
16537SOL    HW150189   4.658   7.039   6.439 -1.5002 -0.0341 -1.6619
16537SOL    HW250190   4.654   7.135   6.322 -0.6461  2.6581  0.4081
16538SOL     OW50191   6.577   2.901   1.481 -0.1744 -0.3583 -0.1645
16538SOL    HW150192   6.519   2.974   1.503  0.9988  0.3492  0.7891
16538SOL    HW250193   6.644   2.941   1.425  0.8371 -0.5100  0.8845
16539SOL     OW50194   1.344   0.241   0.901  0.2333 -0.5492  0.0898
16539SOL    HW150195   1.255   0.207   0.915 -0.0782 -0.4158 -1.4380
16539SOL    HW250196   1.336   0.301   0.827  1.8123 -1.5403 -0.9568
16540SOL     OW50197   6.094   0.783   4.664 -0.0572 -0.3892  0.1562
16540SOL    HW150198   6.112   0.755   4.574  1.1115  1.8005 -0.3586
16540SOL    HW250199   6.119   0.876   4.666  1.2752 -0.7060  3.1105
16541SOL     OW50200   7.713   0.846   5.058 -0.7511  0.8386 -0.3182
16541SOL    HW150201   7.706   0.941   5.065 -1.3781  0.7159  1.0312
16541SOL    HW250202   7.629   0.818   5.021 -0.0327  0.8928 -2.1132
16542SOL     OW50203   9.744   4.428   7.936  0.6757 -0.1208  0.3504
16542SOL    HW150204   9.709   4.375   8.009  1.0936  0.2185  0.8055
16542SOL    HW250205   9.791   4.364   7.881  2.0216 -0.1127  1.4152
16543SOL     OW50206   6.592   6.586   8.338 -0.0164  0.0605 -0.7319
16543SOL    HW150207   6.497   6.579   8.340 -0.0306  0.1544  1.7983
16543SOL    HW250208   6.624   6.498   8.357  0.3187  0.4906  0.8476
16544SOL     OW50209   6.073   4.629   0.922 -0.6317 -0.9213  0.5619
16544SOL    HW150210   5.997   4.591   0.966  0.4172 -1.4210  2.0563
16544SOL    HW250211   6.130   4.554   0.903  0.0523 -0.4374  0.6340
16545SOL     OW50212   9.128   3.636   9.412  0.0408 -0.7053 -0.1070
16545SOL    HW150213   9.184   3.614   9.338  1.3389 -0.6523  0.8288
16545SOL    HW250214   9.181   3.617   9.489  0.1095  2.6557  0.8086
16546SOL     OW50215   6.425   2.639   0.511  0.8729 -0.0353 -0.1611
16546SOL    HW150216   6.467   2.671   0.431 -1.3101  0.0412 -1.3698
16546SOL    HW250217   6.486   2.574   0.546  1.6785 -0.4494 -2.1728
16547SOL     OW50218   8.559   2.207   8.585  0.0217 -0.2069 -0.8335
16547SOL    HW150219   8.629   2.203   8.521  1.1111  0.7601  0.2402
16547SOL    HW250220   8.488   2.252   8.541  1.2965  1.8347 -0.9446
16548SOL     OW50221   0.483   2.494   1.126  0.5965  0.1757 -0.2149
16548SOL    HW150222   0.570   2.457   1.111  1.0696  0.6520  1.2486
16548SOL    HW250223   0.431   2.463   1.052  1.8781 -0.5229 -0.8511
16549SOL     OW50224   1.921   6.583   3.892  0.7102  0.2500  0.1274
16549SOL    HW150225   1.875   6.554   3.971  1.1672  1.3280  0.8041
16549SOL    HW250226   1.994   6.522   3.883 -0.3988 -1.0403 -0.5542
16550SOL     OW50227   2.319   3.982   9.380 -0.2941 -0.5827  0.0561
16550SOL    HW150228   2.279   4.055   9.427 -1.3080 -0.4616 -0.9559
16550SOL    HW250229   2.393   4.022   9.333  2.4458 -1.1447  3.4892
16551SOL     OW50230   5.159   0.791   9.065  0.3252  0.0574 -0.2860
16551SOL    HW150231   5.196   0.737   8.996  0.7883  0.0452 -0.0315
16551SOL    HW250232   5.194   0.754   9.146  2.1604  1.8278 -0.1758
16552SOL     OW50233   6.992   4.845   0.150  0.0127  0.4705 -0.2759
16552SOL    HW150234   6.987   4.751   0.136 -0.4198  0.7824 -2.8350
16552SOL    HW250235   6.943   4.861   0.231 -0.5614 -1.4228 -0.2141
16553SOL     OW50236   8.450   7.990   2.965  0.5327  0.4784  0.3600
16553SOL    HW150237   8.504   7.952   2.896  0.8500  0.9381  0.3451
16553SOL    HW250238   8.464   7.934   3.041  1.0669  0.6154  0.3655
16554SOL     OW50239   9.854   5.874   7.281  0.2273 -0.6056 -0.4542
16554SOL    HW150240   9.771   5.828   7.277 -0.8425  1.3302 -2.1671
16554SOL    HW250241   9.836   5.952   7.334  0.8048  0.0722 -1.2362
16555SOL     OW50242   9.032   2.991   9.278  0.0712  0.4174  0.3166
16555SOL    HW150243   9.015   2.898   9.260  2.6784 -0.3269  1.2709
16555SOL    HW250244   9.089   3.019   9.207  0.8965  0.7191  1.0778
16556SOL     OW50245   1.925   3.963   3.462 -0.4464  0.4197  0.3449
16556SOL    HW150246   1.836   3.981   3.432  0.2414  2.7577 -0.4987
16556SOL    HW250247   1.963   3.908   3.393 -1.2131 -0.5698  0.6990
16557SOL     OW50248   8.717   5.301   1.617 -0.2410 -0.2015  0.2937
16557SOL    HW150249   8.748   5.385   1.651  0.0829 -0.2674  0.1741
16557SOL    HW250250   8.794   5.265   1.572 -0.3676 -0.5841  0.3870
16558SOL     OW50251   1.925   5.371   7.200 -0.0510 -0.1868  0.2259
16558SOL    HW150252   1.855   5.357   7.136  0.0679 -0.0432  0.0630
16558SOL    HW250253   1.984   5.297   7.188  0.1363  0.0010 -0.0528
16559SOL     OW50254   2.453   1.697   5.651  0.2684  0.0900 -0.6653
16559SOL    HW150255   2.499   1.772   5.691  0.7421  0.2668 -1.5108
16559SOL    HW250256   2.376   1.684   5.706  1.0186  0.1679  0.4488
16560SOL     OW50257   9.093   9.137   3.912 -0.7360  0.1638 -0.2264
16560SOL    HW150258   9.148   9.148   3.834 -1.9931  0.3870 -1.1128
16560SOL    HW250259   9.080   9.226   3.945  0.4474  0.0107  0.7502
16561SOL     OW50260   6.268   6.843   5.247 -0.5822  0.2547 -0.1955
16561SOL    HW150261   6.202   6.784   5.211 -0.4336 -1.6172  2.3318
16561SOL    HW250262   6.351   6.810   5.214 -0.3675 -1.9806  2.2577
16562SOL     OW50263   3.569   7.517   2.832 -0.4252  0.6107 -0.5930
16562SOL    HW150264   3.526   7.432   2.838 -0.0427  0.4302 -0.4198
16562SOL    HW250265   3.598   7.536   2.921  0.4866  0.3995 -0.8398
16563SOL     OW50266   7.162   7.872   6.514  0.6806  0.1364  0.0951
16563SOL    HW150267   7.098   7.815   6.556  1.0585 -0.7013 -0.4475
16563SOL    HW250268   7.152   7.956   6.559 -2.0379  0.5829 -1.1045
16564SOL     OW50269   8.019   0.096   9.461  0.7637 -0.1803 -0.0486
16564SOL    HW150270   7.950   0.100   9.396 -0.6190 -1.1386  1.2858
16564SOL    HW250271   8.098   0.073   9.411 -0.2015 -0.6771 -1.3900
16565SOL     OW50272   8.951   4.984   7.451  0.0642 -0.6785  0.3071
16565SOL    HW150273   8.908   5.070   7.449 -0.0086 -0.7241 -1.1406
16565SOL    HW250274   8.891   4.926   7.403  1.2123 -0.9765 -0.8239
16566SOL     OW50275   3.597   4.148   2.942 -0.7130 -0.4469  0.3292
16566SOL    HW150276   3.661   4.212   2.912 -1.0709  0.3795  1.2593
16566SOL    HW250277   3.645   4.065   2.944 -0.1154 -0.1353 -0.4500
16567SOL     OW50278   1.024   9.719   7.513  0.2805 -0.3111 -0.0816
16567SOL    HW150279   1.086   9.757   7.575 -0.8541  1.1335  0.2079
16567SOL    HW250280   0.962   9.789   7.495 -0.4179 -1.2606 -1.5186
16568SOL     OW50281   9.901   2.498   3.739  0.0917  0.1343 -0.1140
16568SOL    HW150282   9.890   2.403   3.750 -2.0335  0.4215  0.5811
16568SOL    HW250283   9.854   2.518   3.658 -1.4949  0.8921  0.9534
16569SOL     OW50284   9.095   2.496   5.213  0.7387 -0.1890 -0.5212
16569SOL    HW150285   9.111   2.484   5.119  1.2929  0.5686 -0.5346
16569SOL    HW250286   9.021   2.438   5.232  0.5998 -0.3320 -1.4303
16570SOL     OW50287   4.263   8.735   4.051 -0.2010 -0.5044 -0.1648
16570SOL    HW150288   4.192   8.799   4.053  0.0553 -0.1928  2.9928
16570SOL    HW250289   4.262   8.702   3.961 -3.1007  0.8300 -0.7422
16571SOL     OW50290   0.860   1.787   2.638  0.0024  0.0394  0.4076
16571SOL    HW150291   0.874   1.709   2.692 -0.8261 -0.1090  0.4233
16571SOL    HW250292   0.796   1.838   2.687  0.0153  0.3942  0.0521
16572SOL     OW50293   9.645   2.064   5.708  0.4818 -0.1687 -0.1209
16572SOL    HW150294   9.692   2.126   5.763  1.0133 -2.2011  1.8699
16572SOL    HW250295   9.562   2.050   5.753  1.1810 -2.3353  0.6170
16573SOL     OW50296   0.518   6.455   0.249 -0.0610 -0.0450 -0.0557
16573SOL    HW150297   0.445   6.442   0.310 -0.1916  0.7437 -0.0312
16573SOL    HW250298   0.477   6.488   0.170  0.3246  1.0741  0.1921
16574SOL     OW50299   2.240   0.835   6.637  0.3485  0.4899 -0.2023
16574SOL    HW150300   2.304   0.848   6.707  1.3130 -2.1805 -0.4537
16574SOL    HW250301   2.193   0.755   6.662  0.0234  0.0408 -2.0749
16575SOL     OW50302   8.196   2.369   1.335  0.5152 -0.1247 -0.1808
16575SOL    HW150303   8.118   2.370   1.279 -0.3720  2.2648  0.9608
16575SOL    HW250304   8.232   2.281   1.323 -1.4998 -0.8238 -1.8941
16576SOL     OW50305   3.757   6.286   2.827  0.0012  0.1757  0.0167
16576SOL    HW150306   3.824   6.308   2.763 -1.4437 -1.3290 -2.1639
16576SOL    HW250307   3.721   6.371   2.854  2.7718  1.0259  1.3855
16577SOL     OW50308   1.978   0.196   3.496  0.0423  0.4871  0.3049
16577SOL    HW150309   2.053   0.256   3.491  0.1830  0.2774 -0.1214
16577SOL    HW250310   1.915   0.232   3.432 -0.0189  0.3842  0.3075
16578SOL     OW50311   9.152   4.579   6.751 -0.4147  0.3776  0.0646
16578SOL    HW150312   9.141   4.608   6.842  0.7303 -0.1342  0.3805
16578SOL    HW250313   9.111   4.648   6.699 -1.3870  0.5144  0.9725
16579SOL     OW50314   5.344   8.801   9.348 -0.0829 -0.0363 -0.2768
16579SOL    HW150315   5.259   8.783   9.387 -0.0907  0.4649 -0.0551
16579SOL    HW250316   5.363   8.892   9.372 -0.0704  0.2694 -1.4115
16580SOL     OW50317   1.749   5.620   9.586 -0.2944  0.4118  0.0807
16580SOL    HW150318   1.708   5.613   9.500 -2.1050 -2.3097  1.0298
16580SOL    HW250319   1.790   5.707   9.586  0.4830  0.2152 -3.7497
16581SOL     OW50320   8.715   0.151   5.162  0.5098 -0.2475  0.3130
16581SOL    HW150321   8.761   0.115   5.086  0.6670  1.5400 -0.4739
16581SOL    HW250322   8.782   0.157   5.230  1.3455  1.6527 -0.5995
16582SOL     OW50323   3.407   8.663   5.370  0.1205 -0.1421 -0.2292
16582SOL    HW150324   3.441   8.602   5.435  3.0749  0.0840 -1.4050
16582SOL    HW250325   3.484   8.709   5.337 -1.6151  1.9414 -1.7175
16583SOL     OW50326   1.174   6.952   0.055  0.3455  0.7179 -0.1737
16583SOL    HW150327   1.173   6.871   0.105 -2.8320 -0.9304 -2.5209
16583SOL    HW250328   1.141   7.018   0.116  1.6185 -0.0122  1.3712
16584SOL     OW50329   9.769   6.112   7.377 -0.1564  0.5213  0.6634
16584SOL    HW150330   9.770   6.197   7.421  0.7882  1.1804 -0.5634
16584SOL    HW250331   9.682   6.107   7.338 -0.0513  1.1689  0.3250
16585SOL     OW50332   3.698   6.697   9.347 -0.0650  0.0341  0.3008
16585SOL    HW150333   3.658   6.695   9.260 -1.4966  0.0270  0.9336
16585SOL    HW250334   3.707   6.790   9.368  0.1960  0.0350  0.1939
16586SOL     OW50335   2.317   1.294   9.641  0.1129 -0.3423  0.0314
16586SOL    HW150336   2.296   1.222   9.701 -0.0454  0.2433  0.6861
16586SOL    HW250337   2.256   1.364   9.664  1.4443  0.6553  0.6219
16587SOL     OW50338   4.216   9.515   1.853 -0.1329 -0.7266 -0.0898
16587SOL    HW150339   4.135   9.467   1.832  0.6400 -2.1795  0.1227
16587SOL    HW250340   4.199   9.552   1.940 -0.6710 -0.7792 -0.1659
16588SOL     OW50341   8.421   8.660   5.338  0.7376  0.3482 -0.1138
16588SOL    HW150342   8.456   8.659   5.427 -1.3185 -3.2962  0.8411
16588SOL    HW250343   8.493   8.627   5.284  1.1950  0.1402  0.6015
16589SOL     OW50344   3.529   3.991   5.480 -0.0219  0.1429  0.2021
16589SOL    HW150345   3.473   4.066   5.500  1.5313  1.5713 -0.5639
16589SOL    HW250346   3.534   3.990   5.384  1.0862 -0.0801  0.2521
16590SOL     OW50347   0.769   8.606   4.622  0.5155 -0.0121 -0.5062
16590SOL    HW150348   0.799   8.693   4.593 -0.0148  0.2183 -0.3879
16590SOL    HW250349   0.679   8.621   4.650 -0.0633 -0.8729 -1.8014
16591SOL     OW50350   9.616   6.494   6.579 -0.3984 -0.7565 -0.6294
16591SOL    HW150351   9.555   6.512   6.651  0.7909  0.6833  0.0513
16591SOL    HW250352   9.684   6.439   6.618 -0.0209 -0.4066 -0.7968
16592SOL     OW50353   0.268   6.843   2.187  0.7571  0.0214 -0.0470
16592SOL    HW150354   0.353   6.885   2.200  0.6266 -0.4786  3.5496
16592SOL    HW250355   0.211   6.913   2.155  2.2806  0.5710 -1.6861
16593SOL     OW50356   4.060   8.568   8.395  0.2260 -0.6981  0.2892
16593SOL    HW150357   4.045   8.491   8.339 -1.3524  0.1517 -0.5315
16593SOL    HW250358   3.991   8.563   8.461 -1.0823  0.9222 -0.8582
16594SOL     OW50359   3.983   2.330   1.447  0.3581 -0.3075  0.4144
16594SOL    HW150360   4.078   2.316   1.442  0.4601  0.2516  0.7184
16594SOL    HW250361   3.964   2.332   1.541  0.1038 -0.0265  0.3572
16595SOL     OW50362   8.951   2.929   3.439 -0.0369  0.5562  0.4750
16595SOL    HW150363   8.956   2.836   3.461  0.1805  0.3930 -0.2586
16595SOL    HW250364   8.901   2.932   3.358  1.6427  0.9069 -0.5921
16596SOL     OW50365   7.962   3.097   7.520 -0.4274  0.9516 -0.3370
16596SOL    HW150366   8.042   3.140   7.490  1.4117 -0.9287  1.4753
16596SOL    HW250367   7.972   3.006   7.492 -1.9084  0.6520  0.0036
16597SOL     OW50368   6.276   4.802   3.109  0.0787 -0.5457  0.4929
16597SOL    HW150369   6.215   4.735   3.140 -0.7585  0.6971  1.6314
16597SOL    HW250370   6.225   4.858   3.051  0.8295 -0.9833 -0.6302
16598SOL     OW50371   5.991   8.788   7.825 -0.2423 -0.2807 -0.9163
16598SOL    HW150372   5.973   8.713   7.768 -1.3272  0.1497 -1.1541
16598SOL    HW250373   5.965   8.864   7.773 -2.1246  0.0803  0.4460
16599SOL     OW50374   6.424   0.361   8.600  0.7766  0.1834 -0.0409
16599SOL    HW150375   6.389   0.372   8.688 -0.7758  0.2117 -0.6270
16599SOL    HW250376   6.436   0.266   8.591  3.2716  0.3271  1.0096
16600SOL     OW50377   8.958   7.864   8.548  0.5452 -0.3763  0.0458
16600SOL    HW150378   9.025   7.866   8.479  0.0173  0.7486 -0.4500
16600SOL    HW250379   8.922   7.776   8.544  2.0576 -1.0464  0.3904
16601SOL     OW50380   4.605   7.812   7.906 -0.0223  0.0693  0.3163
16601SOL    HW150381   4.586   7.873   7.835  0.9257 -0.3161 -0.2861
16601SOL    HW250382   4.657   7.863   7.968 -0.7344  0.3659  0.6858
16602SOL     OW50383   7.720   1.303   2.188 -0.0810 -0.1810  0.2240
16602SOL    HW150384   7.642   1.248   2.174  0.3325 -0.1975 -2.7325
16602SOL    HW250385   7.684   1.389   2.211 -0.8944 -0.6306  0.6879
16603SOL     OW50386   4.789   0.645   4.205 -0.6349  0.3371 -0.7265
16603SOL    HW150387   4.792   0.596   4.287 -0.5001  0.4353 -0.6739
16603SOL    HW250388   4.701   0.628   4.171 -0.4768 -0.2180 -0.8774
16604SOL     OW50389   7.261   7.850   9.087 -0.4749  0.2066  0.7028
16604SOL    HW150390   7.283   7.891   9.004 -0.5174 -0.9210  0.1152
16604SOL    HW250391   7.260   7.756   9.068 -1.5737 -0.0148  1.7175
16605SOL     OW50392   2.548   2.651   1.156  0.1498  0.0318  0.0941
16605SOL    HW150393   2.563   2.585   1.089  1.9912  2.3690 -2.0001
16605SOL    HW250394   2.463   2.688   1.135 -0.1771 -0.5890  0.3049
16606SOL     OW50395   4.287   3.739   1.939  0.4465  0.3052 -0.4360
16606SOL    HW150396   4.370   3.694   1.955  0.5393  0.1537 -1.3088
16606SOL    HW250397   4.312   3.831   1.927  0.5014  0.2477 -0.7744
16607SOL     OW50398   7.548   1.485   1.207  0.1159 -0.1607 -0.1031
16607SOL    HW150399   7.637   1.518   1.194  0.5222 -1.4296 -0.7147
16607SOL    HW250400   7.558   1.390   1.213 -1.4340 -0.5626 -2.5424
16608SOL     OW50401   4.095   8.643   4.683  0.5774 -0.3482  0.4940
16608SOL    HW150402   4.119   8.651   4.776 -0.5115  0.0975  0.7450
16608SOL    HW250403   4.057   8.555   4.676 -0.3314  0.0188  0.7099
16609SOL     OW50404   4.511   3.708   2.649  0.4501 -0.5842 -0.3122
16609SOL    HW150405   4.581   3.659   2.608  0.3028  0.2119 -1.5653
16609SOL    HW250406   4.554   3.761   2.716  0.7840 -1.4153  0.1393
16610SOL     OW50407   2.040   7.114   6.928  0.4910 -0.4271  0.0212
16610SOL    HW150408   2.036   7.055   7.003  2.1923  1.6274  1.8370
16610SOL    HW250409   2.133   7.124   6.910  0.1584  0.1443 -1.5711
16611SOL     OW50410   6.952   4.191   1.969 -0.1416  0.1297 -0.1370
16611SOL    HW150411   7.023   4.201   2.032 -1.1487  0.6660  0.9315
16611SOL    HW250412   6.982   4.121   1.911  0.6999 -0.5427  1.0699
16612SOL     OW50413   8.463   4.439   1.184  0.0087  0.0204 -0.0835
16612SOL    HW150414   8.487   4.433   1.276 -0.1939 -0.6673 -0.0675
16612SOL    HW250415   8.477   4.531   1.161  1.6968 -0.1294  0.1861
16613SOL     OW50416   5.404   8.847   1.776  0.2841 -0.0406 -0.0134
16613SOL    HW150417   5.498   8.828   1.769  0.4294  0.2181  0.9719
16613SOL    HW250418   5.366   8.767   1.812  0.1241 -0.1597 -0.4498
16614SOL     OW50419   4.434   9.425   2.102  0.4693 -0.2943 -0.5439
16614SOL    HW150420   4.373   9.436   2.175  0.1437 -2.3655 -0.4401
16614SOL    HW250421   4.500   9.494   2.116 -1.3616  1.4947 -0.2307
16615SOL     OW50422   7.429   3.445   2.086  0.1342  0.0892 -0.0349
16615SOL    HW150423   7.446   3.538   2.097 -0.0912  0.1266 -0.0069
16615SOL    HW250424   7.352   3.428   2.140 -0.6644  0.1628 -1.1220
16616SOL     OW50425   6.630   8.929   6.787  0.8590 -0.3135 -0.1288
16616SOL    HW150426   6.576   8.957   6.862 -0.0339 -0.9223 -0.5422
16616SOL    HW250427   6.647   9.010   6.739 -1.4321 -0.3563 -1.1260
16617SOL     OW50428   7.167   5.260   8.798  0.3677  0.3611 -0.2601
16617SOL    HW150429   7.134   5.230   8.883 -0.4434 -0.4394 -0.8447
16617SOL    HW250430   7.254   5.296   8.818  0.3425 -0.1481  0.8531
16618SOL     OW50431   2.314   0.768   0.229  0.3558 -0.6996  0.5991
16618SOL    HW150432   2.401   0.805   0.238 -0.0058  0.0685  1.0788
16618SOL    HW250433   2.290   0.786   0.138  0.1895  0.2821  0.8164
16619SOL     OW50434   1.087   8.813   0.105  0.0532  0.0681 -0.1801
16619SOL    HW150435   1.152   8.818   0.176  1.0861 -1.5053 -0.9566
16619SOL    HW250436   1.092   8.898   0.062 -1.0253  1.2991  1.9383
16620SOL     OW50437   0.820   0.545   1.400  0.3206  0.8189 -0.2698
16620SOL    HW150438   0.845   0.637   1.404 -0.1187  0.9097  0.5916
16620SOL    HW250439   0.731   0.545   1.364 -0.3211  0.8761  1.2282
16621SOL     OW50440   6.220   8.061   6.029 -0.1375  0.9324  0.2355
16621SOL    HW150441   6.136   8.064   6.074 -0.7186  1.5257 -0.8539
16621SOL    HW250442   6.284   8.091   6.094 -0.7458  0.4533  1.0759
16622SOL     OW50443   4.488   8.982   7.555  0.0421  0.2290 -0.2158
16622SOL    HW150444   4.576   9.020   7.559 -0.0062  0.2360  1.2224
16622SOL    HW250445   4.500   8.891   7.582 -0.5283  0.5190  1.1022
16623SOL     OW50446   9.189   9.351   7.679  0.1664  0.2944 -0.1323
16623SOL    HW150447   9.275   9.338   7.638  0.7484  1.8269  0.5403
16623SOL    HW250448   9.202   9.425   7.738 -2.9609  4.7098 -4.2148
16624SOL     OW50449   8.279   8.392   9.122 -0.1166  0.3004 -0.1235
16624SOL    HW150450   8.284   8.454   9.195 -0.6308  0.2645 -0.0544
16624SOL    HW250451   8.321   8.437   9.049  1.2699 -0.0288  0.4380
16625SOL     OW50452   7.584   7.158   5.132  0.0627 -0.1186 -0.9077
16625SOL    HW150453   7.594   7.243   5.089  0.2451  0.3775  0.0909
16625SOL    HW250454   7.501   7.124   5.097 -0.0063  0.4570 -1.3297
16626SOL     OW50455   4.374   9.189   4.821  0.3448 -0.4700 -0.6384
16626SOL    HW150456   4.362   9.231   4.736 -2.2336  3.4070  1.3511
16626SOL    HW250457   4.292   9.142   4.836  0.7503 -1.0517 -0.2303
16627SOL     OW50458   7.459   4.181   7.855 -0.9364  0.2134  0.3879
16627SOL    HW150459   7.552   4.161   7.845 -1.0570 -0.3053  0.2297
16627SOL    HW250460   7.418   4.137   7.780 -1.4261 -0.4711  1.0443
16628SOL     OW50461   6.207   9.689   7.417 -0.4429  0.1312 -0.1735
16628SOL    HW150462   6.239   9.688   7.507  0.9623 -0.7805 -0.6546
16628SOL    HW250463   6.266   9.749   7.371 -1.1011  0.5283 -0.5140
16629SOL     OW50464   3.037   8.931   3.021  0.5644  0.1447 -0.1998
16629SOL    HW150465   3.098   8.998   3.050 -0.1331  0.6037  0.2572
16629SOL    HW250466   3.037   8.938   2.925 -1.2230  2.4530 -0.1281
16630SOL     OW50467   4.708   6.094   3.581 -0.2722 -0.0473 -0.1701
16630SOL    HW150468   4.637   6.045   3.539 -0.8536 -0.2132  0.9811
16630SOL    HW250469   4.747   6.032   3.642  0.5223  0.2097 -0.4098
16631SOL     OW50470   8.990   7.094   0.243  0.1378 -0.1548  0.4368
16631SOL    HW150471   9.034   7.073   0.325  0.2626 -3.6585 -0.3793
16631SOL    HW250472   9.056   7.142   0.192  0.7237  0.3092  1.5971
16632SOL     OW50473   6.378   9.937   8.195  0.0375 -0.2007 -0.0349
16632SOL    HW150474   6.415   9.854   8.225 -1.5372 -0.6496  0.7375
16632SOL    HW250475   6.296   9.946   8.243  0.9193  2.5973  1.1255
16633SOL     OW50476   2.524   5.736   6.139  0.2052  0.2568 -0.2775
16633SOL    HW150477   2.489   5.823   6.155  2.2257  1.2966 -1.0665
16633SOL    HW250478   2.497   5.715   6.049  0.6527  0.5893 -0.4964
16634SOL     OW50479   0.100   4.007   9.388  0.6585 -0.4038  0.4098
16634SOL    HW150480   0.077   3.929   9.438  1.3931 -0.2743  0.9721
16634SOL    HW250481   0.059   4.079   9.435 -1.2563 -0.5546 -0.9177
16635SOL     OW50482   4.177   1.955   7.853  0.4880  0.2282  0.0607
16635SOL    HW150483   4.166   2.040   7.894  0.3299  1.2916 -2.0552
16635SOL    HW250484   4.141   1.966   7.765  0.1646 -2.1279 -0.1658
16636SOL     OW50485   3.981   3.508   1.224 -0.3843 -0.6332 -0.4939
16636SOL    HW150486   4.043   3.490   1.295 -0.1059  1.9816  0.0523
16636SOL    HW250487   4.016   3.461   1.149  1.0322 -0.9990  0.3497
16637SOL     OW50488   2.407   8.375   8.001 -0.1291 -0.0634  0.0477
16637SOL    HW150489   2.325   8.422   7.986 -0.8130 -0.3621  2.4047
16637SOL    HW250490   2.387   8.284   7.976 -0.5503 -0.1421  0.6444
16638SOL     OW50491   3.746   4.436   8.887 -0.2428  0.2796  0.2612
16638SOL    HW150492   3.718   4.362   8.832  0.6908 -0.8711  1.2801
16638SOL    HW250493   3.838   4.450   8.865  0.2413 -0.4028  1.6990
16639SOL     OW50494   0.890   4.953   3.787 -0.0275  0.3678 -0.4350
16639SOL    HW150495   0.832   4.990   3.853 -0.8406  0.6435 -1.2694
16639SOL    HW250496   0.922   5.029   3.738  2.0089  0.3308  0.7335
16640SOL     OW50497   0.811   5.014   5.097 -0.2895  0.2615 -0.3378
16640SOL    HW150498   0.822   5.107   5.077 -2.1939  0.7744  0.7601
16640SOL    HW250499   0.776   4.976   5.016 -0.8233  0.7907 -0.3610
16641SOL     OW50500   1.517   5.989   9.848 -0.3842 -0.4419  0.5158
16641SOL    HW150501   1.594   6.043   9.863  0.3479 -1.3733  0.1551
16641SOL    HW250502   1.446   6.036   9.893 -0.1751  1.7732 -1.3371
16642SOL     OW50503   1.877   9.347   7.060 -0.4343 -0.0535  0.3554
16642SOL    HW150504   1.913   9.261   7.040 -1.4615 -0.3439 -0.3154
16642SOL    HW250505   1.782   9.336   7.053 -0.6591  0.8120  1.5497
16643SOL     OW50506   6.007   3.046   5.821 -0.2637  0.5769  0.3107
16643SOL    HW150507   5.937   2.982   5.828 -0.5083  0.5956 -1.4220
16643SOL    HW250508   5.991   3.108   5.892 -1.3943  0.0191  0.5597
16644SOL     OW50509   1.248   1.241   3.274  0.1946 -0.2917 -0.2902
16644SOL    HW150510   1.204   1.157   3.261  0.8884 -0.4792 -1.5515
16644SOL    HW250511   1.218   1.270   3.360  1.1321 -2.5834  0.9224
16645SOL     OW50512   3.636   3.372   7.978  0.3022  0.3688 -0.5897
16645SOL    HW150513   3.724   3.370   8.017  0.3963  0.5330 -0.7952
16645SOL    HW250514   3.597   3.289   8.005 -0.2952  1.2257  1.3542
16646SOL     OW50515   1.139   3.668   6.453  0.2904  0.1260 -0.0758
16646SOL    HW150516   1.205   3.733   6.428  3.0727 -1.8410  1.5561
16646SOL    HW250517   1.122   3.686   6.546  2.3721 -2.2730  0.8974
16647SOL     OW50518   0.255   0.459   3.527  0.5131  0.0618  0.5366
16647SOL    HW150519   0.244   0.374   3.484 -0.5674  1.0147 -1.2427
16647SOL    HW250520   0.295   0.515   3.460  0.1275  1.2515  1.2564
16648SOL     OW50521   2.371   0.044   8.810  0.3370  0.3053  0.1884
16648SOL    HW150522   2.354   0.124   8.860  0.4598  0.6314 -0.2959
16648SOL    HW250523   2.297   0.037   8.750  0.9239  0.6974 -0.5914
16649SOL     OW50524   5.218   5.161   1.469 -0.5474  0.1643 -0.3695
16649SOL    HW150525   5.255   5.168   1.557 -1.8866 -0.1906  0.2475
16649SOL    HW250526   5.228   5.068   1.447  0.9461  0.4725 -1.1554
16650SOL     OW50527   5.806   2.503   6.158  0.2399  0.2645  0.1647
16650SOL    HW150528   5.745   2.568   6.123  0.2013  0.6428  0.9157
16650SOL    HW250529   5.775   2.486   6.247 -0.2236 -1.3996 -0.2910
16651SOL     OW50530   2.415   8.697   9.250  0.0292  0.2879 -0.1107
16651SOL    HW150531   2.411   8.601   9.260 -0.6418  0.3089 -0.1513
16651SOL    HW250532   2.508   8.717   9.259  0.1094 -0.3056  0.5334
16652SOL     OW50533   8.179   0.695   5.242 -0.1263 -0.1722  0.0381
16652SOL    HW150534   8.116   0.760   5.210 -1.6730 -1.9197 -0.6376
16652SOL    HW250535   8.190   0.635   5.169 -0.7730 -2.1221  1.4788
16653SOL     OW50536   4.421   6.241   7.158 -0.2786  0.1434 -0.1492
16653SOL    HW150537   4.512   6.256   7.135 -0.2241 -2.1844 -1.7410
16653SOL    HW250538   4.384   6.194   7.082 -1.8793 -2.0171  1.8249
16654SOL     OW50539   6.361   6.296   8.271  0.1244  0.0581 -0.0400
16654SOL    HW150540   6.371   6.227   8.336  1.6889  1.2158  1.0384
16654SOL    HW250541   6.418   6.270   8.199 -0.9434 -0.8025 -0.5935
16655SOL     OW50542   2.153   5.525   4.605 -0.5512  0.6001  0.4309
16655SOL    HW150543   2.068   5.568   4.612 -0.3933  0.8312  0.9973
16655SOL    HW250544   2.147   5.450   4.664 -0.6215  0.1844 -0.1049
16656SOL     OW50545   2.638   8.265   8.766  0.5587  0.2998  1.0072
16656SOL    HW150546   2.680   8.183   8.743 -3.2898 -2.3864  2.4141
16656SOL    HW250547   2.606   8.301   8.683  0.9003 -0.4482  0.5475
16657SOL     OW50548   7.543   6.514   0.859 -0.1823  0.1647  0.3239
16657SOL    HW150549   7.593   6.587   0.897  1.6135 -1.2896  0.8586
16657SOL    HW250550   7.545   6.446   0.926 -1.2561 -0.6379 -0.4366
16658SOL     OW50551   9.149   5.055   6.323 -0.2203  0.0218  0.2367
16658SOL    HW150552   9.073   5.070   6.380  1.0471  0.0815  1.9733
16658SOL    HW250553   9.132   4.970   6.283 -1.9729  0.7558 -0.7314
16659SOL     OW50554   5.982   0.284   8.168  0.6447  0.0500 -0.2056
16659SOL    HW150555   5.920   0.356   8.163  0.5857  0.2763  2.4001
16659SOL    HW250556   6.061   0.317   8.126 -0.8674 -0.2548 -3.6126
16660SOL     OW50557   5.446   9.266   3.038 -0.6061 -0.5349  1.1124
16660SOL    HW150558   5.528   9.296   3.076 -0.5983 -0.1768  0.8183
16660SOL    HW250559   5.378   9.302   3.096 -0.6039  0.1953  0.6821
16661SOL     OW50560   6.162   4.871   3.608 -0.1953  0.4708 -0.4384
16661SOL    HW150561   6.153   4.903   3.697 -1.5013  0.2343 -0.4587
16661SOL    HW250562   6.167   4.950   3.554  1.0228  0.6129 -0.1342
16662SOL     OW50563   6.453   2.049   3.423 -0.8229  0.0265 -0.3740
16662SOL    HW150564   6.476   1.956   3.421 -3.0507 -0.5792 -2.5784
16662SOL    HW250565   6.403   2.063   3.342 -1.7527  2.8295  0.5817
16663SOL     OW50566   7.728   1.458   1.500 -0.3224 -0.1963  0.5565
16663SOL    HW150567   7.685   1.398   1.561  0.2616  1.2315  2.4769
16663SOL    HW250568   7.812   1.416   1.482 -0.9486 -1.1657 -0.1737
16664SOL     OW50569   4.109   7.809   7.969 -0.1470  0.2918  0.3517
16664SOL    HW150570   4.073   7.832   7.883  0.4176  0.1167  0.0619
16664SOL    HW250571   4.037   7.765   8.014  0.1522 -1.4639 -0.8048
16665SOL     OW50572   3.395   4.332   5.156 -0.2138  0.3885  0.5314
16665SOL    HW150573   3.460   4.359   5.091 -0.6666 -3.3518 -1.8009
16665SOL    HW250574   3.311   4.355   5.116 -0.4469 -0.2959  0.6136
16666SOL     OW50575   0.564   0.211   1.024  0.2087  0.7243 -0.6339
16666SOL    HW150576   0.544   0.290   1.073 -0.9867 -0.9179  1.6876
16666SOL    HW250577   0.525   0.225   0.938 -2.6510  1.5115  0.6912
16667SOL     OW50578   6.362   1.399   9.702  0.3365 -0.3478 -0.5737
16667SOL    HW150579   6.394   1.327   9.756  0.4740  0.5542  0.5963
16667SOL    HW250580   6.268   1.383   9.693  0.1550 -0.1052  0.6325
16668SOL     OW50581   4.067   0.654   2.717 -0.7734  0.2920  0.1610
16668SOL    HW150582   4.077   0.619   2.629  0.1857 -0.6762  0.6311
16668SOL    HW250583   4.029   0.741   2.704 -1.4947 -0.1912 -1.1436
16669SOL     OW50584   0.415   1.759   3.185 -0.4316  0.3728 -0.4415
16669SOL    HW150585   0.463   1.679   3.165  0.3123  0.4686  0.8892
16669SOL    HW250586   0.323   1.736   3.169 -0.0635 -0.0928 -2.0972
16670SOL     OW50587   2.618   7.221   1.230  0.2059  0.1805 -0.2532
16670SOL    HW150588   2.596   7.173   1.151  0.1163  2.1971 -1.5314
16670SOL    HW250589   2.549   7.199   1.292 -0.1199 -0.8759 -0.9661
16671SOL     OW50590   0.218   3.119   8.776  0.0328 -0.2090  0.0520
16671SOL    HW150591   0.295   3.081   8.735 -1.1281 -1.3315 -1.1561
16671SOL    HW250592   0.253   3.191   8.830  1.7694  0.1972 -1.5124
16672SOL     OW50593   8.254   4.698   6.828 -0.2216 -0.2139 -0.0063
16672SOL    HW150594   8.331   4.732   6.784  0.0794 -1.2841 -0.3092
16672SOL    HW250595   8.192   4.772   6.828  1.2619  1.1284  1.4678
16673SOL     OW50596   7.636   8.732   4.694 -0.4915 -0.2986 -0.4008
16673SOL    HW150597   7.722   8.760   4.663 -0.5250 -1.4011 -1.5479
16673SOL    HW250598   7.579   8.737   4.617 -1.4479  0.3101  0.3178
16674SOL     OW50599   8.421   1.400   1.702  0.1660 -0.4673 -0.3749
16674SOL    HW150600   8.360   1.423   1.632  1.0804  1.5738 -0.5814
16674SOL    HW250601   8.371   1.344   1.761 -1.3501 -0.2880 -1.4489
16675SOL     OW50602   8.806   0.809   1.094 -0.7300 -0.1430  0.0211
16675SOL    HW150603   8.826   0.896   1.059 -0.7017 -0.3700 -0.5272
16675SOL    HW250604   8.776   0.826   1.183 -0.0179  0.3722  0.1765
16676SOL     OW50605   6.674   3.357   6.407 -0.0821 -0.1439 -0.1558
16676SOL    HW150606   6.672   3.432   6.348 -0.8934 -0.6159 -0.7597
16676SOL    HW250607   6.767   3.342   6.425  0.0596  1.7232  0.9486
16677SOL     OW50608   8.780   7.811   4.060  0.6720 -0.2124 -0.0136
16677SOL    HW150609   8.793   7.801   4.154 -0.0954 -1.6273 -0.0426
16677SOL    HW250610   8.804   7.726   4.023  2.0230  0.6599 -1.2327
16678SOL     OW50611   4.149   6.093   5.987 -0.6152 -0.2295 -0.5629
16678SOL    HW150612   4.241   6.120   5.987 -0.8212  0.4980 -0.4025
16678SOL    HW250613   4.152   5.998   5.979  0.2341 -0.4739  1.7791
16679SOL     OW50614   9.700   9.337   5.329  0.0236  0.4773  0.3111
16679SOL    HW150615   9.781   9.314   5.282 -0.3449 -2.7288  0.9900
16679SOL    HW250616   9.630   9.323   5.265 -0.1822  0.5213  0.5248
16680SOL     OW50617   3.609   5.545   4.894  0.1793 -0.2988  0.0384
16680SOL    HW150618   3.588   5.637   4.913  1.9943  0.6336 -1.9037
16680SOL    HW250619   3.623   5.544   4.799 -0.8792 -2.8729 -0.1480
16681SOL     OW50620   6.195   8.858   7.167  0.0083 -0.4099  0.4856
16681SOL    HW150621   6.242   8.931   7.206 -3.4016  1.1588  2.0421
16681SOL    HW250622   6.177   8.887   7.077  0.3561 -0.2142  0.4764
16682SOL     OW50623   3.583   2.992   0.020  0.5858 -0.1912  0.2483
16682SOL    HW150624   3.532   2.989  -0.061 -0.2097  0.2976  0.7129
16682SOL    HW250625   3.534   2.937   0.081  1.5713 -1.1506  0.1936
16683SOL     OW50626   3.689   6.245   1.839  0.1576 -0.7610  0.2639
16683SOL    HW150627   3.595   6.227   1.839  0.2871 -1.4671 -0.3500
16683SOL    HW250628   3.703   6.297   1.918 -1.4493  3.2497 -1.8362
16684SOL     OW50629   5.264   2.638   1.813 -0.0646 -0.0655  0.3673
16684SOL    HW150630   5.252   2.731   1.792 -0.4547  0.0333  0.9785
16684SOL    HW250631   5.351   2.616   1.780  0.3532  0.7285  0.9103
16685SOL     OW50632   5.897   8.614   7.610  0.3558  0.3744 -0.4141
16685SOL    HW150633   5.943   8.626   7.527  3.0309  0.2638  0.9503
16685SOL    HW250634   5.914   8.524   7.636  0.3693  0.6744  0.7036
16686SOL     OW50635   5.473   2.126   8.825  0.1573  0.1934  0.2562
16686SOL    HW150636   5.564   2.118   8.850 -0.3261 -1.6237  1.6638
16686SOL    HW250637   5.471   2.199   8.764  2.7421 -0.4701 -0.7620
16687SOL     OW50638   0.324   6.575   2.190 -0.6124  0.0814  0.2262
16687SOL    HW150639   0.387   6.579   2.118 -0.6434 -0.5011  0.1616
16687SOL    HW250640   0.314   6.666   2.218  1.1774  0.0685  1.0358
16688SOL     OW50641   3.171   6.461   8.909  0.2604  0.3415 -0.1746
16688SOL    HW150642   3.180   6.527   8.840  1.2746 -0.1319 -0.5169
16688SOL    HW250643   3.165   6.378   8.862  0.2381  0.0842  0.2814
16689SOL     OW50644   4.890   4.442   9.305  0.1867  0.2917 -0.0203
16689SOL    HW150645   4.795   4.454   9.298  0.0038 -0.1700  1.4577
16689SOL    HW250646   4.923   4.467   9.218 -1.1864  1.2825 -0.2969
16690SOL     OW50647   9.491   8.168   4.027  0.7253  0.1909  0.5197
16690SOL    HW150648   9.434   8.109   4.076  1.5227 -0.7411  0.3560
16690SOL    HW250649   9.444   8.184   3.945  0.6040 -0.4118  0.4669
16691SOL     OW50650   6.412   0.268   0.779 -0.3014  0.6315  0.5276
16691SOL    HW150651   6.482   0.270   0.714  0.1325 -0.2193  0.9454
16691SOL    HW250652   6.404   0.175   0.803  0.0886  1.0092  2.2488
16692SOL     OW50653   9.181   6.870   4.339 -0.6315 -0.2668 -0.1085
16692SOL    HW150654   9.091   6.901   4.327 -0.7511  0.1941  1.7339
16692SOL    HW250655   9.186   6.791   4.285 -1.8869  0.1187 -0.8439
16693SOL     OW50656   3.208   1.273   5.924 -0.4231 -0.0615  0.0634
16693SOL    HW150657   3.218   1.226   5.841  1.1614  0.6228 -0.1833
16693SOL    HW250658   3.235   1.210   5.991 -1.0906 -0.4142  0.0015
16694SOL     OW50659   1.522   1.076   2.269  0.1345 -0.3120 -0.0305
16694SOL    HW150660   1.494   0.987   2.293  0.2435 -0.4777 -0.4997
16694SOL    HW250661   1.528   1.123   2.352 -0.6399 -0.5346  0.1530
16695SOL     OW50662   3.180   6.496   1.708  0.3859  0.4081 -0.6615
16695SOL    HW150663   3.273   6.514   1.719  0.0729  2.4697 -0.9363
16695SOL    HW250664   3.158   6.438   1.781  1.9880 -0.6842 -0.9830
16696SOL     OW50665   0.463   2.671   5.434  0.2151  0.2557  0.0028
16696SOL    HW150666   0.533   2.641   5.493  0.1415 -3.4920 -1.5667
16696SOL    HW250667   0.489   2.761   5.412  2.5415  0.2919  2.3039
16697SOL     OW50668   2.922   4.815   9.421 -0.4473  0.0835 -0.1688
16697SOL    HW150669   2.957   4.733   9.456  1.3666  1.9608  2.7990
16697SOL    HW250670   2.857   4.843   9.485 -0.4970  1.3697 -0.7515
16698SOL     OW50671   6.477   1.094   6.555 -0.2767 -0.4167 -0.4488
16698SOL    HW150672   6.405   1.048   6.598  0.4027 -0.9611  0.1362
16698SOL    HW250673   6.436   1.143   6.484 -1.2026 -0.8082 -0.1910
16699SOL     OW50674   0.072   6.504   3.585  1.1197  0.5349 -0.4324
16699SOL    HW150675   0.085   6.484   3.678 -0.1249 -0.0103 -0.3499
16699SOL    HW250676   0.111   6.430   3.539  0.1955 -0.0653 -0.2710
16700SOL     OW50677   5.126   6.933   5.407  0.0516  0.4384 -0.2407
16700SOL    HW150678   5.081   7.013   5.436 -1.0998 -0.5242  0.7108
16700SOL    HW250679   5.116   6.872   5.480  1.7195 -0.2968 -0.5785
16701SOL     OW50680   8.031   2.609   1.413 -0.1414 -0.0846 -0.2796
16701SOL    HW150681   8.000   2.606   1.323 -1.0925 -0.5402  0.0501
16701SOL    HW250682   8.099   2.541   1.416 -1.0919 -1.0756 -0.3174
16702SOL     OW50683   0.602   7.659   3.284 -0.0147 -0.6673  0.0782
16702SOL    HW150684   0.664   7.704   3.227 -0.2649  0.0015  0.3285
16702SOL    HW250685   0.655   7.591   3.327 -0.1557 -2.2540 -2.1089
16703SOL     OW50686   9.179   7.901   1.244  0.3818  0.0732  0.0861
16703SOL    HW150687   9.226   7.859   1.172 -1.2841  2.1339 -2.4184
16703SOL    HW250688   9.112   7.837   1.269 -0.0775 -0.0687 -1.4042
16704SOL     OW50689   2.008   0.499   9.066  0.0680  0.0266 -0.3921
16704SOL    HW150690   2.049   0.476   9.149 -0.4184  0.3541 -0.0528
16704SOL    HW250691   2.078   0.492   9.002  0.5685  0.2315  0.1199
16705SOL     OW50692   1.251   3.962   4.357 -0.1255 -0.0217 -0.3863
16705SOL    HW150693   1.176   4.013   4.326  0.6744  1.7324  0.4438
16705SOL    HW250694   1.324   4.023   4.356  1.0280 -1.3281  0.0884
16706SOL     OW50695   0.827   8.081   1.349  0.2818  0.1266  0.2332
16706SOL    HW150696   0.870   8.048   1.428  1.1795 -0.7502 -0.5802
16706SOL    HW250697   0.734   8.087   1.372 -0.1830 -3.9570  0.2630
16707SOL     OW50698   7.173   1.316   2.337 -0.7123 -0.1475 -0.0227
16707SOL    HW150699   7.250   1.289   2.386 -0.3396 -0.0499 -0.5436
16707SOL    HW250700   7.102   1.315   2.401  0.0502  1.4846  0.9099
16708SOL     OW50701   7.882   8.739   8.527  1.0382  0.0716 -0.5434
16708SOL    HW150702   7.862   8.646   8.514  1.4646 -0.1845  0.4934
16708SOL    HW250703   7.977   8.741   8.542  0.5444 -0.0065  4.1463
16709SOL     OW50704   0.563   4.804   1.436 -0.3943 -0.1547  0.3107
16709SOL    HW150705   0.606   4.805   1.522 -0.8094 -0.4694  0.5299
16709SOL    HW250706   0.506   4.881   1.437 -1.7009 -1.0903  1.0153
16710SOL     OW50707   7.838   8.025   4.678  0.0273  0.5795 -0.3274
16710SOL    HW150708   7.874   7.937   4.690  0.1918  0.7683  0.6732
16710SOL    HW250709   7.873   8.075   4.752  0.2155  1.5806 -1.0682
16711SOL     OW50710   1.704   2.198   4.843  0.2656 -0.3327 -0.3587
16711SOL    HW150711   1.744   2.129   4.895 -0.2314 -2.4158 -2.5448
16711SOL    HW250712   1.761   2.274   4.854  1.7967 -1.5994  0.8015
16712SOL     OW50713   3.984   6.291   8.711 -0.3792  0.1661 -0.4763
16712SOL    HW150714   4.072   6.328   8.708 -0.1928 -0.3437 -1.9398
16712SOL    HW250715   3.938   6.343   8.777  1.4522 -0.5570  1.4956
16713SOL     OW50716   8.836   5.533   9.043  0.1255  0.3511  0.0600
16713SOL    HW150717   8.850   5.443   9.072 -1.6033 -0.0979 -0.3989
16713SOL    HW250718   8.823   5.527   8.948 -5.1284  0.2224  0.4638
16714SOL     OW50719   7.131   6.810   4.425 -0.1848  0.9851 -0.0207
16714SOL    HW150720   7.094   6.839   4.342 -0.7514  0.6346  0.1051
16714SOL    HW250721   7.058   6.768   4.471  0.5843 -0.5579 -0.1529
16715SOL     OW50722   4.521   5.976   6.141  0.5628  0.0392 -0.3388
16715SOL    HW150723   4.435   5.934   6.150 -0.0692  0.8402 -2.0541
16715SOL    HW250724   4.576   5.932   6.205 -1.3240  0.0947  1.4528
16716SOL     OW50725   2.683   0.828   6.958 -0.0558  0.0323 -0.0858
16716SOL    HW150726   2.654   0.806   7.046 -0.4107 -1.0867 -0.4642
16716SOL    HW250727   2.732   0.910   6.968 -0.6956  0.2955  1.0310
16717SOL     OW50728   4.249   0.933   8.531  0.2015  0.5747  0.4718
16717SOL    HW150729   4.256   0.953   8.437  1.5751  1.2817  0.6986
16717SOL    HW250730   4.294   1.005   8.574 -1.7581  1.0957  1.7990
16718SOL     OW50731   5.746   1.668   9.491 -0.2543  1.0900  0.2004
16718SOL    HW150732   5.834   1.702   9.510  0.6663 -0.1722 -1.5259
16718SOL    HW250733   5.698   1.745   9.460 -0.0211  1.9491  1.8475
16719SOL     OW50734   9.703   4.999   8.376 -0.3476  0.4967  0.4986
16719SOL    HW150735   9.744   4.953   8.449 -0.0550  2.3190  1.5328
16719SOL    HW250736   9.746   4.963   8.298  0.0779 -0.7336  1.2601
16720SOL     OW50737   6.485   5.083   0.741 -0.1315 -0.6065 -0.0830
16720SOL    HW150738   6.430   5.044   0.809 -0.3761 -0.4529 -0.1927
16720SOL    HW250739   6.573   5.049   0.759 -0.5635 -2.3120 -0.9880
16721SOL     OW50740   6.823   0.536   8.357  0.3261 -0.3737 -0.4467
16721SOL    HW150741   6.764   0.601   8.319  1.6958  0.6469 -0.8941
16721SOL    HW250742   6.779   0.452   8.343 -0.8392  0.3236 -1.0842
16722SOL     OW50743   1.991   1.032   7.480  0.0585  0.4861 -0.1472
16722SOL    HW150744   1.962   0.941   7.476 -1.6819  0.9048  1.4323
16722SOL    HW250745   1.982   1.065   7.390 -0.7204 -0.4795 -0.4328
16723SOL     OW50746   9.538   3.083   1.010 -0.0084  0.4510 -0.3438
16723SOL    HW150747   9.477   3.034   1.066 -1.2753  1.0391 -1.1520
16723SOL    HW250748   9.529   3.042   0.924  1.2388  0.1430 -0.3440
16724SOL     OW50749   3.522   9.226   2.941  0.6100 -0.4724  0.1268
16724SOL    HW150750   3.612   9.244   2.968  0.3007 -0.4875  1.1908
16724SOL    HW250751   3.522   9.133   2.920  0.3646 -0.9615  2.1494
16725SOL     OW50752   3.863   6.969   1.662  0.0394  0.5366 -0.4793
16725SOL    HW150753   3.947   7.009   1.638  1.0260 -2.2894 -2.1162
16725SOL    HW250754   3.886   6.895   1.718 -1.2971 -0.5110 -1.2445
16726SOL     OW50755   5.740   5.391   7.517  0.6306  0.0038 -0.1225
16726SOL    HW150756   5.779   5.361   7.435  1.1768  0.5697 -0.0753
16726SOL    HW250757   5.706   5.311   7.557 -0.7940 -0.1253 -1.4919
16727SOL     OW50758   2.360   3.753   2.591 -0.1698 -0.2958  0.0516
16727SOL    HW150759   2.446   3.775   2.555 -0.0736 -2.7222 -1.4855
16727SOL    HW250760   2.307   3.831   2.575  1.4310  0.8605  0.0619
16728SOL     OW50761   5.045   9.327   2.702  0.2629  0.1345 -0.3233
16728SOL    HW150762   5.110   9.391   2.729 -2.4333  2.0676  2.1823
16728SOL    HW250763   5.096   9.247   2.685  3.3663  1.8691  0.1023
16729SOL     OW50764   5.429   3.852   1.120  0.0140  1.4757  0.3740
16729SOL    HW150765   5.503   3.865   1.060 -0.8422 -0.2655 -1.1769
16729SOL    HW250766   5.398   3.940   1.140  0.9068  2.1500 -1.0487
16730SOL     OW50767   6.170   8.413   7.622  0.1717  0.2571  0.2941
16730SOL    HW150768   6.244   8.420   7.683 -0.3207 -1.6969  1.1918
16730SOL    HW250769   6.126   8.332   7.647  1.2781 -2.0126 -4.1629
16731SOL     OW50770   2.969   8.411   4.094  0.2756  0.0898 -0.2202
16731SOL    HW150771   2.911   8.345   4.132 -3.0274  2.6521 -0.4384
16731SOL    HW250772   2.985   8.472   4.166 -0.1881  1.2265 -1.0555
16732SOL     OW50773   2.090   8.944   4.328  0.5236  0.5982  0.0394
16732SOL    HW150774   2.093   9.027   4.281 -1.1339  0.7812  0.1765
16732SOL    HW250775   2.050   8.966   4.412 -0.0733 -0.3608  0.0188
16733SOL     OW50776   9.668   1.916   1.519 -0.2158 -0.1660 -0.1922
16733SOL    HW150777   9.589   1.881   1.479  0.3089 -1.7408  0.1023
16733SOL    HW250778   9.655   1.904   1.613 -0.3874  1.2629 -0.0054
16734SOL     OW50779   7.731   0.164   8.758  0.4113 -0.2892 -0.1210
16734SOL    HW150780   7.649   0.116   8.764  0.3720 -0.1079  1.0273
16734SOL    HW250781   7.739   0.210   8.842  2.3223 -1.3297  0.3348
16735SOL     OW50782   6.905   6.259   5.450  0.7854  0.4171 -0.1374
16735SOL    HW150783   6.950   6.206   5.516  1.3775  0.0745 -0.7961
16735SOL    HW250784   6.812   6.251   5.472  0.9388 -0.1156  0.3490
16736SOL     OW50785   0.452   9.163   5.531  0.5698 -0.1865 -0.0801
16736SOL    HW150786   0.489   9.157   5.443  2.9368 -0.2752  0.8361
16736SOL    HW250787   0.504   9.103   5.584  0.7690  1.5345  1.8354
16737SOL     OW50788   6.162   2.063   8.285 -0.2172  0.3593  0.4465
16737SOL    HW150789   6.181   2.043   8.193 -1.0597 -1.0249  0.5481
16737SOL    HW250790   6.075   2.028   8.300 -0.7164  1.9159  1.3975
16738SOL     OW50791   9.978   0.513   2.908  0.1943 -0.3563  0.2156
16738SOL    HW150792   9.919   0.455   2.957  0.8536 -0.7271  0.5803
16738SOL    HW250793   9.996   0.466   2.826 -0.9259  0.2737 -0.4176
16739SOL     OW50794   3.776   5.002   1.066  0.0710 -0.2881  0.3010
16739SOL    HW150795   3.726   4.991   0.985 -0.5415  0.1001  0.6139
16739SOL    HW250796   3.747   4.929   1.122 -0.5827  0.2551  0.6900
16740SOL     OW50797   6.329   4.899   1.906 -0.0164 -0.7729 -0.6457
16740SOL    HW150798   6.312   4.959   1.834 -1.2757 -1.8639 -1.2973
16740SOL    HW250799   6.244   4.885   1.947  0.6457 -0.3194  0.9734
16741SOL     OW50800   6.181   3.283   0.780  0.0279 -0.1171 -0.6723
16741SOL    HW150801   6.132   3.266   0.700  0.5017  0.8442 -1.1845
16741SOL    HW250802   6.262   3.232   0.769 -0.4180 -0.9241 -0.2664
16742SOL     OW50803   4.514   5.136   8.836  0.4835 -0.6230  0.0127
16742SOL    HW150804   4.474   5.057   8.873  1.8290 -2.1440 -1.5845
16742SOL    HW250805   4.471   5.208   8.881 -1.9914 -2.2114  0.3768
16743SOL     OW50806   6.767   7.633   0.644  0.2106 -0.2512 -0.1645
16743SOL    HW150807   6.760   7.542   0.675 -2.8202 -0.1467 -0.3116
16743SOL    HW250808   6.767   7.685   0.725  1.0492 -0.3257 -0.1097
16744SOL     OW50809   0.719   4.029   9.894  0.0488  0.4264 -0.3477
16744SOL    HW150810   0.765   4.074   9.965  0.8397 -0.7805 -0.0766
16744SOL    HW250811   0.776   4.041   9.818  0.1783  0.0341 -0.3137
16745SOL     OW50812   1.662   4.708   0.635 -0.0590 -0.0407 -0.0108
16745SOL    HW150813   1.602   4.757   0.579  0.8829  0.1195 -0.8986
16745SOL    HW250814   1.607   4.676   0.706 -1.2544 -0.0925 -0.9256
16746SOL     OW50815   9.136   1.498   1.940 -0.3802 -0.4844 -0.4022
16746SOL    HW150816   9.057   1.517   1.991  0.2599 -0.0886  0.4557
16746SOL    HW250817   9.207   1.499   2.004  0.6619  1.5073 -1.4995
16747SOL     OW50818   4.622   9.974   5.581  0.2151  0.4086 -0.1208
16747SOL    HW150819   4.677   9.896   5.581  0.5909  0.6488  1.3498
16747SOL    HW250820   4.683  10.047   5.571  0.0433  0.6071  0.2534
16748SOL     OW50821   6.508   2.528   3.594  0.1846  0.0555 -0.2344
16748SOL    HW150822   6.456   2.456   3.629  0.0544 -0.3333 -1.2222
16748SOL    HW250823   6.599   2.501   3.608  0.1423 -0.5617 -1.1182
16749SOL     OW50824   7.416   8.287   7.630 -0.0592 -0.1391 -0.4061
16749SOL    HW150825   7.383   8.338   7.704  2.3530 -0.2875  0.8463
16749SOL    HW250826   7.398   8.196   7.654  2.5857 -0.3574  1.1076
16750SOL     OW50827   9.586   8.593   2.225 -0.3845  0.5640 -0.1911
16750SOL    HW150828   9.534   8.589   2.145 -1.3730 -1.5552  0.4664
16750SOL    HW250829   9.531   8.641   2.287 -1.9646 -2.0769  0.6508
16751SOL     OW50830   0.936   9.730   9.556  0.3957  0.7228  0.6715
16751SOL    HW150831   1.004   9.703   9.494 -0.1481  1.3552 -0.2333
16751SOL    HW250832   0.868   9.664   9.548 -0.4580  1.7110 -0.7494
16752SOL     OW50833   7.203   7.343   0.998  0.6074 -0.2297 -0.4949
16752SOL    HW150834   7.157   7.260   0.986 -2.1081  1.0549  0.1707
16752SOL    HW250835   7.158   7.404   0.939 -0.1411  1.6244  1.8213
16753SOL     OW50836   6.807   5.256   2.097 -0.1100 -0.2794  0.2901
16753SOL    HW150837   6.825   5.167   2.067 -0.5879  0.2625 -1.8110
16753SOL    HW250838   6.887   5.304   2.079  0.0712 -0.2220  1.2134
16754SOL     OW50839   9.611   8.796   9.323 -0.1513  1.3180  0.1434
16754SOL    HW150840   9.647   8.748   9.397  0.0861 -2.6007 -2.2119
16754SOL    HW250841   9.673   8.781   9.252 -2.0662  1.8615 -1.7565
16755SOL     OW50842   2.039   5.162   9.881 -0.2046 -0.0516  0.0040
16755SOL    HW150843   2.127   5.136   9.906 -0.6880 -1.4133  0.4007
16755SOL    HW250844   1.989   5.080   9.879 -1.2301  0.5556 -1.1747
16756SOL     OW50845   7.238   4.710   9.173 -0.2634  0.0350  0.1044
16756SOL    HW150846   7.143   4.717   9.183 -0.6395 -1.7441 -1.5689
16756SOL    HW250847   7.254   4.736   9.082  0.8427  0.1122  0.3078
16757SOL     OW50848   6.291   9.574   2.191  0.2048  0.0889 -0.3063
16757SOL    HW150849   6.223   9.583   2.125 -1.8457  1.4812  1.7934
16757SOL    HW250850   6.282   9.485   2.224 -1.9170  0.7488  1.1233
16758SOL     OW50851   6.198   5.899   0.040  0.1519 -0.5236  0.0080
16758SOL    HW150852   6.282   5.920  -0.002  0.9819 -1.1938  1.2721
16758SOL    HW250853   6.213   5.815   0.083 -0.2651  0.6308  2.5906
16759SOL     OW50854   9.911   2.480   2.822 -0.3781 -0.8029 -0.5532
16759SOL    HW150855   9.891   2.476   2.915 -0.3427  1.9692 -0.3658
16759SOL    HW250856   9.844   2.537   2.785  0.1384 -1.1367 -2.0736
16760SOL     OW50857   7.830   9.456   1.983 -0.9496  0.1134  0.1439
16760SOL    HW150858   7.782   9.394   1.928  0.4241 -0.9478  0.1152
16760SOL    HW250859   7.866   9.403   2.054  2.2949  0.3519 -1.1685
16761SOL     OW50860   6.417   6.817   4.145 -0.0040 -0.0740 -0.0590
16761SOL    HW150861   6.494   6.760   4.143  2.5463  3.0870 -0.5515
16761SOL    HW250862   6.406   6.838   4.238 -0.7776 -1.0814  0.0925
16762SOL     OW50863   1.028   0.629   1.114  0.1839 -0.9195 -0.4723
16762SOL    HW150864   1.028   0.543   1.073  1.0710  0.1523 -2.9189
16762SOL    HW250865   1.099   0.677   1.070 -0.3029  1.0755  0.7709
16763SOL     OW50866   1.623   4.468   1.695 -0.4547  0.0064 -0.4291
16763SOL    HW150867   1.665   4.389   1.661  0.5835  0.6269 -0.6608
16763SOL    HW250868   1.592   4.514   1.617  1.3795  1.1283 -0.5626
16764SOL     OW50869   9.343   7.035   9.254 -0.6251 -0.1667  0.4716
16764SOL    HW150870   9.378   7.109   9.205 -1.2005  0.6808  1.2832
16764SOL    HW250871   9.412   7.013   9.317 -0.3814 -0.4384  0.1085
16765SOL     OW50872   4.893   7.320   8.603 -0.1586  0.3948  0.0519
16765SOL    HW150873   4.981   7.289   8.583 -0.0711 -1.1100  2.3588
16765SOL    HW250874   4.892   7.411   8.573  1.9606  0.2581 -0.5844
16766SOL     OW50875   5.475   6.795   4.619  0.4691 -0.0030  0.3289
16766SOL    HW150876   5.445   6.843   4.542 -2.3547  0.1356  1.3967
16766SOL    HW250877   5.475   6.704   4.592 -4.2503 -0.4568  0.9667
16767SOL     OW50878   2.326   8.075   5.749  0.6055  0.9613  0.2169
16767SOL    HW150879   2.280   8.097   5.667  2.1266 -0.3503 -1.0675
16767SOL    HW250880   2.256   8.048   5.809 -0.6031  2.4397 -0.4401
16768SOL     OW50881   3.398   0.019   0.417 -0.0666  0.3632  0.2210
16768SOL    HW150882   3.311  -0.001   0.382 -0.0415  0.6701 -0.0193
16768SOL    HW250883   3.383   0.034   0.510  0.0098 -1.4448  0.5642
16769SOL     OW50884   6.191   4.174   7.893  0.4703 -0.5398 -0.0820
16769SOL    HW150885   6.230   4.208   7.974  0.9917 -0.6814 -0.2693
16769SOL    HW250886   6.134   4.245   7.862 -0.0297 -0.6277  0.6066
16770SOL     OW50887   6.642   0.834   9.565 -0.4322 -0.2384 -0.4489
16770SOL    HW150888   6.686   0.908   9.524 -0.5907 -0.1795 -0.5131
16770SOL    HW250889   6.610   0.868   9.649  0.2459 -0.4664 -0.0839
16771SOL     OW50890   6.233   2.186   1.594 -1.2137  0.7810 -0.4850
16771SOL    HW150891   6.283   2.172   1.515 -0.0956 -3.0229  0.6961
16771SOL    HW250892   6.144   2.156   1.573 -0.9363 -0.1540 -0.3374
16772SOL     OW50893   2.090   5.774   2.363  0.0976 -0.2460 -0.0586
16772SOL    HW150894   2.087   5.678   2.367  1.3273 -0.4535 -2.4172
16772SOL    HW250895   2.046   5.802   2.443 -0.4021 -2.7675  0.6566
16773SOL     OW50896   3.126   9.385   1.477  0.7102 -0.7881  0.4124
16773SOL    HW150897   3.126   9.333   1.557  1.4335  0.4993  1.2786
16773SOL    HW250898   3.127   9.476   1.507 -4.2257  0.0243 -0.9191
16774SOL     OW50899   8.252   9.125   2.160  0.0413  0.2621 -0.1074
16774SOL    HW150900   8.172   9.155   2.116  0.0294 -1.3153 -1.2284
16774SOL    HW250901   8.233   9.036   2.187  1.3799 -0.1021 -0.2862
16775SOL     OW50902   6.659   5.882   9.521 -0.6800  0.0677 -0.0239
16775SOL    HW150903   6.720   5.955   9.524 -1.1315  0.4182  1.3993
16775SOL    HW250904   6.709   5.808   9.556 -0.3337 -0.2555 -1.1395
16776SOL     OW50905   4.519   9.435   4.411 -0.3826  0.1125  0.1766
16776SOL    HW150906   4.611   9.428   4.434 -0.1406  3.2936  0.4941
16776SOL    HW250907   4.476   9.368   4.464  1.6813 -1.3926  0.0574
16777SOL     OW50908   0.033   1.071   5.256 -0.1318 -0.2373  0.1689
16777SOL    HW150909  -0.043   1.129   5.249  0.5836  1.0048  1.7352
16777SOL    HW250910   0.078   1.081   5.173 -0.7583  0.4011 -0.1123
16778SOL     OW50911   5.795   1.743   6.041 -0.1773 -0.6367  0.5200
16778SOL    HW150912   5.824   1.735   5.950  1.4488  0.6313  0.8855
16778SOL    HW250913   5.803   1.654   6.076 -1.8632 -1.3857 -0.8054
16779SOL     OW50914   2.041   4.236   9.224 -0.7046 -0.3460  0.1206
16779SOL    HW150915   2.000   4.258   9.141  0.5565 -2.0712 -1.0386
16779SOL    HW250916   2.021   4.143   9.236 -0.2761 -0.2899  1.4043
16780SOL     OW50917   8.087   0.658   0.507 -0.0327 -0.6153 -0.1113
16780SOL    HW150918   8.017   0.713   0.543  0.0940 -0.8587  0.5186
16780SOL    HW250919   8.057   0.636   0.419  0.0549  0.7087 -0.4946
16781SOL     OW50920   0.667   1.307   3.486  1.1716 -0.3817 -0.7385
16781SOL    HW150921   0.741   1.366   3.502  0.9308  0.6368 -3.0203
16781SOL    HW250922   0.692   1.259   3.407 -0.1361 -0.8492 -0.8803
16782SOL     OW50923   0.428   6.609   7.889  0.5184  0.4027 -0.4813
16782SOL    HW150924   0.385   6.524   7.897 -1.1627  1.2544 -0.0663
16782SOL    HW250925   0.439   6.639   7.979  2.7520 -0.1277 -0.5309
16783SOL     OW50926   9.485   9.929   8.885  0.1718 -0.2238  0.7598
16783SOL    HW150927   9.552   9.944   8.952  0.4255  1.1368  0.2320
16783SOL    HW250928   9.402   9.931   8.933  0.4408 -1.0231  1.2793
16784SOL     OW50929   5.743   2.089   7.678 -0.3880 -0.3588 -0.1286
16784SOL    HW150930   5.666   2.134   7.644 -0.5024  0.3397  1.0338
16784SOL    HW250931   5.813   2.113   7.617 -1.1706 -1.4511 -1.5173
16785SOL     OW50932   3.862   3.171   0.687 -0.1511 -0.1595 -0.4200
16785SOL    HW150933   3.930   3.108   0.712 -0.6031 -0.2000  0.7840
16785SOL    HW250934   3.901   3.257   0.702 -0.4079 -0.1840  0.4320
16786SOL     OW50935   9.132   0.145   1.483 -0.0244 -0.3270  0.1939
16786SOL    HW150936   9.203   0.183   1.535 -1.6651  2.2380  0.7173
16786SOL    HW250937   9.083   0.091   1.544 -0.1094  0.1024  0.5025
16787SOL     OW50938   9.022   9.817   2.997 -0.1294  0.6006 -0.2025
16787SOL    HW150939   9.071   9.899   3.010  1.7810 -0.6530  0.9968
16787SOL    HW250940   9.084   9.760   2.952 -0.7979 -0.7509  0.5489
16788SOL     OW50941   5.468   4.840   9.444  0.2289  0.0493 -0.3519
16788SOL    HW150942   5.412   4.837   9.366 -0.1553 -0.3053 -0.0718
16788SOL    HW250943   5.411   4.873   9.514  0.5059  0.1498 -0.1712
16789SOL     OW50944   7.242   9.407   3.257 -0.1819  0.0294  0.4202
16789SOL    HW150945   7.307   9.473   3.233 -0.5729 -0.7573 -3.3529
16789SOL    HW250946   7.286   9.324   3.242 -0.8308 -0.5857  1.7361
16790SOL     OW50947   5.013   7.024   8.749 -0.7267  0.3270  0.4242
16790SOL    HW150948   5.007   6.938   8.706  0.1930 -0.5010  1.8574
16790SOL    HW250949   5.063   7.078   8.688 -0.0342 -0.6118  0.1379
16791SOL     OW50950   5.219   0.736   1.855  0.1168 -0.1944  0.2934
16791SOL    HW150951   5.180   0.822   1.869  0.6620  0.2741 -0.9299
16791SOL    HW250952   5.245   0.706   1.942 -0.2101  0.8228  0.7438
16792SOL     OW50953   2.319   5.049   5.383 -0.0565 -0.0307  0.1473
16792SOL    HW150954   2.254   4.983   5.360 -0.4555  0.8677 -1.4459
16792SOL    HW250955   2.321   5.107   5.308  2.2624  0.2378  0.3497
16793SOL     OW50956   2.020   9.106   6.906 -0.6814  0.1424  0.2693
16793SOL    HW150957   2.052   9.043   6.971 -0.3154  0.4868  0.4300
16793SOL    HW250958   2.094   9.120   6.848 -0.3147  1.4168  1.0065
16794SOL     OW50959   6.946   2.446   5.067  0.1303 -0.1651 -0.4377
16794SOL    HW150960   6.968   2.532   5.102  0.2855  0.6915 -2.4668
16794SOL    HW250961   6.850   2.447   5.061  0.1807  0.3575 -1.5006
16795SOL     OW50962   4.885   0.379   7.936  0.4432 -0.9837 -0.1175
16795SOL    HW150963   4.886   0.314   8.006 -0.6716 -0.4550  0.4058
16795SOL    HW250964   4.915   0.460   7.979  0.7016 -0.8778 -0.4916
16796SOL     OW50965   6.787   7.245   2.578 -0.3424 -0.4053 -0.5143
16796SOL    HW150966   6.722   7.315   2.569 -0.1981 -0.1247  0.5136
16796SOL    HW250967   6.780   7.216   2.669 -0.2373 -1.5837 -0.8613
16797SOL     OW50968   8.966   5.146   9.932  0.0431 -0.4369 -0.1508
16797SOL    HW150969   8.945   5.196  10.011  0.2254  0.0839 -0.4273
16797SOL    HW250970   8.932   5.059   9.950  0.1305 -0.3413  0.5283
16798SOL     OW50971   8.711   7.065   2.876 -0.1494  0.0208 -0.0227
16798SOL    HW150972   8.742   7.056   2.966  0.3702  1.8793  0.0175
16798SOL    HW250973   8.623   7.028   2.877 -0.6271  1.1238  1.5514
16799SOL     OW50974   2.319   8.521   4.070 -0.0686 -0.9683  0.6842
16799SOL    HW150975   2.299   8.580   3.997 -1.3177 -2.5892 -0.3621
16799SOL    HW250976   2.278   8.563   4.146 -0.0328  0.0197  0.1756
16800SOL     OW50977   9.736   0.827   6.481 -0.1536 -0.5530  0.1250
16800SOL    HW150978   9.730   0.892   6.411  0.2519 -0.2264  0.3876
16800SOL    HW250979   9.664   0.850   6.540  0.4553  0.1501  0.6161
16801SOL     OW50980   5.700   6.024   1.721  0.2932  0.1244 -0.2933
16801SOL    HW150981   5.645   6.042   1.644 -1.3022 -0.0719  0.7637
16801SOL    HW250982   5.649   5.964   1.774  2.1126 -1.1376  0.1329
16802SOL     OW50983   2.567   0.904   3.612  0.3473 -0.5152  0.7037
16802SOL    HW150984   2.551   0.899   3.518  3.9174 -0.9142 -0.0131
16802SOL    HW250985   2.506   0.971   3.643  0.3524  1.0296 -2.2394
16803SOL     OW50986   2.419   0.430   7.755 -0.1909  0.0657 -0.3965
16803SOL    HW150987   2.398   0.460   7.667 -0.4904  2.2870  0.3731
16803SOL    HW250988   2.432   0.510   7.806 -1.0307 -1.1130  1.8327
16804SOL     OW50989   8.373   6.476   3.209 -0.2028  0.0077 -0.0981
16804SOL    HW150990   8.466   6.477   3.189  0.5952 -1.4578  2.8616
16804SOL    HW250991   8.343   6.564   3.190  1.5917  0.3206 -1.7649
16805SOL     OW50992   9.849   4.553   4.947  0.3378 -0.1103  0.2707
16805SOL    HW150993   9.855   4.518   5.036  0.6124 -0.0565  0.2742
16805SOL    HW250994   9.770   4.512   4.910 -0.3431  0.6208  0.8702
16806SOL     OW50995   4.887   3.270   1.165 -0.0225  0.3151 -0.0602
16806SOL    HW150996   4.840   3.341   1.121  0.4248 -0.0073 -1.0851
16806SOL    HW250997   4.968   3.259   1.114 -0.7810 -1.9718 -0.8865
16807SOL     OW50998   2.428   2.554   7.339 -0.3455 -0.3227 -0.4835
16807SOL    HW150999   2.499   2.562   7.276 -0.6232  1.1667 -0.6573
16807SOL    HW251000   2.395   2.465   7.328  1.6597 -1.1507 -0.1776
16808SOL     OW51001   9.412   4.395   7.637  0.1378  0.0441 -0.3827
16808SOL    HW151002   9.423   4.317   7.691 -0.1199 -1.4570 -2.3812
16808SOL    HW251003   9.491   4.399   7.583 -1.0156 -0.4699 -2.2121
16809SOL     OW51004   0.374   1.700   8.269  0.0954 -0.4060 -0.3172
16809SOL    HW151005   0.443   1.766   8.260 -0.2031 -0.0407  0.0655
16809SOL    HW251006   0.414   1.629   8.319 -0.0719  0.2040  0.7107
16810SOL     OW51007   0.791   3.167   6.653 -0.0667  0.4508 -0.6786
16810SOL    HW151008   0.762   3.258   6.656  0.7170  0.6901  0.2457
16810SOL    HW251009   0.812   3.146   6.744  0.9849 -0.2325 -1.0591
16811SOL     OW51010   9.412   8.045   5.751  0.2804 -0.4935 -0.0720
16811SOL    HW151011   9.396   7.967   5.804  1.0228 -0.7890 -0.2699
16811SOL    HW251012   9.400   8.118   5.812 -0.0358 -0.7765  0.2102
16812SOL     OW51013   0.964   6.140   7.986  0.0337  0.1792 -0.2546
16812SOL    HW151014   1.039   6.163   8.041  0.8386  1.1270 -1.6927
16812SOL    HW251015   0.933   6.224   7.952 -1.4263 -0.2441 -0.0251
16813SOL     OW51016   7.690   0.899   1.920  0.1682 -0.3313 -0.8877
16813SOL    HW151017   7.749   0.893   1.995  0.0212 -0.3835 -0.7758
16813SOL    HW251018   7.745   0.877   1.844  0.7143  1.2550 -0.9867
16814SOL     OW51019   9.142   7.657   0.816  0.8449  0.5330 -0.5709
16814SOL    HW151020   9.187   7.734   0.850 -1.8415  2.5725 -1.3578
16814SOL    HW251021   9.069   7.691   0.765 -0.2986 -2.5469 -1.2493
16815SOL     OW51022   2.261   9.660   2.746  0.1974  0.4135  0.0361
16815SOL    HW151023   2.278   9.752   2.768 -0.1255  0.8734 -1.5608
16815SOL    HW251024   2.215   9.663   2.663 -0.3625 -1.1885  0.2571
16816SOL     OW51025   1.403   7.396   4.290  0.4233 -0.7040 -0.1870
16816SOL    HW151026   1.380   7.412   4.381  0.0946  0.2780 -0.4261
16816SOL    HW251027   1.337   7.334   4.259 -1.5139  1.4654 -0.6391
16817SOL     OW51028   5.407   5.558   4.499  0.1006 -0.6520  0.2076
16817SOL    HW151029   5.500   5.537   4.486  0.1800 -1.2169  1.5658
16817SOL    HW251030   5.361   5.478   4.475 -0.0251 -0.4759 -0.1516
16818SOL     OW51031   1.761   3.156   6.892  0.4042  0.5767  0.0165
16818SOL    HW151032   1.741   3.244   6.925  1.0463  0.5139  0.6166
16818SOL    HW251033   1.791   3.170   6.802 -0.1223  0.9009 -0.1076
16819SOL     OW51034   4.625   8.445   5.222  0.2520  0.2603 -0.3533
16819SOL    HW151035   4.632   8.517   5.160  0.0689  0.7138  0.1458
16819SOL    HW251036   4.533   8.445   5.249 -0.9846 -3.0571 -3.7598
16820SOL     OW51037   5.039   1.030   7.054 -0.1889 -0.3841 -0.7935
16820SOL    HW151038   5.039   1.002   6.962  0.4499 -0.9143 -0.6426
16820SOL    HW251039   5.126   1.069   7.066 -0.5553  0.3855 -0.6160
16821SOL     OW51040   1.029   9.006   4.189 -0.7630  0.3394  0.1774
16821SOL    HW151041   1.011   8.931   4.245 -0.4962  0.1980  0.0742
16821SOL    HW251042   1.053   8.967   4.105  3.5954  0.3560  1.2161
16822SOL     OW51043   9.949   0.515   7.548 -0.1083 -0.1322 -0.2634
16822SOL    HW151044   9.982   0.506   7.458 -1.4091 -1.1793 -0.6720
16822SOL    HW251045   9.946   0.610   7.562 -0.7743  0.1038 -1.7074
16823SOL     OW51046   4.031   5.391   6.901 -0.5264 -0.3308  0.9507
16823SOL    HW151047   3.976   5.314   6.916 -0.3746 -0.4648  0.8286
16823SOL    HW251048   3.986   5.440   6.833  0.0866 -1.0250  0.0303
16824SOL     OW51049   7.468   0.342   8.682 -0.2750  0.0649  0.0235
16824SOL    HW151050   7.473   0.247   8.690  0.7326  0.2054  1.3605
16824SOL    HW251051   7.433   0.357   8.594  0.6622 -1.5220 -0.6520
16825SOL     OW51052   5.273   1.247   9.919  0.1001  0.4671  0.2910
16825SOL    HW151053   5.299   1.160   9.948 -0.7889  0.1550  0.1741
16825SOL    HW251054   5.295   1.249   9.826 -0.2755  0.2104  0.1960
16826SOL     OW51055   7.552   5.828   8.385 -0.1415 -0.5545 -0.0751
16826SOL    HW151056   7.488   5.792   8.446 -0.2604 -0.6135 -0.2319
16826SOL    HW251057   7.552   5.922   8.403 -1.8096 -0.2396 -1.4591
16827SOL     OW51058   0.922   0.233   8.317 -0.3502 -0.4303  0.0615
16827SOL    HW151059   0.954   0.322   8.329  0.0718 -0.4826 -0.5884
16827SOL    HW251060   0.930   0.192   8.403  2.6350 -0.8372 -0.2927
16828SOL     OW51061   9.883   0.318   2.044 -0.0246 -0.1387  0.4883
16828SOL    HW151062   9.911   0.320   1.953 -0.4331  1.5210  0.3767
16828SOL    HW251063   9.793   0.351   2.043 -1.0074 -2.5879  1.1983
16829SOL     OW51064   0.075   1.860   8.836  0.4840  0.2504  0.8038
16829SOL    HW151065  -0.018   1.870   8.856  0.2414 -2.0198  1.1496
16829SOL    HW251066   0.116   1.941   8.868 -1.1204  0.4992  2.4128
16830SOL     OW51067   1.110   0.643   8.492  0.3283  0.6772 -0.6038
16830SOL    HW151068   1.060   0.632   8.411  0.7700  1.3739 -0.9815
16830SOL    HW251069   1.044   0.664   8.558 -0.1735 -1.0449 -0.5138
16831SOL     OW51070   6.564   3.251   2.245  0.4667 -0.0501  0.2003
16831SOL    HW151071   6.531   3.183   2.188 -2.2538  0.1830  1.3457
16831SOL    HW251072   6.643   3.213   2.285  0.7779 -1.2757 -1.4898
16832SOL     OW51073   2.768   4.994   2.004 -0.6280  0.5067  0.2178
16832SOL    HW151074   2.756   5.054   2.077 -2.7851 -0.8072  1.0525
16832SOL    HW251075   2.848   4.946   2.025 -0.6919  0.8155  1.2053
16833SOL     OW51076   8.648   1.511   6.130  0.9347  0.2038  0.0211
16833SOL    HW151077   8.678   1.439   6.186 -1.0106 -0.3863  0.3629
16833SOL    HW251078   8.569   1.543   6.173  0.0367  0.4953 -1.7936
16834SOL     OW51079   0.330   6.210   1.140 -0.7035  0.4893 -0.0714
16834SOL    HW151080   0.264   6.155   1.183 -0.9412  1.3921  0.7485
16834SOL    HW251081   0.407   6.202   1.196  0.0711 -0.9243 -1.2699
16835SOL     OW51082   7.493   3.328   0.790 -0.5523 -0.1959  0.4921
16835SOL    HW151083   7.557   3.378   0.841 -1.3150  1.7304 -0.3631
16835SOL    HW251084   7.528   3.239   0.788  1.8166  0.6769  0.5237
16836SOL     OW51085   8.926   4.029   9.282 -0.0078 -0.3636 -0.4171
16836SOL    HW151086   8.927   4.076   9.366 -2.1570  0.0043 -0.5553
16836SOL    HW251087   9.017   3.999   9.271  0.8824  1.6380  0.8540
16837SOL     OW51088   0.737   9.836   3.824 -0.3918  0.2186  0.4056
16837SOL    HW151089   0.762   9.861   3.913  1.6393 -1.2365  0.3197
16837SOL    HW251090   0.776   9.903   3.768  1.5352 -0.7808  0.4410
16838SOL     OW51091   0.970   8.333   9.250 -0.4404  0.3369 -0.1524
16838SOL    HW151092   1.052   8.351   9.296  0.6702  3.0088 -2.8768
16838SOL    HW251093   0.983   8.245   9.215  0.7418  0.2415  0.4396
16839SOL     OW51094   0.871   1.847   9.797  0.4066  0.0635  0.5800
16839SOL    HW151095   0.962   1.875   9.789  0.4569  0.0344  1.0534
16839SOL    HW251096   0.861   1.824   9.889 -0.6172  1.9686  1.0013
16840SOL     OW51097   8.820   2.815   6.609 -0.3841 -0.5199  0.0660
16840SOL    HW151098   8.852   2.866   6.683  1.5642  0.2000 -1.1850
16840SOL    HW251099   8.875   2.843   6.536 -2.9470 -0.3955 -1.9272
16841SOL     OW51100   9.711   8.865   6.375 -0.1756  0.6394  0.0159
16841SOL    HW151101   9.720   8.853   6.280  1.8964  3.1134 -0.2338
16841SOL    HW251102   9.799   8.850   6.409 -0.5688  1.2069  1.3328
16842SOL     OW51103   3.623   9.379   3.806 -0.2164 -0.0096  0.0109
16842SOL    HW151104   3.571   9.316   3.756  0.3658  0.2376 -0.9299
16842SOL    HW251105   3.559   9.442   3.840 -0.9119 -1.4768  1.5925
16843SOL     OW51106   9.869   1.445   1.919 -0.0210 -0.5293  0.5006
16843SOL    HW151107   9.856   1.353   1.942  0.2017 -0.6206  0.2775
16843SOL    HW251108   9.951   1.469   1.963  0.0205 -0.4944  0.4052
16844SOL     OW51109   0.027   3.224   4.502  0.0831  0.1072 -0.0019
16844SOL    HW151110   0.095   3.190   4.561 -0.0869  0.9352  0.6976
16844SOL    HW251111   0.062   3.308   4.471  0.0117 -0.1545 -0.8153
16845SOL     OW51112   9.051   5.806   5.652  0.7339  0.2221 -0.1590
16845SOL    HW151113   8.989   5.878   5.651  1.6427  1.0840  1.4152
16845SOL    HW251114   9.043   5.767   5.739 -0.3982 -2.2387 -1.2667
16846SOL     OW51115   0.680   7.275   5.302 -0.6855 -0.1084 -0.3233
16846SOL    HW151116   0.639   7.208   5.357  0.4651 -1.1860 -0.7436
16846SOL    HW251117   0.735   7.325   5.362  0.6624 -1.3574 -0.4556
16847SOL     OW51118   5.030   8.080   2.131 -0.0089 -0.4405  0.3627
16847SOL    HW151119   5.081   7.999   2.139  0.9399 -0.0222 -1.1411
16847SOL    HW251120   4.956   8.055   2.075  0.1975 -0.3221  0.0321
16848SOL     OW51121   9.206   1.172   4.896  0.3041  0.6720 -0.4046
16848SOL    HW151122   9.143   1.102   4.912 -1.0419  1.7755 -0.6760
16848SOL    HW251123   9.181   1.209   4.811  1.0955  1.3674 -0.3606
16849SOL     OW51124   4.603   1.581   2.662  0.4043 -0.4080  0.0123
16849SOL    HW151125   4.681   1.530   2.640 -0.4570 -1.6191 -0.3176
16849SOL    HW251126   4.556   1.526   2.725 -1.2577 -0.6904 -1.4225
16850SOL     OW51127   1.647   9.301   2.886 -0.4414 -0.3477 -0.3192
16850SOL    HW151128   1.637   9.276   2.978 -2.1258 -0.2669 -0.4542
16850SOL    HW251129   1.644   9.219   2.838 -0.0155 -0.3517 -0.3437
16851SOL     OW51130   7.824   9.030   3.496  0.3856 -0.1303  0.3064
16851SOL    HW151131   7.818   8.990   3.582  1.9580  0.6726  0.8277
16851SOL    HW251132   7.876   8.970   3.444 -1.4448 -1.1365 -0.4583
16852SOL     OW51133   3.498   0.102   2.371 -0.7185  0.2630 -0.1386
16852SOL    HW151134   3.546   0.027   2.337 -0.6501  0.1138  0.2937
16852SOL    HW251135   3.565   0.168   2.389 -0.6150 -0.1150  0.9185
16853SOL     OW51136   5.851   0.111   8.487  0.3554  0.1994 -0.2054
16853SOL    HW151137   5.868   0.038   8.546  0.8686  0.6975  0.2648
16853SOL    HW251138   5.927   0.168   8.495  1.5070 -0.7818 -2.9885
16854SOL     OW51139   7.592   8.015   5.059  0.5109 -0.1212 -0.2438
16854SOL    HW151140   7.618   8.048   4.973 -1.9831 -0.3736 -1.1869
16854SOL    HW251141   7.651   7.942   5.076  0.6666 -0.4607 -2.0375
16855SOL     OW51142   6.861   5.009   2.012  0.3820 -0.1938 -0.6483
16855SOL    HW151143   6.815   4.934   2.050 -0.6426  0.6466 -0.1827
16855SOL    HW251144   6.949   5.003   2.049 -0.2554 -0.0569  0.9779
16856SOL     OW51145   9.232   8.519   0.071  0.0210 -0.1383  0.2504
16856SOL    HW151146   9.294   8.519  -0.002  2.5485  0.4012  2.2571
16856SOL    HW251147   9.226   8.426   0.096 -2.5420 -0.6512 -1.8499
16857SOL     OW51148   2.644   1.315   5.859  0.8512 -0.6333  0.0330
16857SOL    HW151149   2.610   1.372   5.927  1.3862  0.0690 -0.2713
16857SOL    HW251150   2.651   1.371   5.782 -0.3845 -1.5751 -0.8020
16858SOL     OW51151   8.602   0.106   2.710 -0.5877 -0.1010 -0.0868
16858SOL    HW151152   8.642   0.192   2.699 -0.2822 -0.4321 -1.7691
16858SOL    HW251153   8.675   0.044   2.707 -1.0386 -0.6051 -1.8135
16859SOL     OW51154   5.541   5.134   9.246 -0.7875 -0.1055  0.5136
16859SOL    HW151155   5.594   5.120   9.324 -0.6632  1.0160  0.6578
16859SOL    HW251156   5.559   5.225   9.222 -1.7088 -0.0875 -0.1507
16860SOL     OW51157   1.534   5.934   3.694  0.4534 -0.0714 -0.1972
16860SOL    HW151158   1.541   5.994   3.619  1.0957  0.1082 -0.0043
16860SOL    HW251159   1.444   5.945   3.725 -0.3436 -1.3340 -1.9094
16861SOL     OW51160   3.220   1.625   2.681  0.1361 -0.0152  0.6022
16861SOL    HW151161   3.210   1.717   2.702  0.7936 -0.0365  1.0599
16861SOL    HW251162   3.315   1.612   2.673 -0.0087 -0.3203 -1.0115
16862SOL     OW51163   3.169   2.271   3.115  0.8977 -0.2724 -0.3167
16862SOL    HW151164   3.107   2.210   3.074 -1.1035  2.2317 -1.2372
16862SOL    HW251165   3.177   2.343   3.053  2.8991  0.6501  0.8947
16863SOL     OW51166   7.388   3.934   8.984  0.1974 -0.0322 -0.2186
16863SOL    HW151167   7.318   3.920   9.047  1.2490 -0.2241  0.9370
16863SOL    HW251168   7.453   3.867   9.005  1.1983  0.7988 -0.5918
16864SOL     OW51169   4.560   4.951   5.216 -0.0983 -0.6050  0.4709
16864SOL    HW151170   4.514   4.932   5.297 -0.7391  1.9816  0.7889
16864SOL    HW251171   4.647   4.913   5.228 -0.6345 -1.4490  1.7928
16865SOL     OW51172   8.265   0.840   1.092  0.3719  0.1444 -0.8574
16865SOL    HW151173   8.296   0.750   1.084 -0.0027 -0.2489  1.3880
16865SOL    HW251174   8.288   0.881   1.009  1.2512 -1.8035 -1.6350
16866SOL     OW51175   7.028   5.075   3.674 -0.5324 -0.1680 -0.5080
16866SOL    HW151176   7.081   5.145   3.712  1.3075 -0.8928 -1.6024
16866SOL    HW251177   7.061   5.066   3.584 -2.2083 -0.9867 -1.0789
16867SOL     OW51178   0.742   8.004   5.431 -1.1217 -0.5293  0.3016
16867SOL    HW151179   0.757   7.920   5.474 -1.0429 -0.4891  0.3537
16867SOL    HW251180   0.763   8.069   5.499 -1.0153 -0.4655  0.2073
16868SOL     OW51181   6.854   0.429   8.947 -0.4650  0.3865 -0.4984
16868SOL    HW151182   6.829   0.374   9.021 -0.0905 -1.7250 -1.8458
16868SOL    HW251183   6.796   0.401   8.876  0.8588  0.5595 -1.6880
16869SOL     OW51184   4.994   1.284   6.783  0.0700 -0.4961 -0.2068
16869SOL    HW151185   5.038   1.219   6.728  1.0204 -1.7032  1.8523
16869SOL    HW251186   5.034   1.367   6.758  1.3509 -1.1774 -0.5390
16870SOL     OW51187   5.201   2.132   9.320  0.1454  0.2496 -0.1350
16870SOL    HW151188   5.248   2.150   9.239 -0.7844  1.3354 -0.4660
16870SOL    HW251189   5.244   2.055   9.356  1.0848  0.2178 -1.2566
16871SOL     OW51190   1.854   3.699   1.005  0.0828  0.0067  0.4359
16871SOL    HW151191   1.803   3.780   1.002 -0.4223 -0.3197 -0.5169
16871SOL    HW251192   1.899   3.701   1.089 -0.8079  0.7386  0.9144
16872SOL     OW51193   6.883   5.801   3.837  0.4157  0.5256  0.2147
16872SOL    HW151194   6.793   5.790   3.870  0.9522 -2.2479  0.9704
16872SOL    HW251195   6.873   5.799   3.742 -0.3331  0.1651  0.2891
16873SOL     OW51196   0.223   5.034   2.084 -0.2447 -0.9588 -0.1969
16873SOL    HW151197   0.176   5.013   2.004 -2.1266 -1.5007  0.9848
16873SOL    HW251198   0.235   5.129   2.081  0.2456 -1.0469 -1.3741
16874SOL     OW51199   2.631   1.413   7.891 -0.5415  0.1799  0.4203
16874SOL    HW151200   2.718   1.452   7.891  0.1196 -1.0920 -1.9704
16874SOL    HW251201   2.585   1.455   7.819 -1.1499 -0.6734  0.2896
16875SOL     OW51202   3.277   4.652   1.977 -0.2622 -0.4519 -0.2695
16875SOL    HW151203   3.361   4.608   1.966 -0.3835 -0.7717  0.0830
16875SOL    HW251204   3.300   4.741   2.005  0.0006 -0.1256 -1.4484
16876SOL     OW51205   5.835   7.991   2.784  0.0464  0.3966  0.9049
16876SOL    HW151206   5.842   7.921   2.719 -0.6599  0.5897  0.6034
16876SOL    HW251207   5.833   8.072   2.732  0.9379  0.6509  1.2530
16877SOL     OW51208   7.896   8.117   4.077  0.4140  0.0282  0.6501
16877SOL    HW151209   7.930   8.188   4.133  0.8225  0.8842 -0.6430
16877SOL    HW251210   7.801   8.124   4.086  0.4366  1.0045  0.2334
16878SOL     OW51211   2.475   4.693   3.313 -0.4801 -0.3843  0.4538
16878SOL    HW151212   2.554   4.686   3.368 -0.0322  0.7225 -0.0060
16878SOL    HW251213   2.492   4.634   3.240 -0.6613 -1.1458  1.0178
16879SOL     OW51214   6.672   4.648   9.994 -0.4067  0.3609 -0.5086
16879SOL    HW151215   6.595   4.622   9.943  0.1146 -1.8662 -0.2950
16879SOL    HW251216   6.675   4.743   9.987 -1.7642  0.3203 -2.5610
16880SOL     OW51217   3.175   8.248   6.109 -0.3854 -0.2413 -0.1179
16880SOL    HW151218   3.115   8.276   6.177  1.5670  0.6271  1.3492
16880SOL    HW251219   3.186   8.326   6.053 -1.4318 -0.7370 -1.0505
16881SOL     OW51220   1.289   6.850   8.733  0.0138 -0.1621 -0.7528
16881SOL    HW151221   1.299   6.814   8.646 -0.4927 -0.9537 -0.4962
16881SOL    HW251222   1.214   6.803   8.771  0.9533 -0.6850  0.5325
16882SOL     OW51223   5.981   7.548   6.249 -0.1589 -0.2674  0.2852
16882SOL    HW151224   5.955   7.528   6.339 -0.4194  2.0554  0.7712
16882SOL    HW251225   5.928   7.488   6.196  0.1557 -1.8389  1.6357
16883SOL     OW51226   9.165   1.181   7.417  0.3519 -0.8656  0.0074
16883SOL    HW151227   9.209   1.097   7.429  2.8951  0.4727  0.7311
16883SOL    HW251228   9.234   1.240   7.387 -0.7065  1.5924  2.0685
16884SOL     OW51229   9.728   1.376   0.528  0.2230 -0.2282  0.7372
16884SOL    HW151230   9.669   1.349   0.599  0.7620 -0.6424  1.0340
16884SOL    HW251231   9.729   1.472   0.534 -2.9106  0.1000 -1.2894
16885SOL     OW51232   2.237   0.459   1.496 -0.4563  0.7868 -0.3532
16885SOL    HW151233   2.227   0.364   1.488  1.1154  0.4442  1.0357
16885SOL    HW251234   2.180   0.483   1.569 -1.6041  1.1048 -1.3210
16886SOL     OW51235  -0.013   7.621   5.851 -0.2176  0.4313 -0.6859
16886SOL    HW151236   0.082   7.617   5.860 -0.2296  0.2527 -0.6298
16886SOL    HW251237  -0.039   7.700   5.898 -0.1825  0.0230  0.0250
16887SOL     OW51238   5.012   7.677   3.000 -0.1708 -0.1486 -0.1234
16887SOL    HW151239   5.032   7.662   2.907 -0.6571  0.5553 -0.3525
16887SOL    HW251240   4.932   7.729   2.998  0.7095  1.2929  0.6535
16888SOL     OW51241   1.454   0.314   9.537  0.5050 -0.6555  0.3032
16888SOL    HW151242   1.481   0.276   9.453  0.1566 -4.4619  1.7158
16888SOL    HW251243   1.536   0.333   9.582  0.6971 -0.2334 -0.2066
16889SOL     OW51244   3.955   4.707   2.362 -0.1551  0.1265 -0.3300
16889SOL    HW151245   4.010   4.713   2.283 -0.7056 -1.5242 -0.8814
16889SOL    HW251246   3.980   4.623   2.402 -0.9640  0.2349  0.4272
16890SOL     OW51247   4.290   4.357   3.940 -0.8961  0.0629 -0.0007
16890SOL    HW151248   4.230   4.412   3.991 -1.2097 -0.3874  0.1274
16890SOL    HW251249   4.247   4.271   3.939 -0.4810 -0.1394 -0.3165
16891SOL     OW51250   2.860   2.676   6.211  0.3409 -0.5885  0.6582
16891SOL    HW151251   2.913   2.630   6.146  0.5989  0.6005 -0.0036
16891SOL    HW251252   2.923   2.725   6.264  0.0730 -0.9516  1.3234
16892SOL     OW51253   4.044   0.730   9.404 -0.6884  1.2108  0.8533
16892SOL    HW151254   3.989   0.799   9.442 -0.7866  2.3405 -1.2061
16892SOL    HW251255   4.002   0.709   9.321  1.9448  2.1420 -0.8261
16893SOL     OW51256   3.247   6.509   0.251  0.2401 -0.2413  0.4657
16893SOL    HW151257   3.157   6.516   0.283  0.8892  0.7420  2.1802
16893SOL    HW251258   3.270   6.599   0.225 -0.0291 -0.8636 -2.2845
16894SOL     OW51259   8.056   5.729   5.697  0.3007  0.5015 -0.6244
16894SOL    HW151260   8.023   5.807   5.652  0.7285  0.9283 -0.2073
16894SOL    HW251261   8.137   5.707   5.650  0.7583  0.9596 -0.0685
16895SOL     OW51262   6.498   9.725   6.001 -0.1776 -0.3814 -0.1261
16895SOL    HW151263   6.541   9.644   6.030 -0.6781 -1.6560 -2.5936
16895SOL    HW251264   6.406   9.714   6.027 -0.0654 -0.1747  0.3584
16896SOL     OW51265   6.977   4.690   1.862 -0.0973 -0.3650 -0.3556
16896SOL    HW151266   6.892   4.715   1.899  0.1521 -1.1174  0.7946
16896SOL    HW251267   6.972   4.595   1.853  1.1966 -0.6576  1.3646
16897SOL     OW51268   5.006   5.121   5.518 -0.3933 -0.5628 -0.5681
16897SOL    HW151269   4.915   5.111   5.545  0.1229  0.0089  1.5770
16897SOL    HW251270   5.015   5.215   5.500 -0.1808 -0.5787 -0.5418
16898SOL     OW51271   0.774   9.131   5.695  0.2985  0.2240 -0.0903
16898SOL    HW151272   0.858   9.147   5.738  0.8651  0.8418 -1.3656
16898SOL    HW251273   0.733   9.061   5.746  1.4033  0.1999  0.7905
16899SOL     OW51274   8.652   7.929   7.996  0.5252  0.5292  0.1898
16899SOL    HW151275   8.709   7.928   7.919  1.5311 -0.0505  0.9192
16899SOL    HW251276   8.564   7.937   7.960  0.8187 -1.4287 -1.1373
16900SOL     OW51277   8.955   3.578   8.713 -0.3030 -0.0494  0.0221
16900SOL    HW151278   9.011   3.503   8.735  0.0317  0.7848  2.3390
16900SOL    HW251279   8.866   3.545   8.721 -0.1668 -0.5170 -0.3072
16901SOL     OW51280   8.308   5.294   1.291  0.1756 -0.3002 -0.5982
16901SOL    HW151281   8.331   5.201   1.294 -0.6707 -0.5067  0.4047
16901SOL    HW251282   8.277   5.308   1.201 -1.1206 -1.3806 -0.3591
16902SOL     OW51283   1.107   9.017   2.135  0.0696 -0.0233 -0.7301
16902SOL    HW151284   1.174   9.038   2.201 -1.1057 -1.4394  1.0027
16902SOL    HW251285   1.027   9.059   2.168 -0.5078 -0.6266 -1.3471
16903SOL     OW51286   8.577   5.639   2.255  0.5996 -0.9282 -0.3128
16903SOL    HW151287   8.532   5.555   2.243  2.4050 -2.0660  0.3678
16903SOL    HW251288   8.613   5.634   2.344  1.2230  0.3310 -0.4749
16904SOL     OW51289   7.135   1.078   8.618  0.6148 -0.4299 -0.6865
16904SOL    HW151290   7.059   1.112   8.571 -0.2701 -2.6112 -0.9204
16904SOL    HW251291   7.127   0.983   8.613  3.2173 -0.7558 -0.4698
16905SOL     OW51292   3.676   1.924   0.806 -0.0635  0.3507 -0.2988
16905SOL    HW151293   3.665   1.893   0.716 -1.8483 -1.0112  0.3314
16905SOL    HW251294   3.662   1.847   0.860 -0.8917  1.5087  1.2120
16906SOL     OW51295   1.692   3.793   8.651  0.3808  0.1499 -0.4522
16906SOL    HW151296   1.751   3.798   8.726 -0.0564 -0.3512 -0.0725
16906SOL    HW251297   1.734   3.732   8.591  1.0832  1.0878 -0.9421
16907SOL     OW51298   3.275   7.666   1.283  0.0324  0.1887 -0.2958
16907SOL    HW151299   3.308   7.647   1.371 -1.2647 -0.0456  0.1633
16907SOL    HW251300   3.301   7.756   1.267 -0.5260  0.5381  0.7112
16908SOL     OW51301   4.011   1.016   3.882 -0.1784 -0.3107 -0.7299
16908SOL    HW151302   3.939   1.078   3.895  0.9756  1.0274 -0.4027
16908SOL    HW251303   4.003   0.954   3.954 -1.8007 -1.0189 -1.4811
16909SOL     OW51304   4.518   1.746   9.614  0.6961  0.3082  0.0896
16909SOL    HW151305   4.586   1.789   9.562  1.1940  0.9183  1.2190
16909SOL    HW251306   4.436   1.787   9.586  0.5553 -1.3533 -2.2519
16910SOL     OW51307   9.404   8.178   1.989  0.1647  0.3658 -0.5580
16910SOL    HW151308   9.410   8.216   1.901  1.2028  0.5335 -0.4290
16910SOL    HW251309   9.491   8.142   2.005 -0.8577 -2.4270 -0.8219
16911SOL     OW51310   9.673   3.962   0.315 -0.4110 -0.1991 -0.0951
16911SOL    HW151311   9.718   4.031   0.363 -1.1320 -0.7818  1.5065
16911SOL    HW251312   9.608   4.008   0.262 -0.5771  0.3767  0.5947
16912SOL     OW51313   2.747   0.812   2.223 -0.4607  0.4337 -0.0357
16912SOL    HW151314   2.690   0.737   2.239 -1.7265  1.3994  0.1474
16912SOL    HW251315   2.706   0.884   2.270 -0.7160  1.8592 -2.2723
16913SOL     OW51316   6.356   1.875   4.272  0.0167 -0.0407 -0.1578
16913SOL    HW151317   6.417   1.947   4.256  1.1882 -0.9732  0.0129
16913SOL    HW251318   6.390   1.802   4.221 -0.1615 -0.9849  1.0274
16914SOL     OW51319   3.610   9.657   2.006 -0.3039 -0.4524  0.4684
16914SOL    HW151320   3.638   9.734   2.055 -1.0839 -2.1745  3.9028
16914SOL    HW251321   3.528   9.630   2.048 -0.3344 -2.8661 -0.9575
16915SOL     OW51322   3.408   8.430   7.426 -0.6911 -0.4043  0.3114
16915SOL    HW151323   3.452   8.501   7.379 -0.2273 -1.5302 -1.0257
16915SOL    HW251324   3.373   8.472   7.505  1.2345  0.9098  0.5442
16916SOL     OW51325   1.881   8.978   5.151  0.5036  0.0824  0.2296
16916SOL    HW151326   1.953   9.023   5.106  0.5288  1.7578  1.8514
16916SOL    HW251327   1.803   9.027   5.127  0.2675 -0.1138  0.5934
16917SOL     OW51328   6.410   4.969   0.323 -0.7997  0.2043 -0.2190
16917SOL    HW151329   6.342   4.960   0.257 -1.1189 -2.7521  0.3534
16917SOL    HW251330   6.366   5.012   0.397 -1.4459  0.2583 -0.6301
16918SOL     OW51331   0.425   0.487   6.234  0.1046  0.4064 -0.1300
16918SOL    HW151332   0.385   0.541   6.303 -2.7634 -0.5290 -0.9206
16918SOL    HW251333   0.489   0.545   6.193 -0.6671  2.1835  1.0211
16919SOL     OW51334   7.996   6.956   0.041  0.0884  0.7054  0.0183
16919SOL    HW151335   7.912   6.929   0.078 -0.2027  0.1857 -0.9837
16919SOL    HW251336   8.052   6.972   0.117  0.1634 -2.3681  0.7445
16920SOL     OW51337   0.856   5.613   5.204 -0.3835  0.2475  0.2343
16920SOL    HW151338   0.864   5.700   5.242  0.7574 -0.1508  0.9655
16920SOL    HW251339   0.866   5.554   5.278 -1.6996 -0.5161 -0.1607
16921SOL     OW51340   9.718   4.984   3.232 -0.0687 -0.3613  0.3369
16921SOL    HW151341   9.742   4.917   3.168  0.7786  0.0797  0.1766
16921SOL    HW251342   9.800   5.004   3.278  0.2192  2.0742 -1.0531
16922SOL     OW51343   2.020   3.905   7.273 -0.0640  0.1076 -0.4056
16922SOL    HW151344   2.048   3.824   7.230 -0.4100 -0.7078  0.8470
16922SOL    HW251345   2.102   3.947   7.299  0.1544  0.6335 -1.8357
16923SOL     OW51346   0.938   3.265   0.163 -0.0133 -0.1483 -0.1569
16923SOL    HW151347   0.933   3.170   0.167  0.4651 -0.2142 -0.9799
16923SOL    HW251348   1.024   3.286   0.198  0.3401 -0.1002 -1.0371
16924SOL     OW51349   5.271   8.100   1.617 -0.2960  0.7757  0.2110
16924SOL    HW151350   5.294   8.136   1.532  0.6648  0.7680  0.4598
16924SOL    HW251351   5.192   8.048   1.601  1.3581 -1.4520 -1.2239
16925SOL     OW51352   6.249   7.110   8.754 -0.8396 -0.0275 -0.0017
16925SOL    HW151353   6.338   7.075   8.759 -0.2293  1.5244  0.8582
16925SOL    HW251354   6.259   7.196   8.713 -1.4690  1.3917  2.5452
16926SOL     OW51355   3.557   7.851   1.377  0.5149  0.0373 -0.3750
16926SOL    HW151356   3.470   7.887   1.361  0.3243 -0.5042 -0.5928
16926SOL    HW251357   3.611   7.927   1.398  0.2994  0.5460 -1.5682
16927SOL     OW51358   3.308   5.691   0.758 -0.3585 -0.4226  0.0302
16927SOL    HW151359   3.221   5.709   0.795 -0.0117  0.0644  0.6190
16927SOL    HW251360   3.327   5.601   0.787 -0.1199 -0.0735  1.0102
16928SOL     OW51361   7.959   1.542   6.162  0.2757  0.1221  0.0213
16928SOL    HW151362   7.890   1.525   6.098  0.8949  3.2736 -1.7149
16928SOL    HW251363   8.027   1.478   6.141 -0.2792 -0.0674 -1.3232
16929SOL     OW51364   9.476   8.939   5.656 -0.1502  0.9358  0.2507
16929SOL    HW151365   9.464   8.844   5.651  1.3354  0.6768  1.0625
16929SOL    HW251366   9.510   8.963   5.570 -0.8889  0.8034 -0.0870
16930SOL     OW51367   8.479   6.952   5.817 -0.2788  0.2789 -0.4347
16930SOL    HW151368   8.496   7.045   5.806 -0.6266  0.3152 -0.6785
16930SOL    HW251369   8.511   6.912   5.736 -0.7251  0.2679 -0.6105
16931SOL     OW51370   3.128   2.413   7.839 -0.4065  0.1276  0.5188
16931SOL    HW151371   3.152   2.437   7.928 -0.1608 -0.6282  0.6659
16931SOL    HW251372   3.209   2.427   7.788 -1.1906  2.9744 -0.1169
16932SOL     OW51373   2.266   2.881   5.624  0.0758 -0.2973  0.1296
16932SOL    HW151374   2.204   2.915   5.560  0.8334 -0.5447 -0.7655
16932SOL    HW251375   2.346   2.865   5.573  1.0259  0.4539  1.3239
16933SOL     OW51376   6.339   0.895   1.814 -0.6892 -0.6897 -0.4113
16933SOL    HW151377   6.331   0.958   1.886  2.3323 -0.4010 -0.1957
16933SOL    HW251378   6.276   0.925   1.749 -1.0830  1.0641  0.7081
16934SOL     OW51379   5.525   2.970   0.301 -1.0731  0.2198 -0.7616
16934SOL    HW151380   5.544   2.913   0.375 -1.3991  0.6249 -0.3637
16934SOL    HW251381   5.533   2.913   0.224 -1.3438 -0.3470 -0.3750
16935SOL     OW51382   3.894   3.508   1.806  0.1187 -0.0313 -0.2271
16935SOL    HW151383   3.851   3.546   1.730  1.6465 -2.1737 -2.3075
16935SOL    HW251384   3.979   3.553   1.811  0.6196 -0.9070 -0.7180
16936SOL     OW51385   2.917   8.520   6.681  0.0574  0.5960 -0.4489
16936SOL    HW151386   2.931   8.427   6.663 -2.0397  0.0122  0.6173
16936SOL    HW251387   2.930   8.563   6.596  0.6817 -0.6953 -1.0360
16937SOL     OW51388   9.804   0.208   7.186 -0.8308 -0.8568 -0.5276
16937SOL    HW151389   9.813   0.292   7.140  2.0332 -0.6083  0.3265
16937SOL    HW251390   9.774   0.232   7.273 -0.5637 -0.7725 -0.4588
16938SOL     OW51391   7.090   6.023   5.441 -0.1532 -0.1648 -0.1382
16938SOL    HW151392   7.165   6.082   5.442 -1.3185  1.3872 -0.0807
16938SOL    HW251393   7.066   6.016   5.348  0.5648 -1.3522 -0.2481
16939SOL     OW51394   4.173   4.166   5.173  0.3947  0.0699  0.0078
16939SOL    HW151395   4.176   4.099   5.241 -2.3017 -0.4626 -0.2965
16939SOL    HW251396   4.225   4.238   5.209  0.1373 -0.6814  2.0593
16940SOL     OW51397   3.862   9.454   9.222 -0.0526 -0.2734  0.2894
16940SOL    HW151398   3.954   9.428   9.217  0.1522  0.2611  1.0802
16940SOL    HW251399   3.839   9.445   9.315 -1.6522 -3.1621 -0.2794
16941SOL     OW51400   1.572   6.055   8.406 -0.4844  0.0051  0.0159
16941SOL    HW151401   1.612   6.098   8.331  1.2335 -0.5002  0.5901
16941SOL    HW251402   1.484   6.091   8.411  0.1915  1.8533 -0.7768
16942SOL     OW51403   6.195   0.200   2.843 -0.9636  0.3413  0.0539
16942SOL    HW151404   6.181   0.139   2.915  0.7102 -1.9959 -1.4295
16942SOL    HW251405   6.275   0.246   2.865 -0.4924 -0.3203 -0.2478
16943SOL     OW51406   1.699   8.633   4.700 -0.9723 -0.0735 -0.1766
16943SOL    HW151407   1.693   8.683   4.781 -1.3173 -0.8497  0.2926
16943SOL    HW251408   1.645   8.555   4.717 -0.0591 -0.8274 -0.7075
16944SOL     OW51409   4.003   7.742   0.148  0.1402  0.1753  0.0836
16944SOL    HW151410   4.011   7.695   0.065  0.8294  0.0579  0.2129
16944SOL    HW251411   3.960   7.825   0.124 -0.4261 -0.2034 -0.2524
16945SOL     OW51412   1.582   9.773   3.942  0.0701  0.0130  0.2317
16945SOL    HW151413   1.602   9.786   3.849 -1.6470 -1.0045 -0.3252
16945SOL    HW251414   1.487   9.774   3.946  0.1069 -0.4087  1.9319
16946SOL     OW51415   7.322   5.699   2.663 -0.2466 -0.1610 -0.1590
16946SOL    HW151416   7.239   5.655   2.678 -0.0124 -0.3861  0.4862
16946SOL    HW251417   7.301   5.769   2.601 -0.9127 -0.2244 -0.0104
16947SOL     OW51418   3.458   2.071   8.665  0.1783 -0.2090 -0.1609
16947SOL    HW151419   3.431   2.153   8.623 -0.1097 -0.8624 -1.3066
16947SOL    HW251420   3.379   2.039   8.708 -0.3088 -0.9560 -1.5552
16948SOL     OW51421   9.266   5.158   8.418 -0.0941 -0.0624  0.3434
16948SOL    HW151422   9.285   5.218   8.489  1.2099 -0.8326  0.6871
16948SOL    HW251423   9.343   5.162   8.361 -1.1157  0.5623 -1.0658
16949SOL     OW51424   7.982   7.631   4.524  0.8041  0.4129 -0.4156
16949SOL    HW151425   7.887   7.643   4.534  0.6828 -0.9287  0.3655
16949SOL    HW251426   8.013   7.712   4.483 -0.6114  1.0569 -0.2643
16950SOL     OW51427   6.121   7.355   9.302  0.0544 -0.3353  0.2827
16950SOL    HW151428   6.105   7.282   9.242 -0.1226  0.2539 -0.4070
16950SOL    HW251429   6.150   7.313   9.383 -0.6355 -1.2047  0.1049
16951SOL     OW51430   1.194   1.052   7.622  0.0634 -0.0810 -0.3763
16951SOL    HW151431   1.102   1.077   7.632 -0.1935 -1.2275  0.2766
16951SOL    HW251432   1.191   0.976   7.564  0.5824 -0.2961 -0.1207
16952SOL     OW51433   2.153   7.634   7.837  0.0224 -0.3077 -0.2145
16952SOL    HW151434   2.228   7.614   7.782  0.8991  0.2002  0.7635
16952SOL    HW251435   2.109   7.550   7.848  0.0680 -0.4898 -1.3267
16953SOL     OW51436   8.204   6.186   8.638 -0.3686  0.0779 -0.0654
16953SOL    HW151437   8.115   6.152   8.629 -0.6550  0.2919  1.5494
16953SOL    HW251438   8.261   6.109   8.627 -0.8310 -0.3057  0.1845
16954SOL     OW51439   6.356   5.754   8.581  0.1208 -0.3078 -0.2581
16954SOL    HW151440   6.260   5.759   8.586  0.0764 -1.1255 -0.0772
16954SOL    HW251441   6.386   5.834   8.624 -0.4707 -0.7656  1.0611
16955SOL     OW51442   2.620   5.260   3.799 -0.1378 -0.8406  0.2694
16955SOL    HW151443   2.602   5.230   3.710 -0.8629  0.7176 -0.1528
16955SOL    HW251444   2.619   5.356   3.793 -0.2368 -0.6966  1.9608
16956SOL     OW51445   3.206   9.280   9.735  0.2325 -0.0108 -0.1563
16956SOL    HW151446   3.156   9.308   9.659  0.4009 -1.7910 -0.9688
16956SOL    HW251447   3.141   9.268   9.804 -0.5476 -2.4301 -1.2392
16957SOL     OW51448   5.378   9.800   2.418  0.4386 -0.0875 -0.2756
16957SOL    HW151449   5.434   9.739   2.466 -0.9960 -2.1073 -1.0536
16957SOL    HW251450   5.439   9.862   2.378  1.9156 -0.6721  0.9531
16958SOL     OW51451   1.789   7.495   6.637 -0.0441 -0.1668 -0.0984
16958SOL    HW151452   1.817   7.462   6.722  0.7576  2.2721  0.6735
16958SOL    HW251453   1.694   7.503   6.644  0.0614  0.4384  0.7574
16959SOL     OW51454   6.647   1.808   3.140  0.5304 -0.2523 -0.5599
16959SOL    HW151455   6.674   1.865   3.212  0.3017 -1.1754  0.2663
16959SOL    HW251456   6.702   1.731   3.148  0.0323 -0.6564 -0.9546
16960SOL     OW51457   4.921   1.388   3.084 -0.0441  0.6721  0.2658
16960SOL    HW151458   4.863   1.348   3.148  1.7087 -1.0908  0.8602
16960SOL    HW251459   4.863   1.423   3.016 -1.7736 -0.9452  0.8435
16961SOL     OW51460   5.040   0.359   9.230 -0.0459  0.2204  0.1299
16961SOL    HW151461   5.064   0.428   9.292  0.4925 -0.0618  0.2385
16961SOL    HW251462   5.092   0.283   9.256 -0.4007 -0.1370 -0.1847
16962SOL     OW51463   7.903   4.976   5.809 -0.0305 -0.4835  0.0836
16962SOL    HW151464   7.841   5.037   5.850  0.4341 -0.2846  0.4939
16962SOL    HW251465   7.962   5.031   5.759 -0.7832 -0.7499 -1.1388
16963SOL     OW51466   3.059   2.385   9.281 -0.4052 -0.0154 -0.3498
16963SOL    HW151467   3.009   2.466   9.287 -1.5342 -0.5776 -1.6529
16963SOL    HW251468   3.008   2.322   9.332  0.7097  0.1618  1.0512
16964SOL     OW51469   8.556   3.862   4.043  0.2246  0.1712 -0.2514
16964SOL    HW151470   8.501   3.826   4.112  0.5101  1.0380  0.4565
16964SOL    HW251471   8.645   3.840   4.070  0.3038 -0.0440 -0.6821
16965SOL     OW51472   5.798   9.850   4.882 -0.2429 -0.4963 -0.0510
16965SOL    HW151473   5.739   9.782   4.850 -0.1685 -0.1056 -1.0504
16965SOL    HW251474   5.748   9.895   4.950 -0.2247 -1.6527  0.7526
16966SOL     OW51475   8.333   2.418   3.675  0.5089  0.2087 -0.0955
16966SOL    HW151476   8.306   2.327   3.662  3.2399 -0.8689  0.9321
16966SOL    HW251477   8.366   2.420   3.765  1.0911  2.0570 -0.3043
16967SOL     OW51478   0.376   5.847   9.970 -0.2530 -0.0012  0.0765
16967SOL    HW151479   0.436   5.773   9.969  1.0762  1.0221 -1.5270
16967SOL    HW251480   0.311   5.827   9.903 -1.0192 -0.5397  0.9519
16968SOL     OW51481   8.516   7.859   3.956 -0.3423  0.2097  0.0945
16968SOL    HW151482   8.608   7.844   3.979  0.1358  1.9171 -0.5649
16968SOL    HW251483   8.491   7.936   4.008 -0.8192  0.8891 -1.1077
16969SOL     OW51484   7.338   9.597   1.074 -0.5579  0.0631  0.1378
16969SOL    HW151485   7.432   9.605   1.057 -0.4847  0.3685  0.6464
16969SOL    HW251486   7.296   9.629   0.994 -0.2563 -2.3579 -1.0742
16970SOL     OW51487   2.943   1.066   8.053 -0.3511 -0.3617  0.4301
16970SOL    HW151488   2.964   0.983   8.010 -0.1907 -0.4257  0.6305
16970SOL    HW251489   2.907   1.121   7.983 -0.3125 -0.5457  0.2651
16971SOL     OW51490   1.849   2.833   5.021 -0.4904  0.1039  0.1897
16971SOL    HW151491   1.936   2.855   5.054 -0.9145  0.4928  1.1028
16971SOL    HW251492   1.860   2.822   4.927  0.5300  0.2125  0.2899
16972SOL     OW51493   6.632   5.299   3.727  0.0600 -0.1759 -0.1791
16972SOL    HW151494   6.672   5.248   3.657  0.3814  0.1775 -0.2549
16972SOL    HW251495   6.539   5.278   3.722  0.2080 -0.8781 -0.1091
16973SOL     OW51496   8.023   7.904   0.137 -0.0167  1.1669 -0.1201
16973SOL    HW151497   8.074   7.885   0.215 -2.1250  0.9628  1.3086
16973SOL    HW251498   7.983   7.989   0.153 -1.3590  0.6386 -0.4172
16974SOL     OW51499   7.167   3.029   6.451  0.1614 -0.1848  0.6905
16974SOL    HW151500   7.225   3.105   6.441  0.4273 -0.3569  0.9102
16974SOL    HW251501   7.223   2.960   6.487 -0.5532  0.1421  2.5404
16975SOL     OW51502   1.100   5.787   2.935  0.2086 -0.8596 -0.2171
16975SOL    HW151503   1.106   5.707   2.986  1.3629 -0.0958  0.9135
16975SOL    HW251504   1.184   5.831   2.950 -1.0052  1.3472  0.6018
16976SOL     OW51505   1.780   4.762   9.638  0.4349 -0.1187  0.2037
16976SOL    HW151506   1.816   4.832   9.692  1.5806 -0.3948 -0.1842
16976SOL    HW251507   1.721   4.714   9.697  2.0325 -0.7199  1.3997
16977SOL     OW51508   3.915   1.577   5.340 -0.1484 -0.4947  0.0446
16977SOL    HW151509   3.926   1.483   5.350 -1.5824 -0.7035 -0.1525
16977SOL    HW251510   3.837   1.587   5.285 -0.6444  0.8054  0.9210
16978SOL     OW51511   3.518   8.439   4.860 -0.5511  0.1141 -0.1299
16978SOL    HW151512   3.613   8.446   4.847 -0.9705  1.7386 -3.2404
16978SOL    HW251513   3.495   8.353   4.826 -0.1505 -0.6390  1.4180
16979SOL     OW51514   8.749   1.115   2.589 -0.1393 -0.0274 -0.2633
16979SOL    HW151515   8.832   1.163   2.598 -1.8591  3.2289 -0.4121
16979SOL    HW251516   8.714   1.111   2.679 -0.0246 -1.0689 -0.2536
16980SOL     OW51517   8.087   1.196   2.924 -0.1091  0.3485  0.3842
16980SOL    HW151518   8.144   1.259   2.881  0.2831  0.2318  0.7300
16980SOL    HW251519   8.019   1.177   2.859  0.4285  0.2388 -0.1592
16981SOL     OW51520   7.501   1.174   6.513 -0.3947  0.4376 -0.4427
16981SOL    HW151521   7.597   1.176   6.504 -0.0317  0.2157  2.3993
16981SOL    HW251522   7.479   1.259   6.552 -1.1345 -0.1773  0.5026
16982SOL     OW51523   7.310   4.295   5.123 -0.5926 -0.4184 -0.0574
16982SOL    HW151524   7.323   4.339   5.039 -0.6213  1.2739  0.7913
16982SOL    HW251525   7.308   4.202   5.101  0.6542 -0.0913 -1.7745
16983SOL     OW51526   3.794   4.857   4.416 -0.0262 -1.0429 -0.2764
16983SOL    HW151527   3.750   4.841   4.332 -1.3706  0.4910  0.0845
16983SOL    HW251528   3.844   4.777   4.433 -0.1722 -1.6054 -2.2547
16984SOL     OW51529   0.516   5.091   8.404  0.1968 -0.3101 -0.1474
16984SOL    HW151530   0.449   5.133   8.350 -1.3055 -0.7272  1.3078
16984SOL    HW251531   0.467   5.035   8.464  1.7181  0.7167  2.1944
16985SOL     OW51532   7.581   4.765   0.095 -0.4934 -0.1292  0.3783
16985SOL    HW151533   7.525   4.805   0.162  0.0084 -0.7470  1.1956
16985SOL    HW251534   7.670   4.785   0.123 -0.2394 -1.4139  0.5819
16986SOL     OW51535   8.476   9.652   4.042 -0.2306  0.4869 -0.5579
16986SOL    HW151536   8.392   9.673   4.001 -0.5911  0.3828  0.1178
16986SOL    HW251537   8.453   9.596   4.116  0.5089 -0.2328 -0.8570
16987SOL     OW51538   7.524   4.364   7.248 -0.3192 -0.4087  0.1812
16987SOL    HW151539   7.454   4.325   7.300 -1.4921  1.8489  0.4268
16987SOL    HW251540   7.498   4.348   7.157 -2.7516  2.6402  0.1482
16988SOL     OW51541   0.017   4.589   6.312 -0.0545 -0.2158  0.0833
16988SOL    HW151542   0.060   4.555   6.234 -1.0124 -1.9406  0.2546
16988SOL    HW251543   0.075   4.658   6.343  0.2339  0.6821 -2.2609
16989SOL     OW51544   3.460   7.901   0.589 -0.4562 -0.2458 -0.2239
16989SOL    HW151545   3.415   7.984   0.608 -2.3540 -1.2378 -0.1385
16989SOL    HW251546   3.413   7.836   0.642  1.6497 -1.2509  0.5232
16990SOL     OW51547   9.229   7.381   9.415 -0.0377  0.0843 -0.6195
16990SOL    HW151548   9.207   7.429   9.335  3.1129  1.7995 -0.6341
16990SOL    HW251549   9.315   7.415   9.440  0.6286 -2.8376  1.6413
16991SOL     OW51550   6.600   8.088   8.525 -0.4109  0.0501 -0.2434
16991SOL    HW151551   6.626   8.069   8.614 -1.5007  0.2146  0.1323
16991SOL    HW251552   6.594   8.002   8.483 -0.5886 -0.0841  0.0518
16992SOL     OW51553   8.307   7.133   5.327 -0.2017  0.2338 -0.0930
16992SOL    HW151554   8.320   7.159   5.418  1.4082 -0.6326 -0.0269
16992SOL    HW251555   8.335   7.041   5.324 -0.6086  0.1253 -1.3724
16993SOL     OW51556   6.683   8.389   5.073 -0.0045 -0.0140 -0.2087
16993SOL    HW151557   6.598   8.388   5.028 -0.2914  0.7017  0.2988
16993SOL    HW251558   6.747   8.377   5.003 -0.4790  0.4490 -0.7365
16994SOL     OW51559   9.530   2.493   0.440 -0.3310  0.3091  0.1242
16994SOL    HW151560   9.586   2.553   0.390  2.5769 -1.1563  1.3446
16994SOL    HW251561   9.581   2.474   0.519 -1.3625 -3.2309  0.0971
16995SOL     OW51562   9.926   1.501   4.796 -0.2888  0.2686 -0.1417
16995SOL    HW151563   9.858   1.471   4.736 -0.7255  2.9075 -1.1036
16995SOL    HW251564   9.977   1.564   4.745  1.8034 -0.2997  1.1084
16996SOL     OW51565   8.134   7.365   8.362  0.0693  0.8810  0.4768
16996SOL    HW151566   8.152   7.326   8.276 -0.6467 -0.0532  0.7383
16996SOL    HW251567   8.161   7.297   8.424 -0.1720  1.2351  0.9699
16997SOL     OW51568   3.103   4.603   6.731 -0.3446  0.3115 -0.3560
16997SOL    HW151569   3.106   4.620   6.637  3.0459 -1.1634 -0.6575
16997SOL    HW251570   3.119   4.509   6.739 -0.3459  0.4436  1.7106
16998SOL     OW51571   5.735  -0.010   6.229 -0.1892  0.1300 -0.1114
16998SOL    HW151572   5.695   0.077   6.239 -0.2619  0.1646 -0.6600
16998SOL    HW251573   5.702  -0.060   6.303  1.0885  1.0191  1.1112
16999SOL     OW51574   0.201   2.573   1.478  0.5184 -0.7058  0.1540
16999SOL    HW151575   0.253   2.653   1.485 -0.3464  0.0583 -1.4443
16999SOL    HW251576   0.213   2.528   1.562  1.1251  1.0467  1.0512
17000SOL     OW51577   2.000   3.743   7.849  0.4709 -0.2289 -0.4827
17000SOL    HW151578   1.944   3.688   7.795 -0.8390  1.2039 -0.6370
17000SOL    HW251579   2.051   3.795   7.787 -2.1091  2.5177 -0.5163
17001SOL     OW51580   1.325   2.637   7.849  0.2134 -0.2069 -0.3189
17001SOL    HW151581   1.303   2.730   7.855  0.1229 -0.1133 -1.7550
17001SOL    HW251582   1.354   2.614   7.937 -0.7716  0.9138  0.3345
17002SOL     OW51583   6.610   0.104   6.280  0.9244  0.0384  0.0225
17002SOL    HW151584   6.641   0.176   6.334  1.0478  0.2511 -0.3286
17002SOL    HW251585   6.659   0.112   6.198  0.2501  0.1317 -0.3801
17003SOL     OW51586   5.863   9.006   0.021  0.4997 -0.1089  0.6758
17003SOL    HW151587   5.857   8.914   0.044  0.0922 -0.2182  0.1641
17003SOL    HW251588   5.954   9.030   0.036  0.7590 -0.7676  0.1626
17004SOL     OW51589   4.560   7.883   2.855 -0.2029  0.2908  0.0042
17004SOL    HW151590   4.525   7.891   2.766  1.1982 -0.4842 -0.6552
17004SOL    HW251591   4.510   7.945   2.907 -0.8360  0.9855 -1.4054
17005SOL     OW51592   3.086   1.962   1.048  0.4087 -0.2842 -0.6598
17005SOL    HW151593   3.009   2.001   1.087 -0.6144 -0.4094 -2.4459
17005SOL    HW251594   3.119   1.901   1.114 -1.1628 -0.3909  0.0574
17006SOL     OW51595   8.102   7.103   8.468  0.0821  0.5378 -0.5660
17006SOL    HW151596   8.076   7.025   8.419 -0.0254 -0.7772  1.4779
17006SOL    HW251597   8.178   7.076   8.519  0.2684  1.8841 -0.0794
17007SOL     OW51598   2.507   4.433   8.345  0.2391 -0.3645 -0.0545
17007SOL    HW151599   2.418   4.457   8.371  0.4220 -0.6112  0.8325
17007SOL    HW251600   2.501   4.342   8.318  0.4503 -0.7675  1.2169
17008SOL     OW51601   3.314   6.308   4.813 -0.1881 -0.5793  0.1053
17008SOL    HW151602   3.225   6.339   4.831 -0.0150 -0.2188  0.3302
17008SOL    HW251603   3.312   6.215   4.836  0.0923 -0.0958  2.2229
17009SOL     OW51604   9.889   1.000   3.642 -0.2376 -0.6450  0.6448
17009SOL    HW151605   9.913   1.021   3.552  0.9129 -3.3346  0.2503
17009SOL    HW251606   9.793   1.002   3.643 -0.2755  2.1632  0.1594
17010SOL     OW51607   4.871   1.223   7.207 -0.1362 -0.9429  0.1997
17010SOL    HW151608   4.933   1.267   7.266 -0.7747  1.2764 -0.6709
17010SOL    HW251609   4.920   1.151   7.169  1.7382  0.3639  0.0159
17011SOL     OW51610   7.913   9.928   0.920 -0.3594  0.1678  0.3884
17011SOL    HW151611   7.916  10.012   0.874  2.0716 -0.9680 -1.7980
17011SOL    HW251612   7.932   9.949   1.012 -2.8342  2.2450  0.5192
17012SOL     OW51613   4.572   7.992   5.700 -0.1933  0.1338  0.2871
17012SOL    HW151614   4.511   8.062   5.678 -2.2633 -1.4098  0.8292
17012SOL    HW251615   4.565   7.930   5.628  0.3263 -0.3249  0.6223
17013SOL     OW51616   7.025   5.611   6.309 -0.0174 -0.7127 -0.7796
17013SOL    HW151617   7.082   5.554   6.258  1.2739  0.4084 -0.6643
17013SOL    HW251618   6.979   5.553   6.369  1.7765 -1.5795 -0.1788
17014SOL     OW51619   1.693   6.743   2.656 -0.1629 -0.0606 -0.0270
17014SOL    HW151620   1.716   6.818   2.602 -1.4556 -0.3288 -0.9949
17014SOL    HW251621   1.741   6.756   2.738  0.3239  1.3454 -0.5198
17015SOL     OW51622   2.458   6.596   6.570 -0.5914  0.7677  0.8734
17015SOL    HW151623   2.517   6.658   6.527 -0.7665 -0.0174 -0.5557
17015SOL    HW251624   2.372   6.615   6.532 -0.9198  0.6155  1.5207
17016SOL     OW51625   2.680   4.418   2.309  0.2921 -0.0398  0.6389
17016SOL    HW151626   2.757   4.373   2.275 -0.1914 -1.3774  1.2366
17016SOL    HW251627   2.609   4.388   2.252  0.0259  0.2771  0.8026
17017SOL     OW51628   6.280   5.000   2.295 -0.5336  0.0718  0.2891
17017SOL    HW151629   6.205   4.977   2.239 -1.0753 -0.8832  1.3500
17017SOL    HW251630   6.246   4.993   2.384  1.1251 -1.6791  0.8689
17018SOL     OW51631   5.228   4.924   7.029  0.1528  0.0886  0.0090
17018SOL    HW151632   5.268   4.870   6.961  0.1403  1.0484 -0.7807
17018SOL    HW251633   5.202   5.004   6.984  0.5817  0.9565  1.2454
17019SOL     OW51634   5.720   8.817   9.582 -1.0730  0.0790 -0.0910
17019SOL    HW151635   5.674   8.894   9.617 -2.2815 -0.6696  0.0029
17019SOL    HW251636   5.652   8.766   9.539 -0.6239 -1.8207  1.3618
17020SOL     OW51637   3.930   8.602   0.597 -0.2203 -0.4305 -0.1011
17020SOL    HW151638   4.006   8.544   0.587 -1.6760 -2.4114 -0.1394
17020SOL    HW251639   3.858   8.555   0.555 -1.1204  2.2535 -1.7763
17021SOL     OW51640   4.715   1.271   3.748  0.9631  0.1560 -0.5094
17021SOL    HW151641   4.721   1.304   3.838 -1.0917 -0.1954 -0.1958
17021SOL    HW251642   4.761   1.187   3.750 -0.8417 -0.8761  0.8129
17022SOL     OW51643   5.615   3.695   2.638 -0.0681 -0.4242 -0.1410
17022SOL    HW151644   5.647   3.630   2.701  2.8156  0.8219 -0.1671
17022SOL    HW251645   5.606   3.775   2.688 -0.6981 -0.1284 -0.7140
17023SOL     OW51646   1.996   8.433   7.559 -0.0963 -0.1786  0.2317
17023SOL    HW151647   2.034   8.521   7.560  1.4078 -0.7963  0.1847
17023SOL    HW251648   1.966   8.421   7.469 -1.6316  0.7845  0.5649
17024SOL     OW51649   1.836   3.194   9.395 -0.2005  0.2460 -0.3495
17024SOL    HW151650   1.836   3.117   9.453 -1.4462  0.4210 -0.0882
17024SOL    HW251651   1.929   3.218   9.388 -0.0523  1.9245  3.9141
17025SOL     OW51652   5.145   3.789   9.134 -0.6253 -0.3735 -0.1300
17025SOL    HW151653   5.112   3.877   9.120 -0.8210 -0.4305 -0.0322
17025SOL    HW251654   5.069   3.732   9.121 -0.7817 -0.4388  0.9519
17026SOL     OW51655   6.821   9.617   1.149  0.1374 -0.0493  0.3171
17026SOL    HW151656   6.795   9.669   1.225  0.4137 -1.9474  1.8039
17026SOL    HW251657   6.739   9.579   1.116  0.1411 -0.1150  0.3820
17027SOL     OW51658   2.323   8.185   4.731 -0.1311 -0.1394 -0.4611
17027SOL    HW151659   2.334   8.211   4.822  0.7076  0.7712 -0.8091
17027SOL    HW251660   2.411   8.185   4.695 -0.3381 -1.5046 -1.0229
17028SOL     OW51661   7.501   5.078   1.952 -0.2445 -0.7131  0.3431
17028SOL    HW151662   7.581   5.047   1.909 -2.0171 -1.2842 -2.8591
17028SOL    HW251663   7.489   5.167   1.919 -1.2668 -0.8763  0.2526
17029SOL     OW51664   5.830   3.209   3.724  0.3262  0.2125 -0.3030
17029SOL    HW151665   5.740   3.197   3.696  0.5291  0.0287 -0.8843
17029SOL    HW251666   5.838   3.303   3.741 -0.1522  0.1356  0.3844
17030SOL     OW51667   5.197   0.074   9.042  0.0342 -0.0029  0.3014
17030SOL    HW151668   5.212   0.078   8.947 -1.8489 -2.5627 -0.1773
17030SOL    HW251669   5.217  -0.016   9.066  0.6173  0.6289  2.4402
17031SOL     OW51670   0.036   9.225   8.927  0.5750  0.1568  0.3145
17031SOL    HW151671  -0.055   9.237   8.901  0.9223 -1.3301 -1.8601
17031SOL    HW251672   0.080   9.304   8.897  0.2213  0.3459  0.2827
17032SOL     OW51673   9.467   0.884   0.223  0.1121  0.1741 -0.1824
17032SOL    HW151674   9.503   0.841   0.146  1.4887  0.7087  0.1432
17032SOL    HW251675   9.484   0.824   0.295 -1.9430 -0.7298 -0.3614
17033SOL     OW51676   4.917   3.662   5.212 -0.4190  0.4829 -0.0655
17033SOL    HW151677   4.927   3.613   5.130 -1.6112 -0.0273  0.0633
17033SOL    HW251678   4.977   3.620   5.273 -0.7455 -0.2348 -0.2238
17034SOL     OW51679   4.189   4.416   5.283 -0.4130  0.0314  0.5232
17034SOL    HW151680   4.183   4.372   5.368  0.5416 -1.0108  0.0732
17034SOL    HW251681   4.103   4.402   5.243  0.2693 -2.6577 -0.1654
17035SOL     OW51682   3.814   0.405   2.614  0.5916  0.4499  0.2657
17035SOL    HW151683   3.814   0.473   2.681 -0.4653  0.6347  0.0940
17035SOL    HW251684   3.819   0.452   2.532 -1.1056  0.3928  0.1049
17036SOL     OW51685   4.322   0.610   9.070 -0.3034  0.3595 -0.2202
17036SOL    HW151686   4.339   0.639   9.159  1.2858  0.5062 -0.5311
17036SOL    HW251687   4.247   0.662   9.041 -1.4144 -0.3298  1.3042
17037SOL     OW51688   7.472   5.966   5.633 -0.0592  0.0560 -0.0737
17037SOL    HW151689   7.459   5.901   5.564  1.0990 -0.2628 -0.0016
17037SOL    HW251690   7.408   5.943   5.700 -0.4881 -0.2596 -0.5787
17038SOL     OW51691   3.688   3.043   4.285  0.3175 -0.5112  0.3504
17038SOL    HW151692   3.744   3.053   4.208  1.2037 -0.5028  0.9803
17038SOL    HW251693   3.725   3.103   4.350 -0.2603 -0.7063  0.8681
17039SOL     OW51694   5.404   4.865   7.220 -0.0015 -0.4112  0.1060
17039SOL    HW151695   5.347   4.906   7.155  0.4921  0.0689 -0.0329
17039SOL    HW251696   5.492   4.898   7.199  0.2502 -0.7354  0.6344
17040SOL     OW51697   7.730   2.518   7.527 -0.3861 -0.5918 -0.0963
17040SOL    HW151698   7.724   2.591   7.465 -0.5212  0.3780  1.0298
17040SOL    HW251699   7.720   2.559   7.613 -0.3149 -1.9282  0.5653
17041SOL     OW51700   2.902   5.806   8.750  0.1288 -0.4904  0.3509
17041SOL    HW151701   2.963   5.735   8.769  1.2756  0.4008  0.1699
17041SOL    HW251702   2.874   5.791   8.659 -0.2732 -1.1490  0.5808
17042SOL     OW51703   3.783   3.094   9.323 -0.2319  0.4125  0.0509
17042SOL    HW151704   3.793   3.181   9.361  0.7149  0.8415 -1.1373
17042SOL    HW251705   3.845   3.091   9.251  1.1607 -1.9410  1.2022
17043SOL     OW51706   2.456   8.516   1.922 -0.3590 -0.3219 -0.2514
17043SOL    HW151707   2.366   8.486   1.912 -0.0944 -0.8985 -1.0083
17043SOL    HW251708   2.502   8.480   1.846 -0.1176  2.3648 -1.4961
17044SOL     OW51709   1.109   9.796   5.223  0.1922  0.1345 -0.0856
17044SOL    HW151710   1.061   9.735   5.167  0.0326 -1.3648  1.6196
17044SOL    HW251711   1.157   9.741   5.284 -0.5645  1.6763  2.0177
17045SOL     OW51712   3.999   5.996   8.675  0.2815  0.1190 -0.1422
17045SOL    HW151713   4.004   6.084   8.712 -1.7033  0.0065  0.4711
17045SOL    HW251714   4.038   6.005   8.588 -0.1175  1.6544 -0.1844
17046SOL     OW51715   4.962   0.610   8.085  0.4782  0.8721 -0.2124
17046SOL    HW151716   4.956   0.661   8.005  0.0177  1.5968  0.2720
17046SOL    HW251717   4.893   0.646   8.142 -2.0543 -2.3129 -0.9496
17047SOL     OW51718   7.062   5.079   0.437 -0.4348 -0.4595  0.0446
17047SOL    HW151719   7.092   5.083   0.346 -0.1923 -1.3337  0.0752
17047SOL    HW251720   7.121   5.016   0.478 -0.2408  0.2809  0.9331
17048SOL     OW51721   0.027   6.635   2.496  0.5850 -0.0821 -0.0885
17048SOL    HW151722   0.020   6.712   2.439 -2.2373 -0.7099 -0.6950
17048SOL    HW251723   0.037   6.561   2.436 -0.5841 -0.5665  0.2967
17049SOL     OW51724   1.819   6.987   3.562 -0.2476  0.0553  0.3551
17049SOL    HW151725   1.860   7.038   3.492  0.3456  0.3912  0.9338
17049SOL    HW251726   1.889   6.932   3.595 -0.2936  0.5086  1.2437
17050SOL     OW51727   5.819   7.112   3.586  0.2764 -0.0026 -0.4338
17050SOL    HW151728   5.794   7.064   3.508 -1.3229  1.2388 -0.7186
17050SOL    HW251729   5.759   7.082   3.654 -0.3599  1.1443 -0.4696
17051SOL     OW51730   0.210   8.912   5.795 -0.0255  0.0684  0.4083
17051SOL    HW151731   0.287   8.892   5.849  0.3007 -3.7407 -1.1639
17051SOL    HW251732   0.151   8.839   5.809 -1.4109  0.6796 -1.7734
17052SOL     OW51733   7.998   1.641   3.616  0.3107 -0.5668  0.2962
17052SOL    HW151734   7.977   1.686   3.534  1.6688 -0.4104  0.0123
17052SOL    HW251735   8.024   1.553   3.590  0.0713 -0.7383  0.6244
17053SOL     OW51736   3.901   2.557   9.536  0.6529  0.5835 -0.1222
17053SOL    HW151737   3.834   2.544   9.604  0.0815 -1.7366 -1.0531
17053SOL    HW251738   3.858   2.611   9.470  0.1180  0.1815 -0.1106
17054SOL     OW51739   5.933   3.516   4.578  0.0378  0.4212  0.2126
17054SOL    HW151740   5.962   3.463   4.504 -2.1735  1.3070 -1.4045
17054SOL    HW251741   5.842   3.537   4.558 -0.6433  0.7370  3.2030
17055SOL     OW51742   9.890   1.713   7.040 -0.1193 -0.1011 -0.0300
17055SOL    HW151743   9.896   1.790   7.096  1.0819  0.0410 -0.3193
17055SOL    HW251744   9.949   1.732   6.967 -2.8719  0.4774 -2.2979
17056SOL     OW51745   1.360   5.303   2.929  0.0454 -0.1796 -0.5781
17056SOL    HW151746   1.299   5.296   3.002  1.1805 -0.6829  0.3351
17056SOL    HW251747   1.428   5.362   2.960  2.1916 -2.7785  0.0056
17057SOL     OW51748   5.147   4.703   0.438 -0.1452  0.2410  0.2907
17057SOL    HW151749   5.052   4.716   0.442 -0.2836  0.4256 -2.1410
17057SOL    HW251750   5.182   4.759   0.507 -1.7495  0.9737  0.5477
17058SOL     OW51751   0.209   2.973   0.792  0.3380 -0.3885 -0.5077
17058SOL    HW151752   0.185   2.887   0.758  1.0157 -0.8954  0.2534
17058SOL    HW251753   0.303   2.981   0.772 -0.1485  1.1150 -2.5158
17059SOL     OW51754   7.990   8.015   6.763 -0.3851  0.2965  0.1117
17059SOL    HW151755   7.902   8.053   6.759 -0.6563 -0.1174  1.5828
17059SOL    HW251756   8.024   8.043   6.848  0.7252  0.0568 -0.2442
17060SOL     OW51757   0.488   6.300   1.927  0.2850 -0.1338  0.2117
17060SOL    HW151758   0.582   6.284   1.916  1.1584  2.5344  2.5249
17060SOL    HW251759   0.459   6.231   1.987  0.9190 -0.5651  0.0359
17061SOL     OW51760   0.213   5.578   0.282  0.2320  0.0981 -0.2280
17061SOL    HW151761   0.292   5.553   0.234  0.2591  1.5737 -1.0182
17061SOL    HW251762   0.148   5.595   0.214 -1.5040 -3.1065  0.4234
17062SOL     OW51763   3.024   8.881   6.133 -0.0394 -0.1683  0.1749
17062SOL    HW151764   3.099   8.915   6.182  1.5892 -1.5085 -1.2522
17062SOL    HW251765   3.046   8.899   6.041 -2.1970  0.7411 -0.2309
17063SOL     OW51766   2.877   0.577   1.706 -0.6281 -0.3139 -0.1755
17063SOL    HW151767   2.950   0.517   1.722  2.0102  2.5373 -0.5089
17063SOL    HW251768   2.846   0.601   1.794  0.0102 -0.2473  0.0365
17064SOL     OW51769   7.070   3.318   1.582  0.0758 -0.4461 -0.3909
17064SOL    HW151770   7.138   3.269   1.628  0.3097 -1.3305 -1.6127
17064SOL    HW251771   6.997   3.257   1.576 -0.1641 -0.1342 -0.6537
17065SOL     OW51772   0.749   9.486   4.118  0.1214 -0.0224  0.5179
17065SOL    HW151773   0.658   9.514   4.117  0.0239 -0.3481 -0.6018
17065SOL    HW251774   0.764   9.459   4.209 -1.4003 -1.5715  0.3565
17066SOL     OW51775   6.810   3.173   3.253  0.4375  0.2000  0.3674
17066SOL    HW151776   6.783   3.261   3.225 -1.5079 -0.9108 -1.5736
17066SOL    HW251777   6.751   3.153   3.326 -0.6484 -0.2655 -0.5957
17067SOL     OW51778   6.213   7.042   4.542 -0.4856  0.2838 -0.0586
17067SOL    HW151779   6.209   7.074   4.633 -0.1943  0.1359  0.0053
17067SOL    HW251780   6.138   6.982   4.535 -0.5320  0.3240  0.0719
17068SOL     OW51781   4.430   3.048   8.404 -0.3431 -0.1681  0.1679
17068SOL    HW151782   4.513   3.059   8.356  0.6140  0.0055  1.7952
17068SOL    HW251783   4.420   2.953   8.412  0.6551 -0.1941  1.4890
17069SOL     OW51784   5.316   4.523   4.744 -0.0041 -0.0701  0.1637
17069SOL    HW151785   5.248   4.552   4.805  0.4958 -0.0043  0.6910
17069SOL    HW251786   5.393   4.575   4.766  0.9461 -1.7954  1.1692
17070SOL     OW51787   2.991   6.521   1.984  0.5474 -0.5037 -0.0962
17070SOL    HW151788   2.981   6.603   1.935  0.8260 -0.3844  0.0453
17070SOL    HW251789   3.083   6.519   2.010  0.4332 -0.6237  0.3185
17071SOL     OW51790   0.034   6.303   6.659  0.2273  0.1185  0.4674
17071SOL    HW151791   0.080   6.232   6.703 -0.1569  0.7737  1.9671
17071SOL    HW251792   0.099   6.372   6.650  0.1044  0.2563  0.6491
17072SOL     OW51793   4.514   3.295   7.031  0.5301 -0.0875  0.4824
17072SOL    HW151794   4.590   3.253   7.070  1.3197  1.5869  0.8642
17072SOL    HW251795   4.502   3.375   7.082 -0.0067  0.8654 -1.0626
17073SOL     OW51796   3.643   7.691   5.249  0.2855  0.7615 -0.0600
17073SOL    HW151797   3.700   7.619   5.275 -1.9144 -1.3141 -0.6019
17073SOL    HW251798   3.608   7.724   5.331  0.5670  0.5545  0.1476
17074SOL     OW51799   5.007   5.985   0.397  0.1145 -0.6048  0.8275
17074SOL    HW151800   4.963   6.066   0.371 -2.0522 -2.1154 -0.5291
17074SOL    HW251801   4.940   5.934   0.442  1.1195 -2.0872  0.7205
17075SOL     OW51802   9.640   5.692   8.123  0.4055 -0.2151  0.2134
17075SOL    HW151803   9.664   5.697   8.030  2.5706 -0.4086  0.6909
17075SOL    HW251804   9.659   5.780   8.157  1.0763 -0.5504  0.7409
17076SOL     OW51805   5.801   8.767   4.442 -0.1199 -0.1912 -0.2771
17076SOL    HW151806   5.731   8.725   4.491  0.3710 -1.8149 -0.9056
17076SOL    HW251807   5.759   8.842   4.399 -1.2815 -0.6949 -0.0467
17077SOL     OW51808   2.789   5.761   7.453  0.0394 -0.6974  0.2400
17077SOL    HW151809   2.815   5.770   7.361 -0.5020 -0.1671  0.1234
17077SOL    HW251810   2.868   5.734   7.499  0.0474 -2.0721 -0.5538
17078SOL     OW51811   1.309   6.269   7.219 -0.2174  0.0590  0.3249
17078SOL    HW151812   1.371   6.318   7.272 -0.5196  0.2156  0.5379
17078SOL    HW251813   1.350   6.183   7.207  0.4709  0.4695 -0.3425
17079SOL     OW51814   8.428   4.856   5.210  0.0521  0.6505  0.2299
17079SOL    HW151815   8.472   4.805   5.143 -0.6913  0.5260 -0.1754
17079SOL    HW251816   8.339   4.869   5.176  0.0046  1.5560  0.6731
17080SOL     OW51817   0.564   7.536   3.945 -0.0168 -0.1888  0.1513
17080SOL    HW151818   0.658   7.543   3.927 -0.2577  1.3279 -0.7102
17080SOL    HW251819   0.524   7.529   3.858 -0.7122 -0.5205  0.4986
17081SOL     OW51820   7.913   0.047   8.273  0.1338  0.1898 -0.1687
17081SOL    HW151821   8.000   0.043   8.313  1.0750 -0.7856 -2.1388
17081SOL    HW251822   7.860   0.095   8.336  1.8732  0.0831  1.4952
17082SOL     OW51823   5.349   0.979   3.672  0.0300  0.2396 -0.7099
17082SOL    HW151824   5.436   0.967   3.710 -0.4521 -0.2901  0.2767
17082SOL    HW251825   5.339   1.073   3.664  0.2301  0.3671  0.3430
17083SOL     OW51826   7.608   0.752   9.846 -0.5621 -0.0570  0.0883
17083SOL    HW151827   7.667   0.813   9.890 -1.0600  0.5551 -0.0777
17083SOL    HW251828   7.542   0.730   9.912 -0.3036 -0.5304  0.1910
17084SOL     OW51829   3.413   9.332   9.375  0.0955 -0.0039  0.1618
17084SOL    HW151830   3.474   9.268   9.340  3.4677  0.2210  4.7649
17084SOL    HW251831   3.368   9.288   9.447 -0.9675  1.4951  0.4869
17085SOL     OW51832   6.098   4.743   8.875  0.2237 -0.1182 -0.2738
17085SOL    HW151833   6.084   4.828   8.916 -0.4926  1.5344 -3.5474
17085SOL    HW251834   6.050   4.681   8.929  0.6118  1.5266  2.1137
17086SOL     OW51835   1.071   4.992   9.389 -0.1399  0.7221  0.5584
17086SOL    HW151836   1.135   4.982   9.319  0.1154  1.2154  0.7097
17086SOL    HW251837   1.120   4.970   9.469 -0.1109  1.2529  0.6916
17087SOL     OW51838   2.108   2.048   3.771 -0.1137  0.0345  0.0244
17087SOL    HW151839   2.132   2.116   3.833  0.4351  0.4749 -0.6616
17087SOL    HW251840   2.013   2.047   3.773 -0.1359  1.0217 -0.1796
17088SOL     OW51841   3.095   2.028   6.862 -0.3695 -0.1298  0.0807
17088SOL    HW151842   3.006   2.003   6.885  0.3226 -1.1178  1.9016
17088SOL    HW251843   3.134   2.058   6.944  1.3322 -0.8931 -0.3923
17089SOL     OW51844   7.941   6.675   6.729  0.3301  0.3019 -0.3040
17089SOL    HW151845   7.909   6.755   6.687 -0.6695 -0.4014 -0.9156
17089SOL    HW251846   7.955   6.614   6.657 -0.3451 -0.5631  0.2678
17090SOL     OW51847   6.204   5.629   6.265 -0.4385  0.0611  0.1332
17090SOL    HW151848   6.114   5.615   6.235 -1.2676  2.2355  1.3512
17090SOL    HW251849   6.195   5.647   6.359  1.0632  1.8950 -0.0189
17091SOL     OW51850   6.501   4.334   3.454  0.0999 -0.0721 -0.7049
17091SOL    HW151851   6.418   4.357   3.411  0.8106  0.7125 -1.6955
17091SOL    HW251852   6.540   4.269   3.396 -0.7986 -2.1406  0.8783
17092SOL     OW51853   5.032   5.880   5.208  0.3237 -0.4529  0.4094
17092SOL    HW151854   5.047   5.871   5.114 -1.1058 -0.0414  0.1107
17092SOL    HW251855   5.052   5.794   5.245 -0.2638 -0.9728 -0.4492
17093SOL     OW51856   3.591   9.130   8.430 -0.0142  0.4770  0.2795
17093SOL    HW151857   3.622   9.096   8.514  0.3431 -1.1390 -0.4702
17093SOL    HW251858   3.671   9.148   8.380 -0.2016 -1.2051 -0.6954
17094SOL     OW51859   9.730   6.217   6.688  0.3809 -0.4663  0.9062
17094SOL    HW151860   9.825   6.226   6.691  0.4879 -0.2497 -1.4062
17094SOL    HW251861   9.703   6.219   6.780  2.5795 -0.3958  1.6117
17095SOL     OW51862   4.209   8.033   9.415 -0.0908 -0.0050 -0.2100
17095SOL    HW151863   4.234   7.982   9.492  0.2957  0.7952  0.2112
17095SOL    HW251864   4.292   8.066   9.380 -0.3382  0.4475 -0.3790
17096SOL     OW51865   9.418   0.228   2.436 -0.3633 -0.1509  0.5310
17096SOL    HW151866   9.381   0.149   2.475  0.5612  0.2931  2.4339
17096SOL    HW251867   9.507   0.202   2.410 -0.2415  0.1276  0.6737
17097SOL     OW51868   1.368   9.277   9.884 -0.1172 -0.3722  0.0477
17097SOL    HW151869   1.421   9.319   9.816 -0.0471 -0.9766 -0.2769
17097SOL    HW251870   1.296   9.338   9.900 -0.0404 -0.1475 -0.4471
17098SOL     OW51871   1.745   1.752   9.555 -0.0828  0.1101 -0.1820
17098SOL    HW151872   1.761   1.845   9.537  1.5408  0.1618  1.2960
17098SOL    HW251873   1.671   1.730   9.499  1.4829  1.4786 -3.0556
17099SOL     OW51874   6.097   9.849   1.518 -0.1543  0.6414 -0.3904
17099SOL    HW151875   6.040   9.871   1.592 -0.5338  0.6096 -0.6716
17099SOL    HW251876   6.050   9.881   1.441  0.8348  1.8753 -0.5291
17100SOL     OW51877   7.460   9.885   3.208 -0.0070 -0.2858 -0.3066
17100SOL    HW151878   7.466   9.919   3.298  1.7220  1.5527 -1.0310
17100SOL    HW251879   7.551   9.879   3.179 -0.5705  0.5547 -2.4095
17101SOL     OW51880   3.520   5.824   3.529 -0.5395 -0.0660 -0.7382
17101SOL    HW151881   3.613   5.801   3.534 -0.7243 -0.4653  1.8364
17101SOL    HW251882   3.514   5.909   3.573 -1.4277 -0.1202 -0.7499
17102SOL     OW51883   9.677   2.949   9.420 -0.0231 -0.3383 -0.3543
17102SOL    HW151884   9.714   2.982   9.338  0.9583 -0.0517  0.1886
17102SOL    HW251885   9.666   2.855   9.406 -1.2028 -0.0808 -1.3017
17103SOL     OW51886   6.229   9.099   9.080  0.0035 -0.3196 -0.1225
17103SOL    HW151887   6.306   9.064   9.125  0.7293 -0.3190 -1.3320
17103SOL    HW251888   6.197   9.026   9.027  0.5188  0.3214 -1.3504
17104SOL     OW51889   2.642   2.789   4.162  0.0453  0.0460 -0.3487
17104SOL    HW151890   2.706   2.776   4.092  0.6213 -0.7551  0.3106
17104SOL    HW251891   2.582   2.855   4.128  2.0161  1.8920 -0.4424
17105SOL     OW51892   6.167   5.512   9.943 -0.0850 -0.0480 -0.0579
17105SOL    HW151893   6.168   5.546  10.032  2.3062 -0.4287  0.1207
17105SOL    HW251894   6.256   5.529   9.910  0.3059 -3.3703 -1.0092
17106SOL     OW51895   3.680   3.086   9.650 -0.2066 -0.4784  0.1966
17106SOL    HW151896   3.597   3.040   9.665 -0.2620  0.0246  1.6266
17106SOL    HW251897   3.654   3.174   9.624 -0.1451 -0.2458  0.8912
17107SOL     OW51898   1.651   9.674   0.408 -0.5086 -0.2534 -0.3285
17107SOL    HW151899   1.745   9.687   0.423 -0.1101  0.1666 -2.7359
17107SOL    HW251900   1.609   9.741   0.461  0.4805 -0.9097  1.3553
17108SOL     OW51901   9.572   3.549   7.600 -0.7184 -0.5523 -0.2400
17108SOL    HW151902   9.558   3.538   7.506 -0.1663 -0.9638 -0.2770
17108SOL    HW251903   9.572   3.459   7.634  0.4403 -0.4972 -0.0478
17109SOL     OW51904   5.678   5.109   1.548  0.3878  0.1027 -0.9371
17109SOL    HW151905   5.700   5.032   1.497  1.4333  0.9724 -1.8484
17109SOL    HW251906   5.708   5.183   1.495 -1.5675  1.2091 -0.6038
17110SOL     OW51907   8.670   3.784   0.466  0.1627  0.1717  0.3171
17110SOL    HW151908   8.627   3.811   0.385  1.6307  1.8399  0.0234
17110SOL    HW251909   8.616   3.822   0.536 -0.5009 -0.3454  0.0921
17111SOL     OW51910   5.541   2.012   7.865  0.3681 -0.5924 -0.0644
17111SOL    HW151911   5.551   1.991   7.772 -0.2400 -2.6474  0.2941
17111SOL    HW251912   5.629   2.033   7.895  0.6538 -0.4504 -0.9690
17112SOL     OW51913   9.645   1.084   8.407 -0.4412  0.1637  0.1187
17112SOL    HW151914   9.692   1.162   8.377  1.0443 -0.7406 -0.0293
17112SOL    HW251915   9.687   1.062   8.491 -0.5445 -0.7157 -0.0513
17113SOL     OW51916   1.545   8.204   9.459 -0.6800  0.6718  0.2720
17113SOL    HW151917   1.561   8.128   9.404  1.2074  0.3505  1.1644
17113SOL    HW251918   1.452   8.222   9.450 -1.1641 -1.7106  0.0148
17114SOL     OW51919   6.191   0.877   3.669 -0.3866  0.1835  0.4253
17114SOL    HW151920   6.181   0.962   3.627 -2.1390 -0.1153  0.1548
17114SOL    HW251921   6.283   0.874   3.695 -0.0661  1.7635 -0.3812
17115SOL     OW51922   4.866   7.595   8.570  0.7023 -0.6044  0.2915
17115SOL    HW151923   4.823   7.628   8.648  1.0140 -0.2137  0.3016
17115SOL    HW251924   4.928   7.664   8.545 -0.4940 -0.0036 -1.2010
17116SOL     OW51925   6.454   3.159   6.088 -0.0154  0.1715  0.0943
17116SOL    HW151926   6.495   3.141   6.173  3.1663  1.3128 -1.0354
17116SOL    HW251927   6.426   3.250   6.094 -0.2113  0.1120  0.0790
17117SOL     OW51928   7.143   3.560   3.464  0.6626 -0.2862  0.3235
17117SOL    HW151929   7.190   3.512   3.395 -0.2125 -1.2150  0.3536
17117SOL    HW251930   7.063   3.510   3.477  0.4077  0.3850  1.4033
17118SOL     OW51931   8.194   3.754   9.523 -1.0777  0.2124  0.1780
17118SOL    HW151932   8.142   3.805   9.585 -1.9809  0.1350 -0.5073
17118SOL    HW251933   8.282   3.753   9.562 -1.3519  1.1474  0.8705
17119SOL     OW51934   9.513   9.494   5.803 -0.0906 -0.5456  0.2698
17119SOL    HW151935   9.450   9.559   5.834 -0.3665 -0.6696 -0.0418
17119SOL    HW251936   9.502   9.492   5.708  0.2493 -0.7056  0.2311
17120SOL     OW51937   1.803   3.499   9.360  0.2357  0.6548  0.0357
17120SOL    HW151938   1.899   3.502   9.357  0.2809 -0.5122 -0.3123
17120SOL    HW251939   1.784   3.423   9.414 -0.4950  0.4566 -0.4910
17121SOL     OW51940   4.324   1.411   1.637 -0.0172 -0.3631  0.2486
17121SOL    HW151941   4.418   1.427   1.647 -0.0319  0.4599 -0.7708
17121SOL    HW251942   4.287   1.497   1.616 -0.9742 -0.7103  0.4641
17122SOL     OW51943   3.712   2.631   3.596  0.1687  0.3207 -0.3230
17122SOL    HW151944   3.675   2.614   3.683 -0.5529  5.0498  0.5926
17122SOL    HW251945   3.767   2.709   3.609  2.3361 -0.4405 -3.6720
17123SOL     OW51946   4.351   7.711   3.567  0.1567  0.0504  0.1069
17123SOL    HW151947   4.324   7.736   3.656  1.3147  0.1340  0.4568
17123SOL    HW251948   4.414   7.640   3.580 -0.3400 -0.5496 -0.7035
17124SOL     OW51949   5.035   1.088   2.402  0.1970 -0.0001 -0.4507
17124SOL    HW151950   4.971   1.049   2.343  0.7762  0.9121 -1.7245
17124SOL    HW251951   5.005   1.178   2.414  0.7778  0.1836 -0.3647
17125SOL     OW51952   6.922   1.355   2.470  0.1661 -0.1033 -0.3687
17125SOL    HW151953   6.908   1.339   2.564  2.1387  0.3839  0.0548
17125SOL    HW251954   6.975   1.434   2.467  0.7795 -0.5347 -1.8590
17126SOL     OW51955   2.751   0.836   9.884 -0.3971 -0.5187  0.8830
17126SOL    HW151956   2.689   0.783   9.833 -0.8358  1.5246 -0.8388
17126SOL    HW251957   2.795   0.891   9.819  1.9930 -0.6479  2.2820
17127SOL     OW51958   3.811   5.270   3.202 -0.6892  0.2421  0.1997
17127SOL    HW151959   3.897   5.290   3.241 -0.3200  0.5476 -0.7345
17127SOL    HW251960   3.769   5.356   3.194 -1.2529  0.0498  1.0235
17128SOL     OW51961   3.130   8.854   4.139  0.2535  1.0169  0.2363
17128SOL    HW151962   3.198   8.855   4.071  0.9438 -3.0508  0.5835
17128SOL    HW251963   3.055   8.812   4.096 -0.2526  0.8582  1.2458
17129SOL     OW51964   6.043   2.051   0.308 -0.5635  0.0076  0.2825
17129SOL    HW151965   5.998   1.967   0.321  0.9082 -0.5696  2.2446
17129SOL    HW251966   6.090   2.040   0.226 -0.4174 -1.1065  0.4891
17130SOL     OW51967   4.223   7.417   8.227  0.4511 -0.1630  0.0644
17130SOL    HW151968   4.233   7.341   8.284 -0.7642 -0.3045  0.1015
17130SOL    HW251969   4.231   7.382   8.138 -2.3579 -0.7632 -0.0231
17131SOL     OW51970   2.115   3.935   5.516 -0.0528 -0.3930  0.0950
17131SOL    HW151971   2.020   3.941   5.528 -0.1150 -0.5355 -0.3412
17131SOL    HW251972   2.136   4.004   5.453  0.2259  0.0745  0.6749
17132SOL     OW51973   4.465   4.525   0.277  0.5481  0.2581  0.0450
17132SOL    HW151974   4.439   4.596   0.220 -0.0560  0.4097  0.5069
17132SOL    HW251975   4.549   4.494   0.241  1.5843  2.1560  0.6874
17133SOL     OW51976   7.212   8.701   4.183  0.5000  0.5922  0.0431
17133SOL    HW151977   7.135   8.695   4.127  0.9727 -0.2210 -0.5414
17133SOL    HW251978   7.213   8.792   4.213 -0.5250  0.6801 -0.1643
17134SOL     OW51979   4.459   1.259   3.999  0.3385  0.4666  0.2072
17134SOL    HW151980   4.486   1.291   3.913  0.2523  0.2646  0.1028
17134SOL    HW251981   4.389   1.319   4.026  1.6583  1.7009  1.0036
17135SOL     OW51982   5.326   8.912   2.475 -0.4521  0.1871  0.0089
17135SOL    HW151983   5.410   8.941   2.439  0.3349 -0.2834  1.4118
17135SOL    HW251984   5.295   8.846   2.414  0.3400  0.1505 -0.3624
17136SOL     OW51985   2.244   4.434   1.113 -0.4123 -0.1988 -0.3817
17136SOL    HW151986   2.238   4.348   1.154 -0.0684 -0.2135 -0.3600
17136SOL    HW251987   2.329   4.435   1.069  0.0728  0.5131  0.5259
17137SOL     OW51988   9.553   9.095   9.336 -0.2486 -0.4993 -0.6781
17137SOL    HW151989   9.473   9.066   9.378  0.2404 -1.1154 -0.1523
17137SOL    HW251990   9.579   9.022   9.280  0.1175 -0.4377 -0.5929
17138SOL     OW51991   3.080   7.737   5.242  0.3660 -1.1910 -0.1562
17138SOL    HW151992   3.039   7.693   5.167  0.3224 -0.5551 -0.5114
17138SOL    HW251993   3.171   7.707   5.239  0.4139 -1.0109 -0.5909
17139SOL     OW51994   4.960   8.551   8.772  0.6039  0.4623  0.0377
17139SOL    HW151995   4.978   8.531   8.681  0.7974 -0.6335  0.2934
17139SOL    HW251996   4.933   8.467   8.810  0.9331  0.8081  1.0810
17140SOL     OW51997   1.048   5.328   8.785  0.2375  0.3857  0.0073
17140SOL    HW151998   0.979   5.275   8.824  0.3606 -0.6922 -1.1744
17140SOL    HW251999   1.129   5.297   8.828  0.1008  1.0790  0.7972
17141SOL     OW52000   6.387   4.488   2.543 -0.2510 -0.7100  0.2185
17141SOL    HW152001   6.310   4.544   2.533 -0.7489 -1.3424  0.4502
17141SOL    HW252002   6.441   4.507   2.466 -1.3921 -1.4322 -0.7757
17142SOL     OW52003   0.723   7.248   8.755  0.3063 -0.1577 -0.6033
17142SOL    HW152004   0.643   7.278   8.711 -0.0645  0.7190  0.6115
17142SOL    HW252005   0.794   7.284   8.702 -0.1318  2.1724  0.2778
17143SOL     OW52006   1.267   9.378   6.604 -0.1792  0.3747  0.1035
17143SOL    HW152007   1.331   9.310   6.625 -0.4462 -0.0373 -0.3814
17143SOL    HW252008   1.189   9.354   6.654  0.0772  0.9526  0.8016
17144SOL     OW52009   7.288   0.358   6.278  0.2106  0.7525 -0.0886
17144SOL    HW152010   7.347   0.430   6.299 -0.0483  0.3702  2.2383
17144SOL    HW252011   7.344   0.289   6.244  0.7728  1.2511 -0.1756
17145SOL     OW52012   8.512   8.133   4.525 -0.3714 -0.9919  0.3049
17145SOL    HW152013   8.515   8.091   4.611 -0.1472 -0.1115  0.7350
17145SOL    HW252014   8.512   8.060   4.463 -0.3578 -1.6319  1.0456
17146SOL     OW52015   2.510   3.993   9.656 -0.3371  0.1400 -0.2810
17146SOL    HW152016   2.501   4.015   9.563 -0.5780  1.1824 -0.0250
17146SOL    HW252017   2.594   3.949   9.663  0.7016  1.9662 -0.6749
17147SOL     OW52018   8.693   1.569   0.391  0.2151 -0.0918  0.4064
17147SOL    HW152019   8.719   1.494   0.444  0.9478  0.6435  1.1160
17147SOL    HW252020   8.751   1.565   0.314 -1.0213 -1.3053 -0.5274
17148SOL     OW52021   2.480   7.046   1.983  0.1426  0.7175  0.3043
17148SOL    HW152022   2.425   7.017   2.056 -0.7942  1.1366 -0.2216
17148SOL    HW252023   2.463   6.983   1.913 -1.8279  2.3765 -0.8154
17149SOL     OW52024   3.353   8.692   0.566 -0.1958  0.4453 -0.0773
17149SOL    HW152025   3.398   8.619   0.523 -1.9667 -0.8011  0.0741
17149SOL    HW252026   3.385   8.690   0.657  1.8294  1.6510 -0.7037
17150SOL     OW52027   3.010   4.737   9.880 -0.2638 -0.4477  0.4416
17150SOL    HW152028   3.037   4.764   9.968  2.6427  0.6534 -0.6270
17150SOL    HW252029   2.968   4.815   9.843 -1.9603 -1.0787  0.9935
17151SOL     OW52030   4.766   0.308   2.982  0.7203  0.4111  0.5974
17151SOL    HW152031   4.818   0.385   2.959  0.9453  0.8308  2.3608
17151SOL    HW252032   4.777   0.248   2.909  2.4845  1.0919  0.2762
17152SOL     OW52033   8.170   8.361   0.533 -0.3644  0.4537  0.0571
17152SOL    HW152034   8.079   8.388   0.517 -0.9724 -1.0904  0.6348
17152SOL    HW252035   8.215   8.440   0.562 -1.3758  1.3773 -0.8116
17153SOL     OW52036   4.278   9.255   5.393 -0.6601  0.0292 -0.1898
17153SOL    HW152037   4.299   9.256   5.300 -1.1375 -1.8081 -0.3578
17153SOL    HW252038   4.364   9.255   5.437 -0.4299  1.8797 -0.5548
17154SOL     OW52039   6.465   3.342   5.015  0.6309  0.5978  0.4710
17154SOL    HW152040   6.455   3.415   5.077  0.6726 -0.5993  1.9495
17154SOL    HW252041   6.420   3.269   5.057  1.1736 -0.4135 -0.6555
17155SOL     OW52042   0.733   3.984   6.287 -0.0070  0.2136  0.1683
17155SOL    HW152043   0.728   3.969   6.192  1.0879 -0.8739  0.2593
17155SOL    HW252044   0.822   4.016   6.301  0.3666 -1.1383  1.0052
17156SOL     OW52045   1.780   7.103   6.848  0.0010  0.4956  0.0356
17156SOL    HW152046   1.873   7.114   6.868 -0.2566  1.0029  1.0425
17156SOL    HW252047   1.761   7.013   6.874  0.1658  0.4477 -0.0045
17157SOL     OW52048   2.982   3.039   2.540 -0.1662  0.4372  0.1792
17157SOL    HW152049   2.908   3.038   2.480  0.6850  0.5375 -0.9003
17157SOL    HW252050   2.955   2.982   2.612 -1.1386  0.1747 -0.3727
17158SOL     OW52051   7.985   0.524   4.097 -0.3670 -0.5494 -0.2905
17158SOL    HW152052   7.936   0.502   4.018 -0.6122  1.0352 -0.6128
17158SOL    HW252053   7.934   0.485   4.168 -0.0417 -2.1636 -0.8917
17159SOL     OW52054   5.401   0.131   4.517  0.2453  0.1510  0.5337
17159SOL    HW152055   5.426   0.076   4.591  1.6339 -0.5003 -0.3703
17159SOL    HW252056   5.312   0.104   4.496 -0.2991  0.5936  2.1608
17160SOL     OW52057   7.332   7.482   4.108  0.4025  0.1622  0.1485
17160SOL    HW152058   7.381   7.413   4.064  0.2131 -0.2783  0.6190
17160SOL    HW252059   7.399   7.541   4.142  0.7148 -1.0516  1.8176
17161SOL     OW52060   2.608   5.814   5.500  0.3325  0.4138  0.5350
17161SOL    HW152061   2.700   5.791   5.482  0.5588  0.3916  1.6192
17161SOL    HW252062   2.609   5.845   5.590 -0.5424  1.5511  0.1719
17162SOL     OW52063   3.048   7.181   6.946 -0.3968  0.3405  0.2364
17162SOL    HW152064   3.134   7.219   6.963  0.2477 -0.2118 -1.4956
17162SOL    HW252065   3.066   7.088   6.927 -1.4624  0.0463  0.5918
17163SOL     OW52066   1.392   5.589   9.429  0.0084 -0.3817 -0.3063
17163SOL    HW152067   1.401   5.593   9.524 -1.4792 -1.8200 -0.0711
17163SOL    HW252068   1.481   5.570   9.398  0.5586  0.3292  0.7616
17164SOL     OW52069   6.082   0.828   9.237  0.0985 -0.4926 -0.4571
17164SOL    HW152070   6.072   0.903   9.178 -1.1530 -1.3456 -1.3733
17164SOL    HW252071   5.993   0.795   9.250  0.1652  0.2922  2.8158
17165SOL     OW52072   2.153   2.811   5.276 -0.0187 -0.2731 -0.3665
17165SOL    HW152073   2.232   2.850   5.313 -0.4589  0.8763 -0.5995
17165SOL    HW252074   2.092   2.804   5.349 -1.0007  2.2887 -0.8586
17166SOL     OW52075   3.646   1.599   7.507 -0.0815  0.0234  0.4453
17166SOL    HW152076   3.605   1.679   7.473 -0.3762 -0.5494 -0.5817
17166SOL    HW252077   3.621   1.531   7.445 -2.0288 -1.4454  2.6861
17167SOL     OW52078   6.027   8.399   6.271  0.5013  0.0847  0.4547
17167SOL    HW152079   6.071   8.403   6.186 -0.8045 -0.9722 -0.3323
17167SOL    HW252080   6.097   8.397   6.335  1.5208  1.0819 -0.5854
17168SOL     OW52081   2.524   2.146   5.547  0.1149 -0.0494 -0.5252
17168SOL    HW152082   2.545   2.238   5.560 -0.1459  0.0757 -0.9750
17168SOL    HW252083   2.439   2.134   5.590  0.2786 -0.1495 -0.2225
17169SOL     OW52084   4.509   8.073   0.497 -0.8680  0.5542 -0.2520
17169SOL    HW152085   4.574   8.107   0.436 -0.2907  1.5690  0.8926
17169SOL    HW252086   4.511   8.134   0.571 -2.0096 -0.2781  0.4980
17170SOL     OW52087   5.979   3.574   0.495  0.7501 -0.0673 -0.1694
17170SOL    HW152088   5.943   3.486   0.494 -0.6067  0.4486 -1.1200
17170SOL    HW252089   5.915   3.626   0.545  1.0789  0.5196 -0.3415
17171SOL     OW52090   7.201   3.690   6.959  0.4427 -0.2070  0.6893
17171SOL    HW152091   7.216   3.770   7.009 -0.0979 -0.2640  0.9425
17171SOL    HW252092   7.288   3.664   6.929  0.4713  1.3128 -0.6784
17172SOL     OW52093   7.056   8.776   4.578  0.3779 -0.2432  0.1618
17172SOL    HW152094   7.050   8.867   4.607  0.7019  0.1789 -1.0423
17172SOL    HW252095   6.993   8.770   4.506  2.0194 -0.3207 -1.3262
17173SOL     OW52096   4.655   5.718   2.323 -0.2619 -0.3304  0.3800
17173SOL    HW152097   4.624   5.715   2.414  0.7009  0.9169  0.7793
17173SOL    HW252098   4.592   5.773   2.278  0.8702  1.5764  1.0197
17174SOL     OW52099   7.854   9.375   2.380  0.1874 -0.2307 -0.0978
17174SOL    HW152100   7.915   9.448   2.390 -0.3086 -0.1580  3.8184
17174SOL    HW252101   7.767   9.415   2.382 -0.1205 -0.6955 -1.7804
17175SOL     OW52102   8.470   0.593   0.313 -0.0624  0.4407  0.1413
17175SOL    HW152103   8.410   0.638   0.254 -0.5268 -1.4078 -0.8924
17175SOL    HW252104   8.485   0.655   0.385  0.4349  2.7334 -1.8065
17176SOL     OW52105   8.740   9.848   3.335 -0.3571 -0.0487  0.1125
17176SOL    HW152106   8.748   9.941   3.354  1.3201  0.0955 -1.1216
17176SOL    HW252107   8.724   9.807   3.420 -1.2679  1.3524  0.6472
17177SOL     OW52108   9.242   8.026   9.883 -0.2125 -0.1230 -0.0280
17177SOL    HW152109   9.287   8.057   9.962 -1.7977  1.0200  0.4591
17177SOL    HW252110   9.282   7.940   9.866  0.7687 -0.0171  1.4991
17178SOL     OW52111   1.947   2.696   3.403  0.4886  0.4858 -0.3666
17178SOL    HW152112   1.852   2.701   3.404  0.4484  0.3099  1.7802
17178SOL    HW252113   1.967   2.603   3.413  0.9758  0.1208 -3.6375
17179SOL     OW52114   6.713   8.962   7.521  0.2787  0.0156  1.2721
17179SOL    HW152115   6.784   8.958   7.457  0.0075  0.5259  0.9290
17179SOL    HW252116   6.755   8.943   7.605  0.2921 -2.7831  0.7281
17180SOL     OW52117   4.788   9.284   2.713 -0.1797  0.4991 -0.7472
17180SOL    HW152118   4.883   9.296   2.718 -0.2830  1.3291 -0.7105
17180SOL    HW252119   4.767   9.299   2.620 -0.3948  1.2692 -0.5788
17181SOL     OW52120   8.022   0.736   8.964 -0.3943  0.3775 -0.4474
17181SOL    HW152121   8.059   0.747   8.877 -1.0245 -1.9359 -1.0616
17181SOL    HW252122   7.946   0.794   8.965  0.5623  1.6932 -0.7911
17182SOL     OW52123   2.779   2.990   7.438  0.5085  0.1200  0.2345
17182SOL    HW152124   2.830   2.989   7.519 -0.7333 -1.1994  1.0347
17182SOL    HW252125   2.796   2.905   7.397 -0.9948 -0.3418  0.5121
17183SOL     OW52126   2.136   2.541   6.155  0.4706 -0.2281  0.4471
17183SOL    HW152127   2.104   2.508   6.071  2.8012 -2.9381  0.4551
17183SOL    HW252128   2.177   2.624   6.134 -1.2013  0.3841 -0.5800
17184SOL     OW52129   5.944   5.748   9.909  0.0138 -0.1187 -0.1774
17184SOL    HW152130   5.988   5.827   9.941  0.5234 -0.7353  0.6765
17184SOL    HW252131   6.015   5.687   9.891 -0.1796  0.3634 -3.1102
17185SOL     OW52132   5.373   5.651   7.734  0.2313  0.4781  0.7516
17185SOL    HW152133   5.442   5.711   7.762  1.6315  0.8537 -3.0028
17185SOL    HW252134   5.308   5.707   7.691 -0.0187 -0.3490  0.0286
17186SOL     OW52135   2.176   3.904   8.898  0.1664  0.2269 -0.3527
17186SOL    HW152136   2.228   3.842   8.949 -0.4807 -0.4991 -0.5527
17186SOL    HW252137   2.239   3.970   8.869  0.5682  0.6555  1.3431
17187SOL     OW52138   4.909   7.466   4.913 -0.3323 -0.2825  0.0913
17187SOL    HW152139   4.989   7.418   4.934 -0.9669 -0.4484  2.4107
17187SOL    HW252140   4.936   7.533   4.850  1.4565 -0.8632  0.2085
17188SOL     OW52141   3.821   1.515   8.638  0.4367 -0.1927 -0.0094
17188SOL    HW152142   3.737   1.473   8.619  0.4122 -0.3702  0.4747
17188SOL    HW252143   3.847   1.555   8.555 -0.8429  1.1388  0.1828
17189SOL     OW52144   9.742   7.619   1.370  0.0432 -0.1012  0.6940
17189SOL    HW152145   9.688   7.647   1.296  1.0385 -1.5757 -0.6735
17189SOL    HW252146   9.781   7.700   1.403 -0.4554  0.6023 -0.3738
17190SOL     OW52147   1.322   2.585   2.371 -0.5295  0.5282  0.1622
17190SOL    HW152148   1.286   2.598   2.458  0.0790  1.6328  0.2635
17190SOL    HW252149   1.417   2.583   2.383 -0.4556 -0.0868 -0.3902
17191SOL     OW52150   7.566   6.306   3.768  0.4852  0.1282 -0.2106
17191SOL    HW152151   7.634   6.247   3.801 -1.1684 -1.0015  1.3663
17191SOL    HW252152   7.503   6.249   3.724 -0.5805  0.8322  0.3470
17192SOL     OW52153   5.670   0.983   2.291 -0.4331 -0.0960  0.0798
17192SOL    HW152154   5.702   0.976   2.201 -1.0796 -1.7931 -0.0477
17192SOL    HW252155   5.730   1.046   2.332  1.0260 -0.7006 -1.0154
17193SOL     OW52156   9.668   8.616   4.924 -0.2780 -0.2725  0.2193
17193SOL    HW152157   9.654   8.671   5.001 -1.4542 -0.6109  0.2569
17193SOL    HW252158   9.606   8.544   4.933 -1.9675  0.7830 -2.0888
17194SOL     OW52159   2.255   9.123   1.300 -0.1054  0.3440  0.1468
17194SOL    HW152160   2.272   9.030   1.318  2.9094  0.8022  0.1036
17194SOL    HW252161   2.210   9.155   1.377  1.3852 -0.5563  1.4472
17195SOL     OW52162   9.979   9.314   6.695 -0.2040  0.0290  0.2153
17195SOL    HW152163   9.969   9.406   6.718  0.6802  0.4854 -1.1238
17195SOL    HW252164   9.889   9.283   6.684 -0.5113  0.7236  0.6842
17196SOL     OW52165   2.430   4.938   5.600  0.6036 -0.3126 -0.1061
17196SOL    HW152166   2.378   4.967   5.524 -0.0503 -0.9722  0.0829
17196SOL    HW252167   2.513   4.909   5.562  0.2220 -0.7882 -0.5953
17197SOL     OW52168   0.404   3.003   1.805 -0.2476  0.2462 -0.5607
17197SOL    HW152169   0.376   3.088   1.840  0.0112  0.5670 -1.1143
17197SOL    HW252170   0.335   2.979   1.743  0.1759  0.5320 -1.1441
17198SOL     OW52171   8.076   5.115   3.230  0.0888 -0.3979  0.4861
17198SOL    HW152172   8.090   5.144   3.140  0.1233 -0.0624  0.5975
17198SOL    HW252173   8.016   5.041   3.223 -0.7025  0.2533  0.2681
17199SOL     OW52174   4.617   7.792   5.495 -0.2287 -0.0865  0.1620
17199SOL    HW152175   4.643   7.776   5.404  2.4930  3.0360  0.1990
17199SOL    HW252176   4.533   7.747   5.505  0.1700 -1.9149 -3.3599
17200SOL     OW52177   1.980   5.539   1.531 -1.0100 -0.1688  0.1369
17200SOL    HW152178   1.970   5.576   1.619 -1.6563 -1.0154  0.4376
17200SOL    HW252179   1.891   5.523   1.501 -0.8539  1.4136 -1.2743
17201SOL     OW52180   2.161   9.522   3.098  0.2778 -0.2175 -0.1632
17201SOL    HW152181   2.141   9.467   3.022 -1.4448  2.2230 -1.6487
17201SOL    HW252182   2.240   9.570   3.072  1.8489 -1.9474  1.1756
17202SOL     OW52183   9.939   3.748   3.521 -0.0578  0.4419  0.2543
17202SOL    HW152184   9.999   3.779   3.454 -0.1432  1.9357  0.8324
17202SOL    HW252185   9.930   3.822   3.581 -1.7701 -0.0592  0.6647
17203SOL     OW52186   5.548   9.913   5.656 -0.3102 -0.4370 -0.2459
17203SOL    HW152187   5.541   9.828   5.701  3.1253 -0.5869  0.2670
17203SOL    HW252188   5.564   9.976   5.727 -2.4450  0.6585 -0.6635
17204SOL     OW52189   9.158   0.729   2.777  0.4360 -0.0775  0.0879
17204SOL    HW152190   9.184   0.811   2.736  1.2667 -0.9378 -1.1775
17204SOL    HW252191   9.240   0.690   2.808 -0.0740  0.1098  1.7764
17205SOL     OW52192   4.204   4.885   8.105  0.5664 -0.0974  0.3574
17205SOL    HW152193   4.167   4.907   8.020  0.8780 -0.1913  0.1940
17205SOL    HW252194   4.183   4.793   8.118  0.2744 -0.0094  0.5101
17206SOL     OW52195   1.911   9.266   1.815 -0.3517  0.1192  0.2375
17206SOL    HW152196   1.960   9.347   1.804 -1.1783  0.4213 -1.4698
17206SOL    HW252197   1.949   9.206   1.750  0.1084 -0.8271  1.3308
17207SOL     OW52198   7.346   8.659   9.712  0.5898 -0.2407  0.1842
17207SOL    HW152199   7.254   8.682   9.696 -0.7596 -4.5092  0.5315
17207SOL    HW252200   7.349   8.640   9.806  2.3597  1.5048  0.5333
17208SOL     OW52201   3.431   2.484   0.667 -0.2185  0.0539  0.2578
17208SOL    HW152202   3.424   2.391   0.686  0.0665  0.1644  0.9172
17208SOL    HW252203   3.344   2.519   0.686 -0.3871 -0.1096 -0.1968
17209SOL     OW52204   2.138   5.524   8.032 -0.1270 -0.2242 -0.5158
17209SOL    HW152205   2.174   5.611   8.016  0.9468 -0.6569 -0.5552
17209SOL    HW252206   2.053   5.540   8.074 -0.8715  0.8697 -2.3118
17210SOL     OW52207   1.131   3.576   5.866 -0.0576 -0.1552  0.0058
17210SOL    HW152208   1.138   3.572   5.770  0.1457  3.0135 -0.2289
17210SOL    HW252209   1.046   3.616   5.882 -0.0495 -0.5728  1.1601
17211SOL     OW52210   8.725   7.734   0.967  0.2356 -0.0606  0.2972
17211SOL    HW152211   8.651   7.795   0.970  1.0550  0.9297  1.3615
17211SOL    HW252212   8.783   7.770   0.901  0.9316  0.6095  1.2398
17212SOL     OW52213   8.794   7.906   4.562  0.2596 -0.2865  0.1631
17212SOL    HW152214   8.827   7.990   4.529 -0.2751 -0.1282  0.0327
17212SOL    HW252215   8.823   7.904   4.653  1.3139 -0.5006 -0.1581
17213SOL     OW52216   2.938   3.612   8.209  0.2950 -0.3870  0.0202
17213SOL    HW152217   2.894   3.661   8.140 -2.4825 -1.8687  0.5858
17213SOL    HW252218   3.012   3.570   8.165 -0.3808  0.0803 -1.6566
17214SOL     OW52219   0.599   9.934   6.939  0.0549  0.6697  0.1764
17214SOL    HW152220   0.591   9.939   6.844 -0.9404  0.8841  0.2574
17214SOL    HW252221   0.509   9.918   6.970  0.2238  1.4632  1.1298
17215SOL     OW52222   7.764   7.489   7.168  0.2091  0.0454  0.3033
17215SOL    HW152223   7.817   7.449   7.099 -0.3721  2.3038 -1.5825
17215SOL    HW252224   7.827   7.512   7.237  1.0301 -0.9995 -0.0765
17216SOL     OW52225   9.023   4.915   5.707 -0.3577  0.5034  0.1958
17216SOL    HW152226   9.045   4.852   5.638  1.7266  1.6886 -0.3004
17216SOL    HW252227   9.075   4.887   5.783 -0.2032  1.0175  0.2850
17217SOL     OW52228   8.995   5.001   2.435  0.1704 -0.1169  0.1919
17217SOL    HW152229   8.960   5.007   2.524 -0.7641 -2.9116  0.1200
17217SOL    HW252230   8.919   4.980   2.381  0.8939  0.5667 -1.1467
17218SOL     OW52231   6.025   4.488   7.285  0.2104  0.5364  0.3247
17218SOL    HW152232   6.036   4.437   7.205 -2.1144  1.7454 -0.8576
17218SOL    HW252233   6.035   4.423   7.355  2.5628 -0.5056 -0.8572
17219SOL     OW52234   6.778   5.727   4.494  0.1621 -0.5367 -0.1643
17219SOL    HW152235   6.828   5.656   4.455  1.9514 -0.2785  1.4586
17219SOL    HW252236   6.779   5.796   4.428  2.5011 -0.3518 -0.0439
17220SOL     OW52237   5.376   6.570   5.380  0.1458  0.4470  0.0821
17220SOL    HW152238   5.302   6.559   5.320 -0.3306  1.8388  0.3878
17220SOL    HW252239   5.375   6.662   5.403  2.4279  0.6589 -0.4416
17221SOL     OW52240   7.177   4.918   5.416  0.3373 -0.4202  0.0527
17221SOL    HW152241   7.223   4.910   5.332  0.0941 -1.2525 -0.0152
17221SOL    HW252242   7.193   4.834   5.460 -1.6620 -1.0126 -0.2596
17222SOL     OW52243   2.731   7.589   1.488  0.2487  0.0763 -0.0729
17222SOL    HW152244   2.681   7.580   1.407  1.9586  1.8001 -1.4040
17222SOL    HW252245   2.751   7.499   1.514 -3.8143 -0.7824  0.8473
17223SOL     OW52246   9.811   8.507   1.406 -0.1174  0.3080  0.2403
17223SOL    HW152247   9.761   8.438   1.450  0.7584  1.0199  2.5031
17223SOL    HW252248   9.754   8.584   1.408 -0.2322  0.2445 -0.2902
17224SOL     OW52249   6.706   9.633   2.699  0.4712 -0.0123 -0.3628
17224SOL    HW152250   6.643   9.565   2.722  0.1118  0.3474 -0.2707
17224SOL    HW252251   6.768   9.635   2.772  0.5605 -0.3282 -0.4272
17225SOL     OW52252   5.283   1.973   8.304 -0.4221  0.8608 -0.9314
17225SOL    HW152253   5.351   2.009   8.361  0.7269 -1.4958 -0.6728
17225SOL    HW252254   5.217   1.939   8.365 -0.5138  0.7524 -1.0923
17226SOL     OW52255   0.496   8.642   6.593  0.1103 -0.0576  0.4506
17226SOL    HW152256   0.561   8.709   6.574 -0.2436  0.0944 -0.2819
17226SOL    HW252257   0.507   8.623   6.686  0.0111  1.2417  0.7535
17227SOL     OW52258   1.532   7.943   1.161 -0.8669 -0.6190 -0.1685
17227SOL    HW152259   1.478   7.937   1.239 -1.2583 -0.4817 -0.4264
17227SOL    HW252260   1.573   8.030   1.166 -0.2931 -0.9118  0.2686
17228SOL     OW52261   4.246   9.086   6.396 -0.0400  0.4786 -0.1042
17228SOL    HW152262   4.187   9.151   6.358 -1.4211 -0.7618 -0.2007
17228SOL    HW252263   4.219   9.004   6.355  0.4384 -0.4346  1.3369
17229SOL     OW52264   1.838   9.233   1.214 -0.6922 -0.4593 -0.4285
17229SOL    HW152265   1.888   9.195   1.141 -0.1850  1.2205 -0.9880
17229SOL    HW252266   1.796   9.311   1.178  1.1232  1.5511  1.4807
17230SOL     OW52267   2.196   7.325   7.162 -0.1141  0.4488 -0.6322
17230SOL    HW152268   2.174   7.233   7.178 -0.7818  1.1033  3.1404
17230SOL    HW252269   2.290   7.324   7.142  0.5132 -0.9557  1.9305
17231SOL     OW52270   9.896   7.125   8.419 -0.6078  0.0185  0.4294
17231SOL    HW152271   9.920   7.145   8.328 -0.5155  0.1247  0.4770
17231SOL    HW252272   9.809   7.164   8.429 -0.8587 -0.4784  0.2171
17232SOL     OW52273   5.325   7.701   4.270  0.5741  0.1578  0.4140
17232SOL    HW152274   5.280   7.704   4.185  0.6726 -1.3685  0.2927
17232SOL    HW252275   5.317   7.611   4.299  1.8762  0.3027  1.3199
17233SOL     OW52276   2.991   0.613   0.965 -0.0192  0.7851  0.0887
17233SOL    HW152277   3.064   0.599   1.026  2.4403  0.8125 -2.6134
17233SOL    HW252278   2.980   0.708   0.963 -1.5707  0.7219  1.9053
17234SOL     OW52279   0.837   4.866   9.971 -0.0189  0.1143  0.5446
17234SOL    HW152280   0.916   4.812   9.965 -1.0257 -1.2982 -0.9291
17234SOL    HW252281   0.846   4.930   9.900 -0.5382 -0.5876 -0.1793
17235SOL     OW52282   3.763   6.721   1.266 -0.0292 -0.1635  0.2348
17235SOL    HW152283   3.726   6.634   1.251  2.4949 -1.2526 -0.3616
17235SOL    HW252284   3.731   6.774   1.193  0.2409 -1.2720 -0.7212
17236SOL     OW52285   2.756   0.723   3.777  0.3364 -0.1757 -0.3460
17236SOL    HW152286   2.794   0.768   3.701  1.8236  2.7654  1.9542
17236SOL    HW252287   2.673   0.768   3.793  1.0416  0.7229  0.9792
17237SOL     OW52288   2.919   5.515   3.854 -0.7457 -0.0439  0.3691
17237SOL    HW152289   2.935   5.426   3.885 -0.2807 -0.2562 -0.4480
17237SOL    HW252290   2.852   5.550   3.912  0.3963 -0.2779  1.8782
17238SOL     OW52291   4.299   6.055   9.827 -0.2673  0.3854 -0.2300
17238SOL    HW152292   4.342   6.133   9.791  0.8652 -0.1596 -0.0880
17238SOL    HW252293   4.351   5.982   9.796 -0.8624 -0.2769  0.2952
17239SOL     OW52294   1.027   7.537   1.133  0.4604  0.6895 -0.1985
17239SOL    HW152295   0.978   7.605   1.087 -2.0869 -1.2564 -0.5245
17239SOL    HW252296   1.028   7.462   1.073  2.5238  0.0997  0.4619
17240SOL     OW52297   0.497   1.109   5.079 -0.1304  0.6404  0.6386
17240SOL    HW152298   0.546   1.190   5.070 -2.7355  2.3301  0.4893
17240SOL    HW252299   0.477   1.103   5.173 -0.1150  0.2520  0.6205
17241SOL     OW52300   7.653   3.188   0.315  0.3093 -0.0427 -0.4079
17241SOL    HW152301   7.675   3.257   0.378 -3.0201 -0.2954  1.2474
17241SOL    HW252302   7.639   3.110   0.368 -0.8255 -0.7354 -1.6485
17242SOL     OW52303   3.034   4.360   2.778 -0.6923  0.1320 -0.1436
17242SOL    HW152304   2.964   4.361   2.712 -0.7535  0.2222 -0.0790
17242SOL    HW252305   3.104   4.411   2.739  0.4906 -2.3144 -1.4297
17243SOL     OW52306   6.922   5.901   4.634 -0.5963 -0.3959  0.3726
17243SOL    HW152307   6.878   5.827   4.592 -0.1954 -0.1756 -0.4454
17243SOL    HW252308   6.910   5.885   4.728  0.3475 -2.0337  0.2453
17244SOL     OW52309   6.377   1.484   8.009  0.3189 -0.2041  0.5433
17244SOL    HW152310   6.469   1.490   8.037  0.5410  2.5860 -0.4721
17244SOL    HW252311   6.343   1.573   8.019 -1.4686 -0.5469 -1.6651
17245SOL     OW52312   0.260   6.554   6.214  0.0528  0.6279 -0.0633
17245SOL    HW152313   0.167   6.552   6.237 -0.1363 -0.3921 -0.8221
17245SOL    HW252314   0.305   6.575   6.296 -0.8656  1.6208  0.2015
17246SOL     OW52315   4.109   3.948   5.350  0.2048 -0.2774 -0.1089
17246SOL    HW152316   4.091   3.869   5.401 -4.3035 -0.5964 -1.8029
17246SOL    HW252317   4.035   4.006   5.368  1.9636  2.4630 -1.1034
17247SOL     OW52318   0.361   7.833   8.119  0.0016  0.6083 -0.0164
17247SOL    HW152319   0.290   7.886   8.153  0.1069  0.8050 -0.1046
17247SOL    HW252320   0.317   7.758   8.078 -0.1123  0.2005  0.8425
17248SOL     OW52321   3.393   2.388   9.801  0.7233  0.0619 -0.3933
17248SOL    HW152322   3.366   2.330   9.730 -0.0451 -0.5958  0.4206
17248SOL    HW252323   3.440   2.332   9.862 -0.0879  0.2522  0.4370
17249SOL     OW52324   7.525   0.030   0.027  0.0359 -0.7632  0.4172
17249SOL    HW152325   7.488  -0.058   0.038 -1.5749 -0.5191 -2.0831
17249SOL    HW252326   7.557   0.030  -0.064 -0.4698  1.3984  0.2019
17250SOL     OW52327   3.407   2.433   3.174  0.3349 -0.1866  0.1426
17250SOL    HW152328   3.330   2.377   3.184  0.3873 -0.8904 -2.6293
17250SOL    HW252329   3.479   2.371   3.161  0.9439  0.4975  0.2496
17251SOL     OW52330   2.073   6.859   7.649  0.4420  0.2877 -0.2783
17251SOL    HW152331   2.010   6.917   7.606 -0.6359 -0.9787 -0.4914
17251SOL    HW252332   2.024   6.777   7.662  1.1645  0.1662  2.1294
17252SOL     OW52333   7.578   8.935   4.989 -0.2085  0.3532 -0.2279
17252SOL    HW152334   7.611   8.858   4.942  1.7165  1.3158 -0.5709
17252SOL    HW252335   7.516   8.900   5.052  0.3578 -1.4441 -0.6028
17253SOL     OW52336   7.767   7.600   1.031  0.0374 -0.5091  0.1165
17253SOL    HW152337   7.720   7.619   0.949 -1.1810  0.9813  1.0913
17253SOL    HW252338   7.797   7.510   1.022 -2.7549 -1.4376 -0.7303
17254SOL     OW52339   0.975   1.610   3.810 -0.2370  0.0415 -0.0390
17254SOL    HW152340   1.063   1.574   3.823 -0.1621  0.7384  1.6565
17254SOL    HW252341   0.988   1.705   3.813 -1.2395  0.1601  2.0293
17255SOL     OW52342   4.235   1.451   6.958 -0.0238  0.3489  0.1311
17255SOL    HW152343   4.212   1.388   6.890  2.1335 -0.4419  0.0540
17255SOL    HW252344   4.330   1.460   6.951  0.0336  1.6264  1.8774
17256SOL     OW52345   8.942   3.434   1.981  0.2139  0.1827  0.9271
17256SOL    HW152346   8.935   3.444   1.886 -0.9539  2.8899  1.2232
17256SOL    HW252347   9.018   3.486   2.006 -1.1910  1.9803  1.7118
17257SOL     OW52348   7.726   2.582   7.792 -0.1005  0.6701  0.0644
17257SOL    HW152349   7.645   2.625   7.820 -0.8403 -1.4810  1.5094
17257SOL    HW252350   7.777   2.572   7.872  0.0134 -1.0683 -0.1857
17258SOL     OW52351   1.109   8.166   6.502  0.3867 -0.2706 -0.3919
17258SOL    HW152352   1.140   8.162   6.593  0.3326 -0.5531 -0.3847
17258SOL    HW252353   1.014   8.165   6.509  0.3634  0.8652 -0.4032
17259SOL     OW52354   5.589   5.342   5.543 -0.7132  0.3603  0.4493
17259SOL    HW152355   5.623   5.416   5.594 -1.1487  0.9309 -0.0795
17259SOL    HW252356   5.621   5.357   5.454 -0.8985 -0.0255  0.3155
17260SOL     OW52357   7.834   9.832   3.621  0.5095 -1.0052  0.0866
17260SOL    HW152358   7.904   9.889   3.591  0.5395 -1.5152 -0.8572
17260SOL    HW252359   7.879   9.752   3.648  0.3523 -1.0719  0.1480
17261SOL     OW52360   9.565   6.181   8.674  0.3242  0.0319 -0.3394
17261SOL    HW152361   9.658   6.201   8.657  0.2418 -1.0803 -2.5006
17261SOL    HW252362   9.564   6.147   8.763  1.5501  2.4641  0.7252
17262SOL     OW52363   9.488   1.482   5.122 -0.4807 -0.5601 -0.2868
17262SOL    HW152364   9.450   1.570   5.126  0.0642 -0.3519  0.6318
17262SOL    HW252365   9.582   1.496   5.115 -0.3805 -1.0682 -0.0282
17263SOL     OW52366   4.062   1.659   2.272 -0.4803  0.2190  0.0350
17263SOL    HW152367   3.991   1.697   2.323 -0.8919 -0.4020 -0.0755
17263SOL    HW252368   4.080   1.724   2.204 -0.3987  0.7355  0.5410
17264SOL     OW52369   1.479   6.952   3.248  0.1523  0.3180  0.5102
17264SOL    HW152370   1.398   6.904   3.260  1.2470 -1.7224  0.1913
17264SOL    HW252371   1.536   6.920   3.319  1.4273 -0.0654 -0.6459
17265SOL     OW52372   6.382   4.156   3.120 -0.0956  0.6048 -0.3751
17265SOL    HW152373   6.300   4.130   3.163  0.5151 -0.1093  0.3781
17265SOL    HW252374   6.355   4.180   3.031 -0.7623 -2.2585 -1.0329
17266SOL     OW52375   1.377   8.946   8.791 -0.1290  0.2926  0.2304
17266SOL    HW152376   1.291   8.972   8.826  1.0634  4.0352  0.8194
17266SOL    HW252377   1.366   8.951   8.696 -1.3210 -2.3874  0.1537
17267SOL     OW52378   2.389   5.642   2.706 -0.0133 -0.7419  0.2735
17267SOL    HW152379   2.367   5.638   2.613 -0.5527  0.4401  0.3350
17267SOL    HW252380   2.442   5.564   2.721 -0.2891 -1.1826 -0.9238
17268SOL     OW52381   4.708   5.712   1.354 -0.1692 -0.0827  0.4567
17268SOL    HW152382   4.800   5.730   1.336 -0.4315  0.4862 -0.3914
17268SOL    HW252383   4.679   5.661   1.279 -1.1963  2.0083 -0.6657
17269SOL     OW52384   1.326   6.007   4.170  0.5874 -0.4429 -0.8801
17269SOL    HW152385   1.278   6.070   4.116  1.1866  0.5283 -0.3276
17269SOL    HW252386   1.294   6.023   4.259  3.1974  1.5955 -0.1704
17270SOL     OW52387   4.901   2.865   7.346  0.0326  0.7374 -0.5790
17270SOL    HW152388   4.933   2.799   7.407  1.0921 -0.2564 -2.1509
17270SOL    HW252389   4.916   2.948   7.391 -2.5202 -0.0271  1.9970
17271SOL     OW52390   4.871   7.019   3.400 -0.2454  0.0839  0.2068
17271SOL    HW152391   4.857   6.926   3.380 -2.7731  0.6474 -0.9125
17271SOL    HW252392   4.811   7.066   3.343  0.3750  2.4111  1.3352
17272SOL     OW52393   8.170   3.427   6.013 -0.3008 -0.4051 -0.2597
17272SOL    HW152394   8.118   3.368   5.958  0.7950 -0.4229 -1.3451
17272SOL    HW252395   8.259   3.421   5.976  0.4002 -0.1271  1.3092
17273SOL     OW52396   0.999   5.007   7.660  0.7709  0.1984  0.0026
17273SOL    HW152397   1.045   5.085   7.690  0.1741  1.1560 -1.4872
17273SOL    HW252398   0.906   5.029   7.667  0.5565 -0.8218  0.6617
17274SOL     OW52399   7.664   7.142   3.080 -0.2175 -0.2051  0.2988
17274SOL    HW152400   7.589   7.084   3.092 -0.9174  0.8432  1.2677
17274SOL    HW252401   7.719   7.126   3.157  0.1880 -0.4396 -0.0363
17275SOL     OW52402   9.751   0.338   7.432 -0.4618 -0.0930 -0.3510
17275SOL    HW152403   9.764   0.371   7.521  0.6844  0.6954 -0.7902
17275SOL    HW252404   9.680   0.391   7.396 -1.5930 -1.0437  0.3770
17276SOL     OW52405   7.678   7.602   5.293 -0.2643  0.4126  0.1736
17276SOL    HW152406   7.651   7.587   5.384 -0.7377 -0.2578 -0.0721
17276SOL    HW252407   7.632   7.683   5.268 -0.4589  0.3763  0.4079
17277SOL     OW52408   4.109   2.115   8.855  0.0651  0.3933 -0.0040
17277SOL    HW152409   4.182   2.060   8.828 -0.1399 -1.1327  2.2626
17277SOL    HW252410   4.139   2.157   8.936 -0.8951  1.1988 -0.0422
17278SOL     OW52411   7.200   0.302   1.312 -0.4029  0.1572 -0.0749
17278SOL    HW152412   7.283   0.256   1.301 -0.2225  0.4899 -0.1266
17278SOL    HW252413   7.185   0.346   1.229 -0.8432 -0.2354 -0.2101
17279SOL     OW52414   8.428   1.624   2.724 -0.0105  0.1655  0.5198
17279SOL    HW152415   8.435   1.663   2.637  0.7028 -2.6920 -0.8342
17279SOL    HW252416   8.344   1.577   2.723  0.6430 -1.0637  0.7898
17280SOL     OW52417   6.423   0.033   5.108  0.1917 -0.5294 -0.6799
17280SOL    HW152418   6.452   0.117   5.141  0.8139 -0.6058 -1.0267
17280SOL    HW252419   6.349   0.009   5.164 -2.7285  2.1319 -3.0524
17281SOL     OW52420   5.411   7.397   2.891  0.0273  0.7110  0.8927
17281SOL    HW152421   5.446   7.309   2.875 -0.7919  0.3732  0.9143
17281SOL    HW252422   5.320   7.393   2.860  0.7095  2.3388 -1.7186
17282SOL     OW52423   9.623   1.542   9.493 -0.5425 -0.0604  0.2200
17282SOL    HW152424   9.549   1.541   9.432  0.4209 -0.2643 -0.9781
17282SOL    HW252425   9.584   1.563   9.578 -2.0492 -0.6931 -0.2835
17283SOL     OW52426   1.506   7.841   5.499 -0.3282 -0.0998  0.0196
17283SOL    HW152427   1.475   7.797   5.578 -1.8697 -0.1455 -0.5906
17283SOL    HW252428   1.546   7.922   5.532  0.7626 -0.9827  0.9748
17284SOL     OW52429   4.228   1.389   7.724  0.1296  0.7135 -0.1078
17284SOL    HW152430   4.168   1.314   7.730  3.4545 -2.3808 -1.7961
17284SOL    HW252431   4.242   1.416   7.814 -1.1216 -0.7553  0.5696
17285SOL     OW52432   1.876   1.790   5.722  0.1489  0.1030 -0.2101
17285SOL    HW152433   1.867   1.871   5.672  0.3336 -1.8570 -3.6977
17285SOL    HW252434   1.795   1.742   5.703  0.9947 -1.4357 -0.0178
17286SOL     OW52435   4.987   1.727   1.100 -0.0742  0.5858  0.0290
17286SOL    HW152436   4.988   1.640   1.140  1.8943  0.0067 -1.1018
17286SOL    HW252437   4.912   1.726   1.041 -0.7983  0.1207  0.9407
17287SOL     OW52438   4.804   9.238   4.874  0.3117  0.4983  0.0863
17287SOL    HW152439   4.709   9.228   4.880  0.3590 -0.8821 -0.9528
17287SOL    HW252440   4.828   9.192   4.793  1.9609 -0.0090  0.8165
17288SOL     OW52441   6.551   1.488   3.020 -0.2634 -0.4315 -0.3710
17288SOL    HW152442   6.634   1.526   3.049 -0.5290  0.2092 -0.4319
17288SOL    HW252443   6.547   1.403   3.063 -0.1593  0.0613  0.6283
17289SOL     OW52444   2.135   8.075   8.774  0.7378 -0.3390  0.9488
17289SOL    HW152445   2.119   8.109   8.862 -0.2121 -0.6864  0.9233
17289SOL    HW252446   2.072   8.122   8.718  0.7094 -0.7718  0.6116
17290SOL     OW52447   9.919   8.999   7.059 -0.2083 -0.1962 -0.1383
17290SOL    HW152448   9.911   8.907   7.033 -1.6721 -0.7747  2.1079
17290SOL    HW252449   9.999   9.002   7.111  0.5508  0.1218 -1.2833
17291SOL     OW52450   5.601   6.013   6.621  0.3300 -0.2659  0.1158
17291SOL    HW152451   5.541   5.968   6.562 -1.3645  3.0964 -0.9443
17291SOL    HW252452   5.549   6.083   6.660  2.7968  0.9157  1.5401
17292SOL     OW52453   7.845   3.830   3.450 -0.5555 -0.5269  0.1107
17292SOL    HW152454   7.791   3.753   3.466 -0.8034 -0.7542 -1.6159
17292SOL    HW252455   7.841   3.843   3.355 -3.9871  4.1113  0.5482
17293SOL     OW52456   0.706   6.996   8.319 -0.6775 -0.3678  0.2199
17293SOL    HW152457   0.723   6.912   8.277 -0.6285 -0.4685  0.4382
17293SOL    HW252458   0.728   6.982   8.411  1.2026  0.4388 -0.0669
17294SOL     OW52459   1.855   2.528   9.770 -0.3077  0.1855  0.0074
17294SOL    HW152460   1.860   2.604   9.827 -0.8978  1.1620 -1.1833
17294SOL    HW252461   1.762   2.504   9.770 -0.1841 -0.3000  0.0818
17295SOL     OW52462   1.847   8.864   7.173  0.2206  0.4848 -0.7133
17295SOL    HW152463   1.851   8.888   7.265  1.8813 -0.4638 -0.4883
17295SOL    HW252464   1.935   8.882   7.140  0.5487 -1.9276 -1.3535
17296SOL     OW52465   6.474   9.093   0.951  0.3121 -0.1702 -0.0619
17296SOL    HW152466   6.551   9.104   1.006  1.6222  0.1494 -1.8884
17296SOL    HW252467   6.503   9.118   0.863 -2.0997  0.7800 -0.6621
17297SOL     OW52468   4.355   8.355   5.342 -0.4127  0.4477  0.6053
17297SOL    HW152469   4.327   8.300   5.268 -0.0882 -0.3673  1.0756
17297SOL    HW252470   4.293   8.427   5.343 -1.6369 -0.5836  0.7676
17298SOL     OW52471   5.339   6.582   1.082  0.0516  0.5993  0.5556
17298SOL    HW152472   5.324   6.575   0.987  1.2727 -3.2726  0.4723
17298SOL    HW252473   5.251   6.587   1.119 -0.4355  3.0780 -0.7358
17299SOL     OW52474   2.599   1.931   5.005  0.4328 -0.4056  0.5606
17299SOL    HW152475   2.673   1.908   5.061  0.3609 -1.4698  0.2391
17299SOL    HW252476   2.527   1.945   5.066  0.9958  1.1223  0.9111
17300SOL     OW52477   5.403   4.340   5.687  0.1750 -0.0178 -0.1980
17300SOL    HW152478   5.429   4.286   5.612  0.1854 -1.2343  0.6556
17300SOL    HW252479   5.333   4.290   5.730  0.3094  0.5591  0.7306
17301SOL     OW52480   9.702   3.585   3.932  0.1531  0.1193 -0.1569
17301SOL    HW152481   9.796   3.575   3.913  0.7115  2.5877  0.7914
17301SOL    HW252482   9.663   3.611   3.849  0.7314  1.0683 -0.1527
17302SOL     OW52483   7.807   4.483   4.372  0.6414 -0.4249 -0.3118
17302SOL    HW152484   7.794   4.486   4.277  1.1348 -1.7692 -0.4351
17302SOL    HW252485   7.797   4.391   4.395  0.3771 -0.0947  0.9789
17303SOL     OW52486   1.307   6.228   3.875  0.0937  0.3068 -0.3035
17303SOL    HW152487   1.303   6.315   3.916  0.4731  0.2765 -0.1910
17303SOL    HW252488   1.378   6.184   3.922  0.1297  0.0583 -0.5916
17304SOL     OW52489   2.600   3.416   8.579 -0.4655  0.0486 -0.3757
17304SOL    HW152490   2.512   3.452   8.592  0.3405  1.7120  0.8623
17304SOL    HW252491   2.627   3.387   8.666 -0.0822 -1.2541 -0.9016
17305SOL     OW52492   3.363   5.177   6.474  0.0215 -0.1189 -0.5648
17305SOL    HW152493   3.422   5.220   6.536  0.8796 -2.0766  0.0462
17305SOL    HW252494   3.421   5.131   6.414 -0.8440 -1.5542 -0.3535
17306SOL     OW52495   7.245   9.061   0.389  0.2778  0.3036  0.4577
17306SOL    HW152496   7.304   9.030   0.320  0.6490 -0.3755  1.0555
17306SOL    HW252497   7.303   9.084   0.461 -0.1775 -0.5230  1.1108
17307SOL     OW52498   6.981   2.565   2.409  0.1491  0.5632  0.4235
17307SOL    HW152499   7.026   2.511   2.474  2.5075  0.5321 -1.1125
17307SOL    HW252500   7.014   2.534   2.325 -2.7841  0.6195 -0.8655
17308SOL     OW52501   1.609   7.840   6.669 -0.4960 -0.3282  0.6524
17308SOL    HW152502   1.669   7.908   6.637  0.9321 -1.7198  0.2292
17308SOL    HW252503   1.529   7.852   6.618 -0.0404  0.6282  0.1339
17309SOL     OW52504   6.972   8.000   7.295 -0.5529  0.1911  0.0995
17309SOL    HW152505   7.067   8.007   7.307 -0.1877 -0.6952 -1.8076
17309SOL    HW252506   6.943   8.090   7.283 -0.0589  0.5250  1.3071
17310SOL     OW52507   7.163   4.314   9.790 -0.3946 -0.0657  0.3695
17310SOL    HW152508   7.138   4.281   9.703  0.2401 -0.8094  0.4538
17310SOL    HW252509   7.136   4.244   9.850  0.5133 -0.2204  0.6060
17311SOL     OW52510   3.232   1.055   6.835  0.2370 -0.4877  0.0826
17311SOL    HW152511   3.291   0.983   6.855  1.3739  0.1090 -0.9286
17311SOL    HW252512   3.286   1.134   6.848 -0.9517  0.1970  1.1040
17312SOL     OW52513   0.969   7.427   4.258  0.0993 -0.1038 -0.3981
17312SOL    HW152514   0.938   7.510   4.222  1.0628  0.3736 -0.1581
17312SOL    HW252515   1.048   7.450   4.307  0.0320 -1.0705  0.1951
17313SOL     OW52516   2.355   9.327   2.244 -0.3638 -0.1107 -0.2512
17313SOL    HW152517   2.418   9.262   2.215 -2.7664 -1.7748 -2.2227
17313SOL    HW252518   2.379   9.407   2.196  0.2185 -0.7096 -0.9714
17314SOL     OW52519   9.825   4.579   1.832 -0.7950  0.3359  0.0020
17314SOL    HW152520   9.753   4.556   1.774 -0.4754 -0.1805 -0.2027
17314SOL    HW252521   9.883   4.502   1.829 -0.7764  0.2979  0.9997
17315SOL     OW52522   7.592   8.305   9.368  0.4069 -0.3820  0.0340
17315SOL    HW152523   7.629   8.393   9.365 -0.7891  0.1412 -2.8144
17315SOL    HW252524   7.592   8.276   9.277 -4.4437 -0.9878 -0.0558
17316SOL     OW52525   8.792   1.967   5.996  0.1524 -0.7629 -0.0082
17316SOL    HW152526   8.883   1.983   6.020  0.4864 -1.0221 -1.0461
17316SOL    HW252527   8.770   2.037   5.934  0.4815 -2.1034 -1.7444
17317SOL     OW52528   8.424   2.656   8.263  0.0529  0.4562 -0.7368
17317SOL    HW152529   8.418   2.723   8.331 -0.5871 -1.3045  1.0335
17317SOL    HW252530   8.517   2.655   8.239  0.0117  2.1925 -1.0965
17318SOL     OW52531   9.469   7.230   9.090 -0.3380 -0.0086  0.2815
17318SOL    HW152532   9.558   7.215   9.060 -0.1950  0.9940  0.1812
17318SOL    HW252533   9.437   7.302   9.036 -0.6698  0.6754  1.3516
17319SOL     OW52534   3.466   5.245   4.921 -0.5651  0.0338 -0.3360
17319SOL    HW152535   3.476   5.244   4.826  0.2327  0.7157 -0.2756
17319SOL    HW252536   3.555   5.257   4.954 -1.0880  2.3653  0.4101
17320SOL     OW52537   8.044   0.178   0.574 -0.5053  0.0142  0.1282
17320SOL    HW152538   8.003   0.248   0.523 -0.4460 -0.9779 -1.3366
17320SOL    HW252539   8.122   0.153   0.524  0.2736 -0.1472  1.3629
17321SOL     OW52540   7.488   7.971   9.773  0.2293  0.2627  0.1154
17321SOL    HW152541   7.578   8.004   9.773  0.1898  0.3863  0.7158
17321SOL    HW252542   7.458   7.984   9.863 -0.5354  0.6136 -0.1871
17322SOL     OW52543   8.789   1.724   8.886 -0.2061  0.2474  0.4136
17322SOL    HW152544   8.696   1.720   8.908 -0.5614  2.4649 -0.4214
17322SOL    HW252545   8.833   1.743   8.968 -0.6551  0.6637  0.5573
17323SOL     OW52546   1.188   0.709   9.185 -0.4197 -0.0818  0.4530
17323SOL    HW152547   1.123   0.702   9.255 -0.5869  0.7780  0.3963
17323SOL    HW252548   1.184   0.624   9.139 -1.3561 -0.1089  0.5721
17324SOL     OW52549   8.928   0.038   3.575  0.1993 -0.2612 -0.1527
17324SOL    HW152550   8.836   0.063   3.568  0.1800  0.2328  1.4586
17324SOL    HW252551   8.964   0.097   3.640  2.1781  0.8891 -2.1329
17325SOL     OW52552   4.319   3.674   6.194  0.5900 -0.5279 -0.0928
17325SOL    HW152553   4.260   3.600   6.182  0.2581 -0.6606  2.0632
17325SOL    HW252554   4.268   3.750   6.168 -1.2264 -0.4494  3.1986
17326SOL     OW52555   1.888   0.669   5.613 -0.2180 -0.0866  0.2001
17326SOL    HW152556   1.846   0.738   5.664 -0.5394  0.7760 -1.1623
17326SOL    HW252557   1.966   0.711   5.576 -0.5612 -0.3465 -0.8632
17327SOL     OW52558   5.715   9.080   6.754 -0.0364 -0.4277 -0.0736
17327SOL    HW152559   5.714   9.115   6.665 -0.9587  0.2207  0.1797
17327SOL    HW252560   5.632   9.108   6.792 -0.3575 -2.0072  0.4921
17328SOL     OW52561   4.390   0.303   0.120 -0.1336  0.7331  0.2562
17328SOL    HW152562   4.313   0.247   0.114  1.1333 -1.0991 -0.1555
17328SOL    HW252563   4.376   0.372   0.055 -0.7604 -0.4717 -0.9330
17329SOL     OW52564   2.516   7.284   8.118  0.0480  0.3742  0.5627
17329SOL    HW152565   2.522   7.305   8.212  1.2931 -0.3002  0.6636
17329SOL    HW252566   2.582   7.340   8.077 -0.5122  0.6857  0.0654
17330SOL     OW52567   1.396   0.203   6.136  0.6757 -0.1306  0.3184
17330SOL    HW152568   1.469   0.263   6.150  0.3186  0.6178 -0.8687
17330SOL    HW252569   1.437   0.120   6.113  1.1709  0.3707 -0.6691
17331SOL     OW52570   6.600   3.836   4.778  0.1952 -0.1728 -0.2921
17331SOL    HW152571   6.576   3.897   4.708  0.3313  1.0959  0.7227
17331SOL    HW252572   6.525   3.777   4.784 -0.2069  0.2542 -0.9146
17332SOL     OW52573   6.943   2.136   7.945  0.5015 -0.0972  0.2055
17332SOL    HW152574   6.934   2.075   8.018  1.6036  0.0254  0.4689
17332SOL    HW252575   7.026   2.181   7.962  0.3004  0.6177 -0.6203
17333SOL     OW52576   7.392   2.676   3.708 -0.1729  0.3575  0.7702
17333SOL    HW152577   7.483   2.650   3.695 -0.3573 -0.6594  1.3945
17333SOL    HW252578   7.341   2.611   3.660 -0.5339  2.2418 -1.5567
17334SOL     OW52579   0.536   0.135   3.537  0.5140  0.0667 -0.0598
17334SOL    HW152580   0.485   0.144   3.457  0.9842 -3.6107 -0.9683
17334SOL    HW252581   0.477   0.165   3.607 -0.2820  2.3715 -1.6041
17335SOL     OW52582   4.939   0.149   5.957  0.2964  0.0424  0.2027
17335SOL    HW152583   4.898   0.064   5.971  2.3151 -0.8254  1.3455
17335SOL    HW252584   4.972   0.174   6.044  1.9030  0.7807 -0.5724
17336SOL     OW52585   1.458   7.645   4.575 -1.0521  0.1466  0.2309
17336SOL    HW152586   1.461   7.730   4.619  0.2015 -1.0028  2.5140
17336SOL    HW252587   1.514   7.588   4.627 -1.9419 -2.1508 -1.1513
17337SOL     OW52588   3.785   9.673   5.176 -0.3519  0.7102 -0.0052
17337SOL    HW152589   3.840   9.628   5.239 -0.5352  0.6457  0.1111
17337SOL    HW252590   3.762   9.606   5.112 -0.0770  0.8021 -0.2016
17338SOL     OW52591   5.413   0.296   0.268  0.3644  0.5962 -0.5931
17338SOL    HW152592   5.346   0.256   0.323 -0.1645  1.0150 -0.9184
17338SOL    HW252593   5.496   0.269   0.307  0.0596 -1.3821 -1.1973
17339SOL     OW52594   5.084   4.163   7.163  0.4220 -0.4283  0.3436
17339SOL    HW152595   5.174   4.158   7.132  0.5507  0.0332  0.6375
17339SOL    HW252596   5.065   4.257   7.168 -0.4857 -0.5254 -0.8943
17340SOL     OW52597   2.940   1.888   4.971 -0.3975 -0.1016 -0.0850
17340SOL    HW152598   2.897   1.935   4.901  0.1766  0.4435 -0.0842
17340SOL    HW252599   3.010   1.839   4.928 -1.3304 -1.3913 -0.1570
17341SOL     OW52600   4.971   9.770   4.644  0.7945  0.3150  0.2132
17341SOL    HW152601   5.044   9.752   4.585  0.8470  0.5382  0.2105
17341SOL    HW252602   4.901   9.801   4.586  0.9716  0.9037  0.3118
17342SOL     OW52603   8.417   9.147   5.717  0.0322 -0.2353  0.1945
17342SOL    HW152604   8.361   9.137   5.640 -0.1074  0.1012  0.2517
17342SOL    HW252605   8.506   9.136   5.684  0.0855  1.4355 -0.2986
17343SOL     OW52606   5.993   9.331   0.966  0.8005 -0.2736 -0.0681
17343SOL    HW152607   6.003   9.357   1.058 -0.0776 -2.1671  0.6070
17343SOL    HW252608   5.914   9.377   0.937  1.0618  0.3088  0.1318
17344SOL     OW52609   5.425   5.227   8.785  0.2689  0.5922 -0.1903
17344SOL    HW152610   5.461   5.290   8.723 -0.7911  0.0679 -1.3794
17344SOL    HW252611   5.407   5.149   8.733  1.1063 -0.5570  1.1529
17345SOL     OW52612   3.187   3.096   9.787  0.1542  0.3146  0.4282
17345SOL    HW152613   3.110   3.039   9.781 -3.6767  4.7155  1.3788
17345SOL    HW252614   3.208   3.118   9.697  0.8598 -1.4784  0.1250
17346SOL     OW52615   6.843   0.363   7.657  0.3270  0.2035 -0.0455
17346SOL    HW152616   6.796   0.330   7.581  0.5435  0.9456 -0.5084
17346SOL    HW252617   6.878   0.285   7.700 -2.0388 -0.4645  0.8176
17347SOL     OW52618   8.700   7.533   5.359 -0.1695 -0.0160 -0.2631
17347SOL    HW152619   8.763   7.577   5.302 -0.5054  0.0312 -0.5952
17347SOL    HW252620   8.654   7.472   5.301  0.1252 -0.6385  0.1392
17348SOL     OW52621   4.295   0.091   3.753  0.6786  0.2227 -0.0519
17348SOL    HW152622   4.309   0.015   3.810 -2.8192 -0.6323 -0.0798
17348SOL    HW252623   4.356   0.078   3.681  1.3397 -1.6579  0.7603
17349SOL     OW52624   4.062   0.499   5.976 -0.5597  0.3268 -0.4055
17349SOL    HW152625   4.110   0.548   6.042 -2.1752 -1.3474  2.1956
17349SOL    HW252626   3.973   0.534   5.981 -0.2917  1.7256 -3.4208
17350SOL     OW52627   2.660   3.988   6.198 -0.0068 -0.1956 -0.5574
17350SOL    HW152628   2.717   3.941   6.138  1.3477  1.8521 -0.9764
17350SOL    HW252629   2.585   4.014   6.145 -1.3317 -2.6769 -0.0642
17351SOL     OW52630   5.776   1.082   8.280  0.0822  0.5782 -0.1335
17351SOL    HW152631   5.724   1.063   8.203  1.0305 -0.5896 -0.5103
17351SOL    HW252632   5.713   1.089   8.351 -0.6015 -0.7715 -0.5804
17352SOL     OW52633   7.142   9.152   8.588  0.0783 -0.4138  0.2276
17352SOL    HW152634   7.158   9.062   8.615 -0.1098 -1.1174 -1.8188
17352SOL    HW252635   7.053   9.170   8.619  0.8807 -0.1189  2.5366
17353SOL     OW52636   0.957   2.286   3.611  0.0964  0.0418 -0.1435
17353SOL    HW152637   0.898   2.332   3.552  0.2606 -0.3466 -0.6141
17353SOL    HW252638   0.926   2.309   3.699 -1.0824 -0.5757 -0.3786
17354SOL     OW52639   7.436   0.151   2.094 -0.3311 -0.0675  0.0785
17354SOL    HW152640   7.439   0.092   2.169 -1.9844  0.9460  1.0040
17354SOL    HW252641   7.365   0.117   2.040 -1.5012  1.1716  0.7646
17355SOL     OW52642   9.192   7.999   1.800 -0.3701 -0.4199 -0.1528
17355SOL    HW152643   9.183   8.078   1.854  0.8297  0.8485 -1.6735
17355SOL    HW252644   9.274   7.960   1.829  1.2561  1.2756 -2.1370
17356SOL     OW52645   8.901   6.002   2.215 -0.4914  0.1431 -0.0809
17356SOL    HW152646   8.957   5.975   2.288  0.3113  0.8534 -0.4123
17356SOL    HW252647   8.817   6.023   2.256 -0.2268 -0.0097  0.5582
17357SOL     OW52648   1.565   8.593   8.436  0.2633  0.5503  0.4478
17357SOL    HW152649   1.594   8.680   8.462  0.5917  0.4876  0.3013
17357SOL    HW252650   1.644   8.540   8.438 -0.0927  0.0410  1.4167
17358SOL     OW52651   6.448   2.195   3.027 -0.6125  0.4533  0.4057
17358SOL    HW152652   6.361   2.226   3.003 -0.0303  0.6280 -1.6479
17358SOL    HW252653   6.496   2.275   3.050 -0.4535  0.5878 -0.3623
17359SOL     OW52654   6.132   4.795   7.531  0.1612  0.2098  0.7257
17359SOL    HW152655   6.146   4.701   7.544 -1.0241  0.0328  0.8036
17359SOL    HW252656   6.155   4.834   7.615  0.9698  0.0412  0.5967
17360SOL     OW52657   5.956   0.257   9.534 -0.4047  0.1736  0.0414
17360SOL    HW152658   5.938   0.227   9.623 -0.5241  0.5330  0.1368
17360SOL    HW252659   6.027   0.200   9.504 -1.3223 -0.9113 -0.1521
17361SOL     OW52660   1.112   6.938   0.670 -0.2821 -0.8036 -0.3762
17361SOL    HW152661   1.028   6.902   0.699 -0.5313 -1.1713 -1.5121
17361SOL    HW252662   1.145   6.985   0.746 -1.6767 -0.3790 -0.0000
17362SOL     OW52663   2.901   7.123   1.560 -0.7036  0.0345 -0.0261
17362SOL    HW152664   2.925   7.033   1.583 -1.3545  0.4834  2.6669
17362SOL    HW252665   2.969   7.151   1.499  1.4699 -1.1827  1.7148
17363SOL     OW52666   7.231   7.638   6.384 -0.3774  0.5086  0.0670
17363SOL    HW152667   7.272   7.654   6.299  1.0823  0.2154  0.6880
17363SOL    HW252668   7.208   7.726   6.416 -0.8528  0.6256 -0.5749
17364SOL     OW52669   7.728   4.671   7.580 -0.5525  1.1349  0.1449
17364SOL    HW152670   7.751   4.726   7.654 -1.0264  4.1716 -1.7742
17364SOL    HW252671   7.808   4.667   7.527 -0.7181  0.5423 -0.0704
17365SOL     OW52672   6.535   4.118   9.549 -0.3186  0.2965 -0.4331
17365SOL    HW152673   6.454   4.103   9.599  0.2280  0.9243  0.6877
17365SOL    HW252674   6.569   4.031   9.532 -1.0192  0.0393 -0.5570
17366SOL     OW52675   0.990   0.104   6.193 -0.4902  0.2371  0.1626
17366SOL    HW152676   0.907   0.151   6.202 -1.6783 -1.8561  0.7902
17366SOL    HW252677   0.983   0.029   6.252  0.5772 -1.6877 -1.9451
17367SOL     OW52678   8.111   1.331   3.248  0.0928  0.0725 -0.1516
17367SOL    HW152679   8.095   1.341   3.342  0.3871  1.5442 -0.2352
17367SOL    HW252680   8.024   1.328   3.209 -0.0378  0.9756  0.0469
17368SOL     OW52681   4.698   8.374   0.458  0.3829  0.1362 -0.3050
17368SOL    HW152682   4.657   8.408   0.537 -0.2066  0.3214 -0.6794
17368SOL    HW252683   4.784   8.344   0.486  0.0769 -0.0571  0.4593
17369SOL     OW52684  -0.016   0.868   4.777  0.1353  0.1761 -0.3237
17369SOL    HW152685   0.073   0.833   4.775  0.2595  0.3017  1.4239
17369SOL    HW252686  -0.034   0.883   4.870 -1.8787 -0.2460 -0.5980
17370SOL     OW52687   1.227   5.389   2.699  0.2280 -0.3912 -0.7365
17370SOL    HW152688   1.307   5.406   2.649  0.3945 -0.1862 -0.4014
17370SOL    HW252689   1.258   5.359   2.785 -0.0197  1.4874  0.0613
17371SOL     OW52690   6.142   2.309   3.782 -0.1806  0.2517 -0.1644
17371SOL    HW152691   6.146   2.232   3.725 -0.6177 -0.4409  0.7138
17371SOL    HW252692   6.050   2.315   3.808  0.0045  0.5613  0.4521
17372SOL     OW52693   0.229   0.130   6.263 -0.2136 -0.4095  0.2834
17372SOL    HW152694   0.204   0.042   6.236  0.7184 -1.0056  1.2711
17372SOL    HW252695   0.274   0.118   6.346  1.8357  0.7636 -0.5733
17373SOL     OW52696   6.315   5.281   3.818  0.2126  0.4314 -0.3386
17373SOL    HW152697   6.314   5.297   3.724 -2.6853 -1.3932 -0.7380
17373SOL    HW252698   6.368   5.202   3.829  0.7961  0.8105 -0.3638
17374SOL     OW52699   9.314   6.896   3.020  0.2054  0.3968 -0.1508
17374SOL    HW152700   9.221   6.901   3.043 -0.1365 -0.7665 -1.1580
17374SOL    HW252701   9.333   6.981   2.980 -0.6932  0.2980 -0.8269
17375SOL     OW52702   9.483   2.058   6.783 -0.3863 -0.2970  0.7349
17375SOL    HW152703   9.488   2.096   6.871  1.5486 -1.3759  1.1404
17375SOL    HW252704   9.456   1.967   6.797  1.0103 -0.7979  0.3508
17376SOL     OW52705   7.251   1.638   5.347  0.1882 -0.1151  0.3092
17376SOL    HW152706   7.224   1.546   5.344 -0.4062  0.0341  0.8932
17376SOL    HW252707   7.179   1.686   5.306  0.6680  0.0637 -0.3490
17377SOL     OW52708   8.803   9.326   3.891  0.8894 -0.3269  0.0414
17377SOL    HW152709   8.769   9.414   3.901 -0.2198 -0.8102  0.7361
17377SOL    HW252710   8.836   9.322   3.801 -0.4934  0.3103 -0.5220
17378SOL     OW52711   1.986   3.921   4.792 -0.1900 -0.7336 -0.0853
17378SOL    HW152712   1.986   3.928   4.696 -0.2754  0.2113 -0.0287
17378SOL    HW252713   1.898   3.892   4.814 -0.5636  0.2526 -0.2301
17379SOL     OW52714   1.640   9.030   8.545 -0.2716  0.3277  0.5781
17379SOL    HW152715   1.672   9.028   8.455 -0.7832  0.4678  0.3936
17379SOL    HW252716   1.551   8.995   8.541  0.3833 -1.5611  1.3239
17380SOL     OW52717   0.028   3.743   1.862  0.0482  0.3420  0.2583
17380SOL    HW152718  -0.005   3.655   1.844  1.0911 -0.6520  2.6809
17380SOL    HW252719   0.081   3.766   1.786  1.5629 -2.1166  0.4725
17381SOL     OW52720   9.003   1.366   9.055  0.2775 -0.0976  0.5657
17381SOL    HW152721   9.017   1.327   9.141  0.1838  0.0582  0.6514
17381SOL    HW252722   8.916   1.404   9.059 -0.2864 -1.2726 -0.0475
17382SOL     OW52723   3.996   5.616   5.595  0.2663 -0.5778  0.1362
17382SOL    HW152724   3.917   5.563   5.609  1.4856 -2.3636  0.6150
17382SOL    HW252725   4.024   5.640   5.683  0.4335 -0.2348 -0.0122
17383SOL     OW52726   3.609   0.693   9.244  0.2318  0.5695  0.2238
17383SOL    HW152727   3.613   0.782   9.211  1.4677 -0.5039 -2.9519
17383SOL    HW252728   3.699   0.673   9.271  0.3938 -0.2863 -0.8913
17384SOL     OW52729   6.094   8.656   3.722 -0.7081  0.5913  0.4993
17384SOL    HW152730   6.052   8.570   3.724  0.4365 -0.0186 -0.4234
17384SOL    HW252731   6.177   8.644   3.768 -0.7121  1.2949  0.6998
17385SOL     OW52732   2.389   0.094   7.082 -0.6662  0.3680  0.4936
17385SOL    HW152733   2.477   0.085   7.046 -0.3164 -1.7208  1.6922
17385SOL    HW252734   2.397   0.064   7.173 -2.3564  1.3679  1.0206
17386SOL     OW52735   1.766   8.676   4.259  0.4544 -0.1721  0.3437
17386SOL    HW152736   1.757   8.735   4.333 -0.5271 -0.7275  0.6961
17386SOL    HW252737   1.728   8.593   4.290 -1.0808 -0.0829 -1.1366
17387SOL     OW52738   1.751   3.669   3.704 -0.1754  0.2028  0.3406
17387SOL    HW152739   1.774   3.608   3.634 -0.0143  0.6351  0.0122
17387SOL    HW252740   1.780   3.625   3.784 -1.2160 -0.7113  0.2375
17388SOL     OW52741   0.287   6.552   5.680 -0.2133  0.1999  0.5524
17388SOL    HW152742   0.301   6.464   5.645  1.3205 -0.4001  2.5012
17388SOL    HW252743   0.333   6.553   5.764  0.0713  2.9615  0.4715
17389SOL     OW52744   7.486   8.479   7.432  0.3764 -0.0395 -0.4068
17389SOL    HW152745   7.502   8.530   7.511  2.9605 -2.6249  0.9387
17389SOL    HW252746   7.443   8.399   7.464 -2.4860  0.6218 -2.2588
17390SOL     OW52747   0.850   3.379   8.039  0.4445  0.0646 -0.4781
17390SOL    HW152748   0.835   3.349   8.128  1.0660 -0.3383 -0.5084
17390SOL    HW252749   0.765   3.412   8.011  0.6383  1.8020  0.8492
17391SOL     OW52750   6.413   5.965   8.751  0.1396  0.0121 -0.4162
17391SOL    HW152751   6.499   6.006   8.745  0.1228  0.2732  0.7794
17391SOL    HW252752   6.389   5.973   8.844 -1.5560  0.7165 -0.8823
17392SOL     OW52753   2.529   4.186   8.264 -1.0720 -0.1016 -0.1264
17392SOL    HW152754   2.537   4.129   8.187 -0.2333  0.1085 -0.2003
17392SOL    HW252755   2.574   4.139   8.333 -1.2627  0.0064  0.0703
17393SOL     OW52756   2.445   1.395   2.804 -0.9284 -0.5772 -0.3188
17393SOL    HW152757   2.415   1.384   2.895  0.3882 -1.3495  0.0542
17393SOL    HW252758   2.471   1.307   2.777  0.0644 -0.1170 -0.9334
17394SOL     OW52759   1.697   8.913   6.247 -0.3817  0.1216  0.1532
17394SOL    HW152760   1.765   8.918   6.315 -0.9840 -0.0555  0.7782
17394SOL    HW252761   1.665   8.823   6.253  0.5939 -0.3696 -1.4022
17395SOL     OW52762   8.323   5.244   1.599 -0.4923 -0.4110  0.2786
17395SOL    HW152763   8.357   5.280   1.681 -0.6886 -1.2284  0.7248
17395SOL    HW252764   8.298   5.321   1.548  1.0904  0.1763  0.3333
17396SOL     OW52765   9.413   2.062   5.833  0.1044 -0.0027 -0.2345
17396SOL    HW152766   9.375   1.978   5.856  3.0675 -1.4465 -0.1422
17396SOL    HW252767   9.353   2.127   5.870 -1.8813 -2.0443  0.3375
17397SOL     OW52768   3.454   3.433   6.352 -0.0637 -0.0541 -0.2904
17397SOL    HW152769   3.501   3.516   6.363 -0.5875  0.0178  1.9693
17397SOL    HW252770   3.517   3.375   6.310  1.6780  0.3988  1.5287
17398SOL     OW52771   0.875   8.802   9.479 -0.0059  0.4258 -0.7911
17398SOL    HW152772   0.955   8.819   9.429  0.5907  1.2020  0.3786
17398SOL    HW252773   0.815   8.763   9.415  1.1079  0.3297 -1.8253
17399SOL     OW52774   5.046   5.366   5.064 -0.6264  0.4950  0.1168
17399SOL    HW152775   5.139   5.384   5.075 -0.9884  1.9894  1.0869
17399SOL    HW252776   5.031   5.376   4.970  0.1211  0.5602 -0.0055
17400SOL     OW52777   1.636   1.448   9.508  0.0400 -0.1906 -0.3721
17400SOL    HW152778   1.618   1.400   9.427 -0.3462  0.4538 -0.6808
17400SOL    HW252779   1.549   1.470   9.542  0.2115  0.8204 -0.5694
17401SOL     OW52780   9.658   6.726   8.498  0.4156 -0.2542 -0.5140
17401SOL    HW152781   9.616   6.640   8.493  1.4081 -0.7114 -1.8969
17401SOL    HW252782   9.749   6.709   8.473  0.9389  1.0196  0.4085
17402SOL     OW52783   4.128   7.515   1.048 -0.2707 -0.0472  0.0128
17402SOL    HW152784   4.164   7.603   1.053  1.1589  0.2220 -6.3247
17402SOL    HW252785   4.203   7.460   1.026 -1.6537 -2.2178  0.4328
17403SOL     OW52786   5.747   3.840   3.565 -0.1006 -0.2866 -0.3744
17403SOL    HW152787   5.716   3.760   3.522  1.0143  0.3933 -2.5410
17403SOL    HW252788   5.819   3.811   3.620  0.3034 -0.7796 -1.1517
17404SOL     OW52789   9.383   1.934   8.945 -0.3835  0.2783  0.0734
17404SOL    HW152790   9.433   1.861   8.907  0.0379  0.4329  0.3276
17404SOL    HW252791   9.293   1.901   8.949 -0.1867 -0.2583  0.2537
17405SOL     OW52792   1.662   3.722   0.631  0.5827 -0.0108 -0.1701
17405SOL    HW152793   1.741   3.669   0.621  0.9572  0.4704  0.1816
17405SOL    HW252794   1.694   3.808   0.660 -0.1548 -0.1553  1.1350
17406SOL     OW52795   6.889   8.090   8.834  0.3454  0.3179  0.3732
17406SOL    HW152796   6.923   8.001   8.833 -0.1133  0.1138 -2.1138
17406SOL    HW252797   6.938   8.135   8.765 -0.1530  1.7375  0.9066
17407SOL     OW52798   8.399   0.583   1.020 -0.4128 -0.1565 -0.5018
17407SOL    HW152799   8.477   0.631   0.995  0.5113 -1.1042  0.4587
17407SOL    HW252800   8.371   0.539   0.940 -0.2446  0.5543 -0.9616
17408SOL     OW52801   7.350   6.445   4.862 -0.8961 -0.5727 -0.7053
17408SOL    HW152802   7.357   6.456   4.767  2.0942 -1.8139 -0.7708
17408SOL    HW252803   7.373   6.531   4.898 -2.1949 -0.0546 -1.0549
17409SOL     OW52804   2.464   4.757   3.664 -0.3605 -0.2436 -0.4074
17409SOL    HW152805   2.517   4.763   3.744 -0.9321 -0.4670 -0.0054
17409SOL    HW252806   2.396   4.693   3.685  2.0365 -3.8739 -2.5693
17410SOL     OW52807   2.165   1.262   7.518  0.0934  0.1540  0.1052
17410SOL    HW152808   2.118   1.342   7.496  2.7163  0.7587 -4.3753
17410SOL    HW252809   2.119   1.193   7.470  0.6581 -0.1634  0.0139
17411SOL     OW52810   4.181   8.591   1.866 -0.0071 -0.3902  0.6344
17411SOL    HW152811   4.254   8.648   1.892 -0.2040  0.2708 -0.2324
17411SOL    HW252812   4.212   8.503   1.887  0.6985 -0.0534  1.0825
17412SOL     OW52813   7.735   2.377   9.381 -0.4836  0.2132  0.5113
17412SOL    HW152814   7.667   2.358   9.446  0.9933 -1.7311  1.5867
17412SOL    HW252815   7.817   2.369   9.429  0.6549 -1.1141 -1.5152
17413SOL     OW52816   6.888   3.586   8.730 -0.6362 -0.0697 -0.1691
17413SOL    HW152817   6.815   3.648   8.720  0.0431  0.9984  1.3025
17413SOL    HW252818   6.864   3.513   8.673 -1.2980  1.6675 -2.2594
17414SOL     OW52819   4.172   2.449   0.496 -0.0649  0.4805  0.1850
17414SOL    HW152820   4.201   2.404   0.417  1.3977 -0.8071  1.4030
17414SOL    HW252821   4.113   2.518   0.464 -0.9326 -1.1116 -1.8756
17415SOL     OW52822   8.143   2.114   6.921  0.8611  0.4359 -0.6359
17415SOL    HW152823   8.071   2.112   6.858  0.0894 -3.2570  0.1191
17415SOL    HW252824   8.135   2.200   6.964 -1.9224  0.8881 -1.8373
17416SOL     OW52825   4.327   2.840   6.976 -0.7424 -0.7738  0.1509
17416SOL    HW152826   4.350   2.814   6.887  0.1386 -0.4292  0.2578
17416SOL    HW252827   4.252   2.898   6.966 -1.3655 -1.6379 -0.2623
17417SOL     OW52828   3.058   3.263   5.751  0.2035 -0.5192 -0.4954
17417SOL    HW152829   2.977   3.312   5.769 -0.7616 -2.5303  1.0005
17417SOL    HW252830   3.116   3.328   5.711 -1.3423  1.5667  0.4373
17418SOL     OW52831   8.508   1.719   8.434  0.3045 -0.3911 -0.0612
17418SOL    HW152832   8.445   1.778   8.476  1.5838  0.2375  1.0073
17418SOL    HW252833   8.496   1.735   8.340 -0.8946 -0.0590  0.1225
17419SOL     OW52834   5.194   7.308   6.256  0.0408 -0.5315 -0.0481
17419SOL    HW152835   5.187   7.370   6.329 -0.4047 -0.1258 -0.4273
17419SOL    HW252836   5.284   7.277   6.259  0.7223  1.2338 -0.7043
17420SOL     OW52837   1.867   6.988   4.383  0.4119  0.5265  0.1120
17420SOL    HW152838   1.894   7.069   4.339 -1.7379  1.1176 -0.2354
17420SOL    HW252839   1.870   6.921   4.315  0.4129  0.7099 -0.0702
17421SOL     OW52840   5.626   7.471   0.810  0.2962 -0.6177  0.0159
17421SOL    HW152841   5.593   7.469   0.720 -1.4873  0.1514  0.6023
17421SOL    HW252842   5.602   7.385   0.846  0.5016 -0.7159 -0.0838
17422SOL     OW52843   5.965   9.592   0.515 -0.2789  0.4773 -0.2335
17422SOL    HW152844   5.957   9.497   0.509 -0.8027  0.2967  2.0737
17422SOL    HW252845   5.916   9.625   0.440 -0.3985 -1.0720 -0.8744
17423SOL     OW52846   6.423   6.719   0.680  0.0737  0.2049 -0.7338
17423SOL    HW152847   6.387   6.807   0.689 -0.5173 -0.1143  0.1403
17423SOL    HW252848   6.399   6.692   0.592 -1.0711  0.3474 -0.4870
17424SOL     OW52849   5.217   2.614   0.343  0.1506 -0.8178 -0.2161
17424SOL    HW152850   5.169   2.685   0.299 -1.3759 -0.7290  1.4659
17424SOL    HW252851   5.278   2.581   0.277  0.0116  1.2201 -1.4350
17425SOL     OW52852   3.390   8.166   5.947 -0.5469  0.7635  0.0951
17425SOL    HW152853   3.328   8.188   6.017  0.1144  1.7146  0.4003
17425SOL    HW252854   3.408   8.073   5.959 -1.9973  0.4283 -0.0773
17426SOL     OW52855   2.075   4.424   9.482 -0.1849  0.0674  0.3351
17426SOL    HW152856   2.094   4.503   9.533  0.7927  0.6378 -0.8696
17426SOL    HW252857   2.144   4.421   9.416 -0.2435 -1.7779  0.3209
17427SOL     OW52858   3.783   9.776   8.634 -0.1753 -0.3493 -0.3425
17427SOL    HW152859   3.687   9.774   8.632 -0.1728 -0.6757 -0.2688
17427SOL    HW252860   3.806   9.859   8.593 -0.5562  1.1027  2.1879
17428SOL     OW52861   7.794   8.925   1.046 -0.1566  0.1863  0.6308
17428SOL    HW152862   7.821   9.015   1.030 -0.4352  0.3234  0.9301
17428SOL    HW252863   7.822   8.877   0.968  2.2040  0.0458  1.4708
17429SOL     OW52864   6.836   7.734   3.316 -0.2144 -0.1908 -0.1467
17429SOL    HW152865   6.860   7.796   3.247  0.9392  1.1189  1.3386
17429SOL    HW252866   6.841   7.786   3.397  0.0208 -2.0408  1.0875
17430SOL     OW52867   3.419   5.354   3.177  0.2243 -0.7919 -0.0702
17430SOL    HW152868   3.420   5.380   3.269  0.7162  0.8484 -0.4965
17430SOL    HW252869   3.445   5.262   3.177 -0.1850 -0.9239  1.4504
17431SOL     OW52870   5.099   7.350   7.801  0.1207 -0.2567 -0.2511
17431SOL    HW152871   5.122   7.316   7.715  1.3221  0.0310 -0.0533
17431SOL    HW252872   5.072   7.440   7.785 -0.1573 -0.3639 -0.3900
17432SOL     OW52873   0.361   2.147   7.820 -0.0470 -0.3116  0.3915
17432SOL    HW152874   0.388   2.126   7.909 -0.6882 -1.0063  0.4315
17432SOL    HW252875   0.410   2.226   7.798 -0.2053  0.1226  1.5257
17433SOL     OW52876   4.365   7.318   8.757 -0.3125 -0.1668  0.2529
17433SOL    HW152877   4.440   7.280   8.712 -0.7164 -0.3123 -0.3038
17433SOL    HW252878   4.303   7.245   8.768 -0.0473 -0.2401  1.4382
17434SOL     OW52879   6.862   9.555   0.403 -0.4460 -0.3756 -0.1559
17434SOL    HW152880   6.837   9.535   0.312  0.0066  1.4263 -0.7277
17434SOL    HW252881   6.957   9.550   0.403 -0.3875  0.5719 -0.0484
17435SOL     OW52882   8.927   3.796   6.510  0.0137 -0.6790 -0.6176
17435SOL    HW152883   9.000   3.859   6.505  0.7920 -1.6023 -1.2812
17435SOL    HW252884   8.936   3.756   6.597  1.0570 -1.6440 -1.1440
17436SOL     OW52885   0.246   0.076   5.626 -0.4911 -0.0095 -0.3916
17436SOL    HW152886   0.196   0.024   5.563 -0.4820 -1.1875  0.5455
17436SOL    HW252887   0.292   0.141   5.572 -0.8812 -0.6616 -1.5445
17437SOL     OW52888   7.829   6.580   3.317  0.1290 -0.3733 -0.0393
17437SOL    HW152889   7.919   6.580   3.348  0.6352 -2.3557 -1.3412
17437SOL    HW252890   7.788   6.505   3.359 -0.8832  0.3671  0.3564
17438SOL     OW52891   9.268   3.290   6.905  0.2777 -0.0352 -0.7946
17438SOL    HW152892   9.185   3.310   6.949  1.1333  0.3583  0.7260
17438SOL    HW252893   9.323   3.253   6.975  1.8560  1.0393 -1.4312
17439SOL     OW52894   7.668   8.617   7.905  0.1858  0.2966 -0.3625
17439SOL    HW152895   7.744   8.594   7.959  0.3569 -0.3066 -0.8435
17439SOL    HW252896   7.642   8.703   7.935  1.0069  0.4703 -0.1171
17440SOL     OW52897   9.249   3.665   8.031  0.1199  0.1536 -0.6321
17440SOL    HW152898   9.187   3.738   8.038  0.1586  0.2038 -0.8060
17440SOL    HW252899   9.273   3.645   8.121 -1.3950 -0.9410 -0.4432
17441SOL     OW52900   1.955   5.012   0.286  0.2641  0.1215  0.8252
17441SOL    HW152901   1.933   5.004   0.193 -1.9626  0.1430  1.2979
17441SOL    HW252902   1.948   4.922   0.320  0.9972  0.1271  1.0151
17442SOL     OW52903   1.812   0.502   5.429 -0.2517  0.4828  0.7116
17442SOL    HW152904   1.792   0.419   5.473 -0.6911  0.2753  0.1520
17442SOL    HW252905   1.838   0.562   5.499 -1.9554  0.4771  1.3954
17443SOL     OW52906   5.431   3.951   5.648  0.1417  0.6706 -0.0838
17443SOL    HW152907   5.338   3.963   5.668 -0.5466 -0.2817 -2.4707
17443SOL    HW252908   5.451   4.021   5.585  0.2982 -0.7321 -1.6456
17444SOL     OW52909   9.324   9.796   6.515  0.0824  0.0049  0.6532
17444SOL    HW152910   9.329   9.703   6.540  0.6658  0.1583  1.1432
17444SOL    HW252911   9.358   9.843   6.592  1.1370  0.5459 -0.1287
17445SOL     OW52912   0.242   0.964   6.146  0.1725  0.1101 -0.0196
17445SOL    HW152913   0.187   1.042   6.143 -1.1013 -0.8000 -1.4514
17445SOL    HW252914   0.325   0.995   6.182 -0.2520  2.1501 -0.6773
17446SOL     OW52915   0.118   9.476   6.313 -0.0759 -0.0684 -0.0688
17446SOL    HW152916   0.085   9.394   6.350 -1.6397  0.8812  0.7266
17446SOL    HW252917   0.043   9.513   6.266  0.5185  1.0637 -0.1608
17447SOL     OW52918   8.682   0.986   3.594 -0.1740 -0.3453 -0.1872
17447SOL    HW152919   8.759   1.041   3.579  1.6587 -2.5896  0.3683
17447SOL    HW252920   8.640   0.980   3.508 -0.4108  1.7985 -0.2723
17448SOL     OW52921   1.121   1.988   9.581  0.3927 -0.5295  0.4110
17448SOL    HW152922   1.148   1.904   9.544 -2.1901 -0.6207 -1.5994
17448SOL    HW252923   1.113   1.972   9.675  0.5869 -2.3160  0.1608
17449SOL     OW52924   9.217   7.627   0.489  0.5704  0.5398  0.0003
17449SOL    HW152925   9.255   7.554   0.538  0.9691  1.2414  0.7711
17449SOL    HW252926   9.248   7.705   0.535  1.4369  1.2608 -1.7105
17450SOL     OW52927   0.136   8.803   4.827  0.0970  0.0796 -0.4278
17450SOL    HW152928   0.107   8.850   4.749  0.2774 -0.0075 -0.5493
17450SOL    HW252929   0.068   8.736   4.841  0.4754 -0.4364 -0.9931
17451SOL     OW52930   7.644   6.109   2.568 -0.0640 -0.2442  0.2091
17451SOL    HW152931   7.606   6.063   2.644 -0.4138  0.1589  0.2814
17451SOL    HW252932   7.622   6.053   2.494 -0.9197  0.0347  0.2339
17452SOL     OW52933   6.614   1.131   2.616 -0.0097 -0.4846  0.0458
17452SOL    HW152934   6.603   1.051   2.668 -1.9867 -1.1562 -1.3083
17452SOL    HW252935   6.538   1.185   2.637  0.3349  0.2293 -0.4725
17453SOL     OW52936   0.462   5.266   4.394 -0.0977 -0.3151  0.0580
17453SOL    HW152937   0.477   5.360   4.392  1.0131 -0.4379  1.1638
17453SOL    HW252938   0.373   5.256   4.428 -0.7261  0.3310 -1.3003
17454SOL     OW52939   9.809   1.071   0.729 -0.5289 -0.0354  0.0092
17454SOL    HW152940   9.867   1.121   0.787 -0.2028  0.0601 -0.3952
17454SOL    HW252941   9.735   1.130   0.713 -0.3907  0.1181 -0.0578
17455SOL     OW52942   9.838   6.633   7.262 -0.4477 -0.2524 -0.0088
17455SOL    HW152943   9.928   6.661   7.275 -0.9521  0.9690  1.1465
17455SOL    HW252944   9.834   6.604   7.170  0.4250  2.5243 -1.0283
17456SOL     OW52945   5.962   2.022   6.563  0.2883 -0.6002 -0.1598
17456SOL    HW152946   5.945   2.057   6.475 -0.0073 -0.1182  0.0846
17456SOL    HW252947   6.057   2.009   6.565  0.2705 -0.8197 -0.6261
17457SOL     OW52948   5.327   3.214   8.330  0.0075 -0.2091  0.0496
17457SOL    HW152949   5.414   3.236   8.298  1.1273 -0.1089  2.8785
17457SOL    HW252950   5.326   3.119   8.333  0.8328 -0.2036  1.8503
17458SOL     OW52951   6.442   2.620   2.765 -0.0881 -0.6557 -0.4721
17458SOL    HW152952   6.434   2.662   2.679  1.8027 -0.8856 -0.8079
17458SOL    HW252953   6.534   2.632   2.789 -0.3578 -1.4468  1.0941
17459SOL     OW52954   2.697   4.990   7.336  0.0749  0.1837 -0.5795
17459SOL    HW152955   2.726   4.983   7.427 -2.3519  0.4517  0.2930
17459SOL    HW252956   2.724   5.078   7.308 -0.9749  0.9242  0.6254
17460SOL     OW52957   5.623   9.978   7.409  0.2751  0.2499 -0.5091
17460SOL    HW152958   5.605   9.894   7.451 -0.1568  0.9316  0.7159
17460SOL    HW252959   5.714   9.970   7.380  1.1483  0.2638  1.9423
17461SOL     OW52960   2.044   7.271   7.428  0.5525  0.0652  0.2754
17461SOL    HW152961   2.084   7.200   7.378  0.7935  0.3674  0.0312
17461SOL    HW252962   2.050   7.347   7.370 -0.7228  0.0352  0.0759
17462SOL     OW52963   7.910   3.886   9.074 -0.0458  0.7590  0.6822
17462SOL    HW152964   7.977   3.884   9.143  2.1805 -0.6304 -1.3638
17462SOL    HW252965   7.877   3.796   9.069  0.0460  0.7658 -0.2611
17463SOL     OW52966   4.326   1.566   8.078 -0.3901 -0.6584 -0.0384
17463SOL    HW152967   4.359   1.609   8.157 -0.5411 -2.0509  0.8203
17463SOL    HW252968   4.236   1.542   8.100 -1.2759  1.0553 -1.5278
17464SOL     OW52969   5.147   8.497   9.860  0.0582 -0.6262  0.1265
17464SOL    HW152970   5.173   8.561   9.794 -1.5286  2.2210  2.0644
17464SOL    HW252971   5.076   8.447   9.820  0.2622 -0.1294 -0.8719
17465SOL     OW52972   0.768   5.565   4.343  0.4815 -0.0508  0.1497
17465SOL    HW152973   0.823   5.614   4.404 -0.2665 -1.0957  1.7321
17465SOL    HW252974   0.804   5.476   4.344 -0.7032 -0.5534  0.5997
17466SOL     OW52975   1.511   5.054   6.140 -0.1026  0.2205 -0.2576
17466SOL    HW152976   1.437   5.006   6.105  0.1720 -1.0243  0.8057
17466SOL    HW252977   1.490   5.067   6.233  1.6261 -1.4873  0.4374
17467SOL     OW52978   7.718   2.042   1.688 -0.5868  0.0450  0.1670
17467SOL    HW152979   7.726   1.947   1.698 -0.8267  0.0938  0.8683
17467SOL    HW252980   7.651   2.053   1.620 -1.9013 -0.2907  1.3683
17468SOL     OW52981   6.956   4.442   1.407  0.5252  0.2923  0.5543
17468SOL    HW152982   6.929   4.533   1.391  0.4723 -0.2663 -3.6109
17468SOL    HW252983   6.878   4.390   1.386  1.2351 -0.8050  0.5785
17469SOL     OW52984   4.859   4.599   6.973 -0.2722 -0.0320  0.3408
17469SOL    HW152985   4.904   4.663   7.029 -1.2359  0.1098  0.9821
17469SOL    HW252986   4.769   4.632   6.967 -0.8507 -1.4674  0.8911
17470SOL     OW52987   3.270   0.271   4.162  0.0597  0.1448 -0.5514
17470SOL    HW152988   3.185   0.255   4.121  0.6397 -2.2955 -0.9542
17470SOL    HW252989   3.309   0.342   4.111 -1.6031  1.0969 -0.5297
17471SOL     OW52990   8.743   1.352   1.398 -0.2394 -0.2932 -0.1779
17471SOL    HW152991   8.807   1.408   1.356 -1.6103  0.3675 -1.4946
17471SOL    HW252992   8.734   1.387   1.486  0.2498  0.4125 -0.4014
17472SOL     OW52993   7.444   7.116   5.960 -0.3150  0.1131 -0.0252
17472SOL    HW152994   7.392   7.035   5.968  1.0366 -1.0655 -2.1146
17472SOL    HW252995   7.522   7.099   6.013  0.0949 -0.1005 -0.6812
17473SOL     OW52996   0.786   0.189   7.800 -0.3867  0.1476  0.3373
17473SOL    HW152997   0.815   0.172   7.890 -0.1356 -2.2804 -0.1573
17473SOL    HW252998   0.691   0.202   7.808 -0.0486  2.7845  1.2426
17474SOL     OW52999   2.127   0.331   3.931 -0.2296 -0.4573 -0.0243
17474SOL    HW153000   2.152   0.363   3.844  0.2002  0.0285  0.2755
17474SOL    HW253001   2.039   0.367   3.946  0.8615  2.0293  0.9915
17475SOL     OW53002   5.203   5.835   7.607 -0.2974 -0.0097  0.0583
17475SOL    HW153003   5.107   5.844   7.609 -0.2791  0.0832  0.5219
17475SOL    HW253004   5.236   5.923   7.624 -0.1249 -0.5164  2.7637
17476SOL     OW53005   9.125   5.976   1.691  0.0187  0.5917  0.1669
17476SOL    HW153006   9.221   5.973   1.697  0.1772 -0.3276 -1.8622
17476SOL    HW253007   9.095   5.915   1.757  1.0028 -1.3848 -1.1218
17477SOL     OW53008   3.041   9.328   0.272  0.0413 -0.1845  0.1520
17477SOL    HW153009   3.096   9.392   0.226 -1.3575  1.1368  0.2221
17477SOL    HW253010   2.980   9.297   0.205 -1.0899  0.6877  0.7417
17478SOL     OW53011   4.761   5.628   4.610  0.1775 -0.5964  0.0404
17478SOL    HW153012   4.828   5.563   4.587  0.2589 -1.3789  2.2561
17478SOL    HW253013   4.807   5.692   4.665 -0.5997 -0.4374  0.5224
17479SOL     OW53014   5.164   0.496   4.266 -0.2006 -0.5469  0.1411
17479SOL    HW153015   5.083   0.466   4.308 -1.2679  1.1164 -0.5596
17479SOL    HW253016   5.195   0.566   4.323  0.1444 -0.4666 -0.1470
17480SOL     OW53017   1.049   7.654   6.713  0.7632  0.3799  0.4455
17480SOL    HW153018   1.022   7.580   6.659  1.0770 -0.6266  1.6031
17480SOL    HW253019   1.012   7.731   6.670 -0.1381 -0.5186 -0.4287
17481SOL     OW53020   4.938   1.697   7.228 -0.0458 -0.1902 -0.2837
17481SOL    HW153021   4.971   1.642   7.157 -0.9265  0.7668 -1.4748
17481SOL    HW253022   4.866   1.646   7.265 -1.0534  0.2510 -1.5732
17482SOL     OW53023   1.589   8.100   1.592 -0.0455 -0.2421  0.0188
17482SOL    HW153024   1.517   8.037   1.594  0.1825 -0.4997  1.3389
17482SOL    HW253025   1.548   8.184   1.615 -0.2088 -0.0485 -0.9401
17483SOL     OW53026   1.763   1.752   1.912  0.3677 -0.6018  0.2483
17483SOL    HW153027   1.734   1.708   1.993  1.9903 -3.6037 -0.6391
17483SOL    HW253028   1.689   1.741   1.852  0.3330 -1.2093  0.3868
17484SOL     OW53029   9.651   8.760   5.149 -0.1809 -0.3920  0.0072
17484SOL    HW153030   9.587   8.827   5.177 -0.2155 -0.3027 -0.2835
17484SOL    HW253031   9.679   8.719   5.231 -0.4621 -0.2953  0.1561
17485SOL     OW53032   9.113   8.216   4.138  0.2706  0.2115 -0.0146
17485SOL    HW153033   9.024   8.180   4.134  0.1859  0.2377  1.2974
17485SOL    HW253034   9.129   8.250   4.050 -1.0528  0.2785 -0.2458
17486SOL     OW53035   8.433   5.342   4.291  0.1592 -0.5178  0.0833
17486SOL    HW153036   8.471   5.331   4.378  1.2921  0.1850 -0.3005
17486SOL    HW253037   8.446   5.434   4.270  1.0647 -0.9344 -1.3345
17487SOL     OW53038   3.600   0.734   3.308  0.1030 -0.0032 -0.0499
17487SOL    HW153039   3.553   0.779   3.237  1.9498 -0.4022 -1.6249
17487SOL    HW253040   3.665   0.681   3.262  0.0759 -1.8097  1.9088
17488SOL     OW53041   3.539   9.965   9.832 -0.0258  0.3165 -0.5121
17488SOL    HW153042   3.444   9.975   9.825 -0.3225 -0.3703  1.6051
17488SOL    HW253043   3.556   9.880   9.791 -0.6178 -0.3541  0.5485
17489SOL     OW53044   3.992   3.751   7.021 -0.0276  0.1425  0.5292
17489SOL    HW153045   4.031   3.665   7.006  1.0199  0.8412 -0.9334
17489SOL    HW253046   3.903   3.744   6.986 -0.2780 -0.6083  1.2837
17490SOL     OW53047   9.702   4.959   6.097 -0.1826 -0.2316  0.0440
17490SOL    HW153048   9.718   5.053   6.101  1.1368 -0.4560  0.6832
17490SOL    HW253049   9.665   4.936   6.182  3.0784 -0.8362  1.4514
17491SOL     OW53050   1.615   2.309   1.245  0.5419 -0.0383  0.0373
17491SOL    HW153051   1.696   2.354   1.269 -0.4979  2.1671 -0.3122
17491SOL    HW253052   1.637   2.259   1.167  1.4798  0.8507 -0.2841
17492SOL     OW53053   7.110   0.744   0.958  0.2630  0.4641 -0.5059
17492SOL    HW153054   7.152   0.659   0.971  1.9464  1.3956  0.4537
17492SOL    HW253055   7.179   0.808   0.972 -1.7190  2.1793  2.6634
17493SOL     OW53056   4.973   5.059   9.176  0.0343 -0.1512 -0.0397
17493SOL    HW153057   5.033   4.994   9.213 -0.4922  0.1755  1.4763
17493SOL    HW253058   5.022   5.142   9.182 -0.3390  0.0235  0.6559
17494SOL     OW53059   4.218   4.042   9.053  0.0458  0.9692  0.1745
17494SOL    HW153060   4.238   4.130   9.021  0.3475 -0.0232 -2.6672
17494SOL    HW253061   4.132   4.023   9.017  1.7931 -1.4818 -3.3359
17495SOL     OW53062   2.590   1.455   9.720 -0.2004  0.3460  0.1500
17495SOL    HW153063   2.509   1.445   9.671  1.0992 -0.1202 -2.0843
17495SOL    HW253064   2.622   1.542   9.698 -1.0567  1.4036  2.7095
17496SOL     OW53065   7.183   0.774   9.716 -0.0466 -0.8435  0.2612
17496SOL    HW153066   7.272   0.762   9.682 -0.4987  2.3734 -2.5916
17496SOL    HW253067   7.195   0.826   9.796  0.6604  1.4402 -1.2441
17497SOL     OW53068   6.532   1.950   2.945  0.0110 -0.1504  0.4890
17497SOL    HW153069   6.487   2.025   2.985 -1.4067 -1.1921  0.9608
17497SOL    HW253070   6.557   1.894   3.019 -0.7453 -1.0849  0.0704
17498SOL     OW53071   1.902   1.412   6.364  0.1486  0.2551  0.3416
17498SOL    HW153072   1.840   1.421   6.291  1.8034  3.3378 -0.9188
17498SOL    HW253073   1.878   1.482   6.424 -0.2318 -1.2949  2.0728
17499SOL     OW53074   2.376   8.284   9.778  0.0366 -0.6231 -0.4497
17499SOL    HW153075   2.460   8.325   9.801 -0.4118 -0.1704  0.4459
17499SOL    HW253076   2.330   8.350   9.726 -0.9921  0.3863  1.6136
17500SOL     OW53077   3.748   7.991   0.550 -0.2508 -0.4554  0.5402
17500SOL    HW153078   3.674   8.006   0.609 -0.7479 -0.3555 -0.0965
17500SOL    HW253079   3.798   7.920   0.592  0.5115  0.9372  2.0765
17501SOL     OW53080   2.159   7.530   8.303  0.2219 -0.0396  0.0945
17501SOL    HW153081   2.210   7.506   8.380  0.0679  1.0778  0.5666
17501SOL    HW253082   2.095   7.459   8.294  3.4262 -2.9657 -2.1121
17502SOL     OW53083   5.978   6.513   9.069 -0.2746  0.4350  0.0383
17502SOL    HW153084   5.916   6.586   9.061  2.0227  2.8810  2.4777
17502SOL    HW253085   5.973   6.487   9.161  0.0164 -1.5841 -0.4584
17503SOL     OW53086   7.978   0.591   2.229 -0.2152 -0.0056  0.7669
17503SOL    HW153087   7.895   0.625   2.197 -0.3475  0.7761  1.8814
17503SOL    HW253088   8.011   0.536   2.158 -0.7272  1.2527 -0.4801
17504SOL     OW53089   8.834   6.460   6.406  0.2309  0.1381  0.1507
17504SOL    HW153090   8.789   6.521   6.465 -0.7987  0.3558 -0.8247
17504SOL    HW253091   8.913   6.507   6.379  0.6298  0.1017  1.1979
17505SOL     OW53092   3.230   9.287   6.166 -0.6670 -0.2446  0.2919
17505SOL    HW153093   3.288   9.275   6.091  0.3451 -1.5634  1.2498
17505SOL    HW253094   3.227   9.381   6.179 -0.5328 -0.0175 -1.1413
17506SOL     OW53095   2.149   0.518   8.422 -0.1595  0.7748  0.8351
17506SOL    HW153096   2.160   0.452   8.354 -0.5912  1.2610  0.2788
17506SOL    HW253097   2.119   0.470   8.499 -0.6590  0.3509  0.3788
17507SOL     OW53098   9.093   2.080   6.808 -0.0212  0.0801  0.2709
17507SOL    HW153099   9.060   2.025   6.737 -0.8545  1.4385 -0.4356
17507SOL    HW253100   9.172   2.121   6.772  0.0241  0.1413  0.4369
17508SOL     OW53101   7.114   9.456   7.898 -0.2587 -0.0048  0.1866
17508SOL    HW153102   7.204   9.428   7.913 -1.0046 -2.2710  0.8663
17508SOL    HW253103   7.104   9.458   7.803  0.9553  2.0071  0.0513
17509SOL     OW53104   6.339   6.934   7.162  0.3466 -0.0676 -0.2152
17509SOL    HW153105   6.283   6.931   7.085  0.4318  0.7365 -0.3153
17509SOL    HW253106   6.279   6.947   7.235  0.1354 -2.0622  0.0333
17510SOL     OW53107   4.222   4.454   6.820 -0.2329  0.1066  0.1927
17510SOL    HW153108   4.284   4.439   6.749  2.6108  2.2285  1.9581
17510SOL    HW253109   4.187   4.541   6.803  0.6879  0.7574  1.4160
17511SOL     OW53110   0.204   0.081   2.267 -0.1663 -0.4666  0.0103
17511SOL    HW153111   0.289   0.124   2.263 -0.2183 -0.2740  0.7775
17511SOL    HW253112   0.193   0.057   2.359 -1.8770  1.4743  0.4006
17512SOL     OW53113   8.213   4.819   4.830 -0.0389 -0.6403  0.2028
17512SOL    HW153114   8.186   4.776   4.911  0.1719  0.5765  0.9339
17512SOL    HW253115   8.133   4.857   4.794  0.3884  1.9922  1.7868
17513SOL     OW53116   8.252   4.055   9.474 -0.3062 -0.3330  0.2067
17513SOL    HW153117   8.286   3.978   9.519 -1.0841 -0.5363  0.4601
17513SOL    HW253118   8.166   4.070   9.513 -0.5455  0.1227 -0.4724
17514SOL     OW53119   5.943   6.803   2.623 -0.1732 -0.0092  0.3300
17514SOL    HW153120   6.021   6.789   2.677 -0.6048 -1.4965  0.6262
17514SOL    HW253121   5.871   6.772   2.677 -0.5758 -1.9555 -1.2129
17515SOL     OW53122   5.972   0.474   7.451 -0.1965  0.0219  0.0663
17515SOL    HW153123   5.940   0.563   7.437  0.0933  0.0881 -0.1988
17515SOL    HW253124   5.925   0.443   7.527 -0.4327  0.3399  0.0504
17516SOL     OW53125   8.663   4.029   5.029 -0.4381 -0.1474  0.1434
17516SOL    HW153126   8.593   4.051   4.967  1.6200  1.8755 -1.6305
17516SOL    HW253127   8.684   3.937   5.010 -0.7143  0.0638 -1.2906
17517SOL     OW53128   1.228   7.501   7.796  0.0985 -0.1768 -0.4665
17517SOL    HW153129   1.267   7.504   7.709 -0.7182  2.2026 -0.8178
17517SOL    HW253130   1.293   7.541   7.853  0.4747 -1.3934 -0.0020
17518SOL     OW53131   9.011   0.541   2.934  0.1365 -0.4971 -0.1982
17518SOL    HW153132   9.050   0.615   2.889  3.9268 -1.4134  1.1577
17518SOL    HW253133   9.043   0.464   2.888  1.1137 -1.3579  1.7782
17519SOL     OW53134   7.277   7.054   8.998 -0.4100 -0.1231  0.2134
17519SOL    HW153135   7.357   7.024   9.042  0.9969  0.0206 -2.0593
17519SOL    HW253136   7.211   7.057   9.067  2.0399  1.8501  2.6906
17520SOL     OW53137   3.869   5.559   2.305  0.9830 -0.4140 -0.2816
17520SOL    HW153138   3.821   5.641   2.304  0.8170 -0.5096 -0.6971
17520SOL    HW253139   3.873   5.533   2.397  0.6017 -0.1939 -0.2017
17521SOL     OW53140   4.287   9.255   8.307  0.1303 -0.1312 -0.1098
17521SOL    HW153141   4.210   9.303   8.339  0.7582 -0.0572  1.3738
17521SOL    HW253142   4.259   9.218   8.223 -0.5975  2.2285 -1.0051
17522SOL     OW53143   3.415   8.817   6.366  0.2930 -0.6296 -0.5598
17522SOL    HW153144   3.350   8.871   6.411  0.2365 -0.9930 -0.2035
17522SOL    HW253145   3.403   8.729   6.401 -0.2212 -1.0731 -1.7817
17523SOL     OW53146   3.945   3.696   4.808  0.0109  0.0426  0.1901
17523SOL    HW153147   3.976   3.704   4.898  0.1847 -0.7013  0.2009
17523SOL    HW253148   3.883   3.623   4.810 -2.4634  1.9701  0.3518
17524SOL     OW53149   3.188   9.066   6.326  0.4884 -0.2930 -0.2253
17524SOL    HW153150   3.203   9.145   6.274 -1.1434 -0.3586 -0.8432
17524SOL    HW253151   3.099   9.076   6.360  1.1343 -0.7393  1.7382
17525SOL     OW53152   1.591   6.884   9.240  0.2763  0.2336 -0.1310
17525SOL    HW153153   1.511   6.907   9.288  0.0327  0.9831 -0.8738
17525SOL    HW253154   1.584   6.933   9.158  1.4218  0.1791 -0.2694
17526SOL     OW53155   0.576   9.193   4.618 -0.3438  1.0111 -0.2982
17526SOL    HW153156   0.571   9.272   4.671  0.4155  1.3483 -0.7037
17526SOL    HW253157   0.503   9.201   4.556 -1.8083  0.1690  1.2330
17527SOL     OW53158   5.638   3.076   9.507  0.0343  0.0218 -0.4948
17527SOL    HW153159   5.645   3.057   9.413  0.7806 -2.3275 -0.0282
17527SOL    HW253160   5.728   3.088   9.536 -0.1187 -0.1333  0.0673
17528SOL     OW53161   6.760   5.245   9.576 -0.8083 -0.1678  0.4434
17528SOL    HW153162   6.772   5.333   9.540  0.5417 -0.2681  0.6073
17528SOL    HW253163   6.780   5.254   9.669  1.3392 -1.0203  0.1073
17529SOL     OW53164   6.213   7.935   6.670 -0.1287 -0.2591 -0.4491
17529SOL    HW153165   6.258   7.859   6.707 -0.9454 -1.2653 -1.4347
17529SOL    HW253166   6.121   7.920   6.689 -0.2129  1.0494  0.2879
17530SOL     OW53167   5.835   2.823   0.682  0.1148  0.1979 -0.2040
17530SOL    HW153168   5.800   2.782   0.603 -0.1254 -0.4699  0.2315
17530SOL    HW253169   5.806   2.765   0.753  0.0691  0.9485  0.3980
17531SOL     OW53170   1.825   8.752   5.040  0.2131  0.7903  0.2202
17531SOL    HW153171   1.905   8.759   4.988 -0.8468  2.2397 -1.3016
17531SOL    HW253172   1.832   8.821   5.106 -0.1631  1.5162 -0.4868
17532SOL     OW53173   7.439   3.766   6.683 -0.2530 -0.0265 -0.1845
17532SOL    HW153174   7.529   3.800   6.688  0.7391 -2.4019 -0.5860
17532SOL    HW253175   7.386   3.842   6.661  1.8007  1.2683 -0.9376
17533SOL     OW53176   4.061   3.326   3.550 -0.1742  0.1957 -0.0069
17533SOL    HW153177   4.030   3.404   3.596  0.6392 -0.1020  1.0766
17533SOL    HW253178   4.067   3.353   3.458  1.9477  2.0261  0.5943
17534SOL     OW53179   5.447   9.117   4.208  0.2777  0.3144 -0.4263
17534SOL    HW153180   5.481   9.135   4.296  0.8537 -1.0752 -0.3356
17534SOL    HW253181   5.488   9.034   4.184  0.4541  0.8870 -2.1873
17535SOL     OW53182   5.980   0.871   8.193  0.2267 -0.0802 -0.1258
17535SOL    HW153183   6.062   0.901   8.154  0.5424 -2.1180 -1.1531
17535SOL    HW253184   5.921   0.946   8.186  1.6746  1.0785 -0.3311
17536SOL     OW53185   7.539   9.620   9.433 -0.1077 -0.3059 -0.3018
17536SOL    HW153186   7.508   9.567   9.359 -2.1330  1.6811 -1.0350
17536SOL    HW253187   7.458   9.647   9.477  1.0131 -0.3661  1.8966
17537SOL     OW53188   8.096   4.900   6.471 -0.1985 -0.1666 -0.2137
17537SOL    HW153189   8.182   4.881   6.511 -0.3140 -0.1675  0.0384
17537SOL    HW253190   8.048   4.946   6.540 -1.4356 -2.6646  0.7440
17538SOL     OW53191   0.073   1.416   9.670  0.0008  0.4208 -0.6522
17538SOL    HW153192   0.014   1.436   9.598 -0.8210 -0.1315 -0.1426
17538SOL    HW253193   0.021   1.428   9.749  1.1784  2.0244 -0.0718
17539SOL     OW53194   2.053   2.473   3.984 -0.1728 -0.1807 -0.2048
17539SOL    HW153195   2.139   2.434   4.003  1.2576  1.6788 -2.4243
17539SOL    HW253196   2.069   2.567   3.982 -3.0307  0.5189  2.5926
17540SOL     OW53197   2.786   9.482   6.596  0.2074 -0.5577  0.2512
17540SOL    HW153198   2.786   9.577   6.587 -2.0538 -0.5154  0.1088
17540SOL    HW253199   2.750   9.450   6.513 -1.6403 -1.3436  1.3066
17541SOL     OW53200   2.967   9.835   5.024 -0.0615 -0.1770  0.2987
17541SOL    HW153201   2.979   9.757   4.971  0.3368 -0.6227  1.0340
17541SOL    HW253202   2.884   9.873   4.993 -1.0833 -1.7400  0.9782
17542SOL     OW53203   4.274   1.001   2.275  0.0611  0.6980 -0.0727
17542SOL    HW153204   4.245   0.966   2.191  1.8179 -0.2821 -0.3340
17542SOL    HW253205   4.228   1.085   2.284  0.1200  1.0116 -2.1814
17543SOL     OW53206   7.559   3.436   3.074  0.0580  0.6274  0.2339
17543SOL    HW153207   7.567   3.400   2.986  0.8476  0.6462  0.2986
17543SOL    HW253208   7.632   3.399   3.122 -0.6066  0.2763  1.0069
17544SOL     OW53209   8.246   6.267   0.267  0.7412  0.6651 -0.9049
17544SOL    HW153210   8.331   6.257   0.225  1.5925  1.7622  0.4412
17544SOL    HW253211   8.204   6.339   0.220  0.5937  0.2009 -1.4952
17545SOL     OW53212   1.210   5.829   1.289  0.0156  0.3890  0.1858
17545SOL    HW153213   1.164   5.776   1.225  0.7024 -0.4962  0.4134
17545SOL    HW253214   1.155   5.827   1.367  0.1401 -0.1549  0.2581
17546SOL     OW53215   6.279   8.410   8.821 -0.3796 -0.6835  0.2861
17546SOL    HW153216   6.204   8.412   8.880  0.1552 -1.7533  1.0456
17546SOL    HW253217   6.335   8.341   8.856 -0.5399 -2.1340 -2.1183
17547SOL     OW53218   8.432   3.209   4.246 -0.1530 -0.0990 -0.0011
17547SOL    HW153219   8.483   3.220   4.326  0.2532 -0.7581 -0.1638
17547SOL    HW253220   8.457   3.123   4.213  0.4112  0.5554 -1.3604
17548SOL     OW53221   6.375   3.170   3.345  0.4299 -0.2346  0.2583
17548SOL    HW153222   6.316   3.135   3.280  0.5250  0.3162 -0.1303
17548SOL    HW253223   6.324   3.171   3.426  0.2115 -0.6217  0.1270
17549SOL     OW53224   3.587   7.050   7.131 -0.3812 -0.8799  0.1252
17549SOL    HW153225   3.656   7.043   7.197 -0.6049  2.1807  0.8259
17549SOL    HW253226   3.635   7.052   7.048  0.3136  0.0008  0.5248
17550SOL     OW53227   4.846   6.257   2.873 -0.3678  0.8017 -0.3811
17550SOL    HW153228   4.877   6.263   2.963 -0.7289  0.7082 -0.2467
17550SOL    HW253229   4.880   6.174   2.841  0.3012  1.1309 -0.5446
17551SOL     OW53230   5.092   3.259   9.322 -0.4747 -0.0248  0.6046
17551SOL    HW153231   5.144   3.181   9.304 -2.9313 -1.4773 -0.5851
17551SOL    HW253232   5.099   3.312   9.242  1.4515  1.2357  1.5251
17552SOL     OW53233   3.820   0.555   0.899 -0.5044  0.2829 -0.0842
17552SOL    HW153234   3.885   0.491   0.929 -0.2272  0.7260  0.2699
17552SOL    HW253235   3.810   0.537   0.805 -0.5087 -0.3449  0.0280
17553SOL     OW53236   2.296   5.996   6.414  0.0984  0.0747 -0.1394
17553SOL    HW153237   2.366   5.964   6.472 -2.1464 -5.6526  0.0462
17553SOL    HW253238   2.325   5.970   6.326 -0.8153 -0.4707 -0.2883
17554SOL     OW53239   8.371   1.071   7.163 -0.4416 -0.2676  0.9573
17554SOL    HW153240   8.289   1.027   7.141 -0.1135 -0.7269  0.6437
17554SOL    HW253241   8.436   1.002   7.165  0.2438  0.2925 -0.3531
17555SOL     OW53242   1.067   5.315   8.481 -0.8861  0.7346  0.5482
17555SOL    HW153243   1.107   5.327   8.567 -1.9158  3.0510  0.7701
17555SOL    HW253244   1.068   5.220   8.468  2.5786  0.5009  1.4806
17556SOL     OW53245   1.067   9.190   2.588 -0.7194 -0.6420  0.4497
17556SOL    HW153246   1.031   9.108   2.553 -1.0575  0.2377 -1.4078
17556SOL    HW253247   1.000   9.255   2.569  0.6243  0.5231 -0.5268
17557SOL     OW53248   1.864   8.184   9.871 -0.3565  0.0332  0.2992
17557SOL    HW153249   1.876   8.089   9.863 -2.0021 -0.2602  0.9263
17557SOL    HW253250   1.791   8.204   9.813 -0.0778  0.9093  0.2353
17558SOL     OW53251   3.302   8.190   4.297 -0.0775  0.4090 -0.4575
17558SOL    HW153252   3.323   8.156   4.384 -1.8799 -2.1190 -0.9114
17558SOL    HW253253   3.299   8.285   4.309  0.3001  0.1738  2.0763
17559SOL     OW53254   3.588   5.838   1.734 -0.6142 -0.3695 -0.4857
17559SOL    HW153255   3.644   5.761   1.734  0.0874  0.1185  0.4035
17559SOL    HW253256   3.598   5.876   1.821 -1.5166  0.3236 -0.6557
17560SOL     OW53257   4.291   0.531   3.918 -0.3810  0.1470  0.3126
17560SOL    HW153258   4.209   0.481   3.926  0.0982 -0.9849 -1.2589
17560SOL    HW253259   4.355   0.466   3.890  1.0819  1.0201  1.4771
17561SOL     OW53260   5.633   3.450   0.919  0.1320  0.3680 -0.3797
17561SOL    HW153261   5.664   3.362   0.941  0.9183  0.9146  0.8483
17561SOL    HW253262   5.675   3.471   0.836  0.8531  0.0095 -0.1144
17562SOL     OW53263   7.065   2.365   8.038  0.7877 -0.0890  0.3298
17562SOL    HW153264   7.110   2.441   8.002  1.2717 -0.8209 -0.6606
17562SOL    HW253265   7.004   2.401   8.101 -0.0007  1.2606 -1.1327
17563SOL     OW53266   2.721   2.656   2.408 -0.1747 -0.2822 -0.2639
17563SOL    HW153267   2.811   2.689   2.411 -0.5989  1.2272 -2.2384
17563SOL    HW253268   2.715   2.598   2.484  2.5522 -0.7116 -0.2564
17564SOL     OW53269   7.710   0.499   8.087 -0.0952  0.3581 -0.0660
17564SOL    HW153270   7.743   0.506   7.997 -2.7527 -1.8778 -1.3945
17564SOL    HW253271   7.648   0.572   8.095  0.5867  0.9135  0.1805
17565SOL     OW53272   9.728   4.013   9.111 -0.4524  0.7611  0.6555
17565SOL    HW153273   9.651   3.974   9.069 -0.9346  1.9998  0.3428
17565SOL    HW253274   9.694   4.091   9.154  0.4288  0.6642  1.5502
17566SOL     OW53275   4.663   2.595   3.283  0.0132  0.6322 -0.0613
17566SOL    HW153276   4.677   2.520   3.226 -0.9681 -0.6878  1.3588
17566SOL    HW253277   4.646   2.668   3.224  1.9405 -0.0184 -1.5068
17567SOL     OW53278   2.525   7.831   2.042  0.3972  0.5211 -0.0263
17567SOL    HW153279   2.513   7.748   1.995 -0.4255 -0.9302  2.5138
17567SOL    HW253280   2.437   7.867   2.049  0.6507  1.2294 -0.4599
17568SOL     OW53281   6.021   3.210   1.890 -0.2401 -0.1126 -0.0486
17568SOL    HW153282   5.930   3.181   1.899 -0.2137  0.0815  1.0308
17568SOL    HW253283   6.070   3.130   1.869 -0.2551 -0.8346  2.3485
17569SOL     OW53284   9.383   7.795   6.508 -0.2895  0.7510  0.0047
17569SOL    HW153285   9.288   7.803   6.499 -0.4543 -0.9970 -0.2669
17569SOL    HW253286   9.396   7.774   6.601 -0.3288 -0.4263 -0.2339
17570SOL     OW53287   6.062   0.163   1.347 -0.0005 -0.8017 -0.2977
17570SOL    HW153288   6.002   0.237   1.357  0.2680 -0.8152  2.0627
17570SOL    HW253289   6.010   0.094   1.306 -1.2594 -0.4062  0.5995
17571SOL     OW53290   8.068   4.357   8.729 -0.0213 -0.1391  0.5157
17571SOL    HW153291   8.120   4.301   8.671 -1.0436 -1.6081  0.9593
17571SOL    HW253292   8.091   4.329   8.817 -2.5724 -1.9313  0.7319
17572SOL     OW53293   3.494   6.505   0.354 -0.4674  0.0612  0.3839
17572SOL    HW153294   3.490   6.526   0.447  0.4031  1.3151  0.1646
17572SOL    HW253295   3.405   6.517   0.321 -0.6644  0.1231  0.9434
17573SOL     OW53296   9.419   4.626   6.509  0.2180 -0.1406 -0.3794
17573SOL    HW153297   9.373   4.696   6.554  0.4109  0.3798 -0.9662
17573SOL    HW253298   9.355   4.591   6.446 -0.0580 -0.8770  0.2940
17574SOL     OW53299   3.158   0.167   9.003  0.3532 -0.1462 -0.1880
17574SOL    HW153300   3.160   0.257   9.037 -1.8469  0.4887 -1.4844
17574SOL    HW253301   3.246   0.134   9.017  1.9765  3.0043 -1.6539
17575SOL     OW53302   6.386   8.556   9.079  0.4214  0.0854  0.1878
17575SOL    HW153303   6.319   8.562   9.011 -0.3067  0.8170  0.9334
17575SOL    HW253304   6.408   8.647   9.099  1.1452 -0.1380  0.4363
17576SOL     OW53305   3.887   7.459   0.926 -0.4334 -0.0337 -0.0272
17576SOL    HW153306   3.839   7.413   0.995  2.8279 -1.8368  1.3136
17576SOL    HW253307   3.972   7.478   0.966  1.0160  0.3702 -3.0262
17577SOL     OW53308   6.783   0.756   9.940  0.7948 -0.6083  0.3502
17577SOL    HW153309   6.865   0.804   9.925  1.7501 -1.8591  1.3517
17577SOL    HW253310   6.809   0.679   9.990 -1.2562 -0.1814  2.2081
17578SOL     OW53311   4.102   5.824   6.058 -0.9417  0.2085 -0.3725
17578SOL    HW153312   4.087   5.731   6.073  0.1173 -0.1422 -1.3311
17578SOL    HW253313   4.142   5.856   6.139 -1.8622 -0.0170  0.1865
17579SOL     OW53314   4.189   4.012   4.734 -0.1480  0.4486 -0.3028
17579SOL    HW153315   4.181   3.974   4.646 -2.7584  1.0555 -0.4175
17579SOL    HW253316   4.254   4.081   4.725  2.0540 -1.5970 -0.9253
17580SOL     OW53317   8.216   7.453   1.986  0.2829 -0.4072 -0.2257
17580SOL    HW153318   8.281   7.410   1.930 -0.8007 -1.6529 -0.5978
17580SOL    HW253319   8.145   7.477   1.925  0.2867  0.7341  0.1984
17581SOL     OW53320   6.294   8.625   5.286 -0.1251  0.0425 -0.1058
17581SOL    HW153321   6.284   8.573   5.365 -2.6253  1.0709  0.3357
17581SOL    HW253322   6.336   8.705   5.316  0.1342 -0.1062 -0.0694
17582SOL     OW53323   6.813   3.730   7.734  0.1464  0.1280 -0.5329
17582SOL    HW153324   6.772   3.802   7.781 -0.5547 -0.7523  0.2433
17582SOL    HW253325   6.754   3.656   7.748  0.0661 -0.2581 -2.5407
17583SOL     OW53326   4.922   8.353   9.454 -0.3103 -1.0074 -0.3639
17583SOL    HW153327   5.014   8.331   9.439 -0.1206 -0.3890 -0.1287
17583SOL    HW253328   4.921   8.397   9.539 -0.7042 -0.2951 -0.7233
17584SOL     OW53329   7.124   5.720   8.189  0.4035  0.0734  0.1474
17584SOL    HW153330   7.057   5.684   8.246  1.2130  0.0352  1.1158
17584SOL    HW253331   7.206   5.706   8.236  0.9657  1.2771 -0.4019
17585SOL     OW53332   2.428   6.149   1.285  0.0303 -0.2405 -0.2007
17585SOL    HW153333   2.340   6.139   1.324 -0.8517  0.9620 -1.7732
17585SOL    HW253334   2.451   6.240   1.301  1.2400 -0.6731  0.6251
17586SOL     OW53335   8.357   2.177   0.725  0.4856  0.1836  0.5189
17586SOL    HW153336   8.395   2.106   0.673 -0.8815 -1.4367  1.6261
17586SOL    HW253337   8.277   2.202   0.679  0.0297 -0.2606  1.0468
17587SOL     OW53338   5.493   7.811   3.859  0.0545 -1.1668  0.3182
17587SOL    HW153339   5.574   7.766   3.836 -2.1165 -3.3549 -4.3924
17587SOL    HW253340   5.437   7.743   3.897 -0.7424 -0.5857  0.2213
17588SOL     OW53341   3.118   1.150   3.291 -0.3955 -0.2106  0.0318
17588SOL    HW153342   3.189   1.087   3.301 -0.7600 -1.0585 -2.0899
17588SOL    HW253343   3.152   1.231   3.331  2.0471 -0.3900 -1.4590
17589SOL     OW53344   0.892   2.032   1.845  0.4411 -0.2749  0.0828
17589SOL    HW153345   0.904   2.069   1.758  1.6986 -2.0284 -0.5356
17589SOL    HW253346   0.845   2.100   1.894  2.7984  2.2328 -0.9061
17590SOL     OW53347   1.153   4.554   1.917 -0.2261  0.5428 -0.8453
17590SOL    HW153348   1.213   4.537   1.844 -0.0765  0.7561 -0.7716
17590SOL    HW253349   1.208   4.545   1.995  0.5039  3.8326 -0.8495
17591SOL     OW53350   0.664   7.670   9.535 -0.1648  0.3349 -0.4540
17591SOL    HW153351   0.684   7.580   9.511  1.3401  0.1296  1.3535
17591SOL    HW253352   0.749   7.714   9.537 -0.3760  0.7911  2.3144
17592SOL     OW53353   6.315   8.318   9.212  0.1494  0.0596 -0.3851
17592SOL    HW153354   6.246   8.271   9.166  0.0191  0.0725 -0.2067
17592SOL    HW253355   6.329   8.398   9.162  0.3090 -0.1295 -0.6412
17593SOL     OW53356   3.521   0.908   1.161 -0.5112  0.1947  0.1298
17593SOL    HW153357   3.541   0.885   1.251 -0.3513 -0.5665 -0.0963
17593SOL    HW253358   3.425   0.912   1.158 -0.5124  2.4658  0.8676
17594SOL     OW53359   6.511   1.290   7.762  0.2316 -0.0904 -0.0162
17594SOL    HW153360   6.539   1.335   7.842 -0.4682 -0.3932  0.4142
17594SOL    HW253361   6.527   1.198   7.780 -2.6063 -0.5032  0.9934
17595SOL     OW53362   8.105   6.899   0.814 -0.0937  0.1542 -0.2437
17595SOL    HW153363   8.016   6.870   0.796 -0.5752  1.2031  0.3609
17595SOL    HW253364   8.095   6.974   0.873  1.0992  1.1919 -1.2780
17596SOL     OW53365   1.302   3.513   8.792  0.2222  0.2098  0.1078
17596SOL    HW153366   1.333   3.547   8.876  0.9546 -0.4407  0.1195
17596SOL    HW253367   1.297   3.418   8.806 -2.2141  0.3167  0.2319
17597SOL     OW53368   7.396   0.869   4.603 -0.0475 -0.4734  0.7355
17597SOL    HW153369   7.449   0.850   4.526 -0.1950  1.1698  0.1794
17597SOL    HW253370   7.383   0.784   4.646  1.8655 -1.1178  0.1447
17598SOL     OW53371   2.804   3.070   6.339 -0.0998  0.2508 -0.5874
17598SOL    HW153372   2.841   3.122   6.411  0.1679 -0.4668 -0.1986
17598SOL    HW253373   2.775   2.989   6.380 -0.6872  0.1616 -1.1587
17599SOL     OW53374   4.641   9.706   1.431  0.5676 -0.4358  0.1663
17599SOL    HW153375   4.714   9.649   1.454  0.5107  0.0992  1.7641
17599SOL    HW253376   4.683   9.787   1.401  0.6336 -0.4536  0.2123
17600SOL     OW53377   9.756   7.999   3.234 -0.1927  0.3585 -0.2176
17600SOL    HW153378   9.841   7.965   3.209  0.6270  1.9539  0.2365
17600SOL    HW253379   9.711   7.926   3.276  0.3952 -0.8880 -1.6738
17601SOL     OW53380   2.687   1.534   3.061 -0.4723 -0.5573  0.5704
17601SOL    HW153381   2.613   1.476   3.077 -0.4301 -0.7400  0.1180
17601SOL    HW253382   2.762   1.475   3.053 -0.4219 -0.4380  0.1500
17602SOL     OW53383   1.660   9.209   2.461 -0.0827  0.4070  0.5591
17602SOL    HW153384   1.590   9.191   2.398  1.2442 -2.0486 -0.3151
17602SOL    HW253385   1.686   9.299   2.443 -3.3794  1.6646  1.3609
17603SOL     OW53386   5.680   0.320   8.167  0.0897 -0.1737 -0.3175
17603SOL    HW153387   5.668   0.294   8.076  3.0521  0.4493 -0.9909
17603SOL    HW253388   5.645   0.410   8.170 -0.3965 -0.3410 -0.7231
17604SOL     OW53389   7.273   9.897   5.800 -0.4261 -0.1229  0.2515
17604SOL    HW153390   7.216   9.961   5.843 -1.2928 -0.5708 -0.2103
17604SOL    HW253391   7.289   9.935   5.713 -3.4084 -1.8453 -1.1968
17605SOL     OW53392   5.743   4.833   1.396  0.2324  0.0934 -0.3220
17605SOL    HW153393   5.820   4.789   1.430 -0.7332 -1.8548 -0.5291
17605SOL    HW253394   5.728   4.794   1.310 -1.0991  0.2749 -0.1998
17606SOL     OW53395   9.872   1.918  -0.019 -0.4368  0.7162 -0.5256
17606SOL    HW153396   9.928   1.969   0.039  2.3961 -1.0880 -1.4819
17606SOL    HW253397   9.805   1.881   0.039  0.7901  0.9746  1.1285
17607SOL     OW53398   8.861   7.466   0.709  0.2085 -0.1819 -0.2906
17607SOL    HW153399   8.895   7.395   0.763 -1.7413  0.4835  2.0163
17607SOL    HW253400   8.910   7.543   0.738  0.0092 -0.0288 -0.3574
17608SOL     OW53401   3.382   2.661   1.256 -0.0734 -0.0491  0.9486
17608SOL    HW153402   3.400   2.734   1.315 -0.1751  0.6187  0.1718
17608SOL    HW253403   3.446   2.671   1.185  0.3794 -1.1250  1.1863
17609SOL     OW53404   0.116   9.029   8.396 -0.0977  0.0439  0.4149
17609SOL    HW153405   0.048   9.037   8.463 -1.0846 -0.6830 -0.4646
17609SOL    HW253406   0.163   9.112   8.398 -0.9085  0.4914  1.1597
17610SOL     OW53407   0.906   0.198   2.283 -0.5942 -0.0630  0.5962
17610SOL    HW153408   0.978   0.247   2.323 -1.0935  0.2354  1.1311
17610SOL    HW253409   0.904   0.228   2.192 -1.9210  2.1433  1.2790
17611SOL     OW53410   8.592   6.190   7.350  0.1387  0.2941 -0.3815
17611SOL    HW153411   8.539   6.261   7.313  1.3250  1.3549 -0.1438
17611SOL    HW253412   8.587   6.120   7.285 -1.8698  0.1709 -0.1676
17612SOL     OW53413   8.168   6.767   9.347  0.5973  0.3057  0.0073
17612SOL    HW153414   8.154   6.673   9.346 -1.0364  0.5118  1.0989
17612SOL    HW253415   8.215   6.783   9.429  0.0733  0.5370  0.2648
17613SOL     OW53416   6.336   9.361   9.932 -0.2815  0.0581 -0.5093
17613SOL    HW153417   6.401   9.301   9.970  1.0151  1.2583 -0.7728
17613SOL    HW253418   6.283   9.390  10.006  1.5501  1.5514  0.2913
17614SOL     OW53419   8.582   4.160   6.757 -0.0113  0.1492  0.5662
17614SOL    HW153420   8.588   4.190   6.848  0.8771  0.6400  0.3515
17614SOL    HW253421   8.596   4.065   6.763 -0.0167  0.1684  0.9391
17615SOL     OW53422   8.878   6.580   8.348 -0.3367  0.1349 -0.1538
17615SOL    HW153423   8.789   6.547   8.355 -0.4478  0.5012  0.2664
17615SOL    HW253424   8.900   6.608   8.437  0.9148 -1.7259  0.1644
17616SOL     OW53425   2.448   7.687   4.402  0.7811 -0.3263 -0.2437
17616SOL    HW153426   2.487   7.654   4.483  2.2344 -1.2240 -1.2540
17616SOL    HW253427   2.521   7.728   4.355 -0.0843  0.4097 -1.0039
17617SOL     OW53428   5.194   6.307   0.499 -0.0840  0.1252  0.6696
17617SOL    HW153429   5.125   6.369   0.523 -1.4507 -0.2842 -1.9086
17617SOL    HW253430   5.199   6.247   0.574 -0.9367  1.4556  1.8471
17618SOL     OW53431   2.799   2.260   4.774 -0.4621  0.0669  0.5149
17618SOL    HW153432   2.825   2.178   4.731  0.1994  0.7097 -0.3566
17618SOL    HW253433   2.798   2.239   4.867 -2.8678 -1.6452  0.1921
17619SOL     OW53434   8.068   9.226   9.199  0.1851 -0.1685 -0.2194
17619SOL    HW153435   8.047   9.294   9.135 -1.7263 -0.9648 -0.5241
17619SOL    HW253436   8.041   9.264   9.283 -0.1976 -0.2606 -0.2974
17620SOL     OW53437   7.000   2.278   1.986  0.7499  0.1428  0.5924
17620SOL    HW153438   6.963   2.200   2.027  1.7920 -1.1470 -0.8009
17620SOL    HW253439   6.927   2.317   1.938  0.3176 -0.2496  0.9277
17621SOL     OW53440   5.659   8.231   3.235  0.4639  0.6049  1.0649
17621SOL    HW153441   5.705   8.157   3.275 -0.5694 -1.2972 -1.0156
17621SOL    HW253442   5.567   8.215   3.255  0.1548  0.8658 -0.0894
17622SOL     OW53443   2.310   8.209   2.604  0.1542 -0.0963  0.1924
17622SOL    HW153444   2.354   8.292   2.624 -1.6457  0.9055  0.2866
17622SOL    HW253445   2.264   8.226   2.522  1.2597 -1.6630 -0.8049
17623SOL     OW53446   2.021   6.053   7.444 -0.3741 -0.3206  0.2229
17623SOL    HW153447   2.045   5.969   7.405 -0.1513 -0.4670  0.6658
17623SOL    HW253448   1.969   6.030   7.521 -1.8023 -0.0079 -0.6128
17624SOL     OW53449   0.698   2.642   8.454 -1.0831  0.1824  0.2963
17624SOL    HW153450   0.729   2.589   8.381 -1.1286 -1.6359  1.5202
17624SOL    HW253451   0.711   2.732   8.426 -0.0605 -0.4725 -1.4927
17625SOL     OW53452   4.790   2.116   9.235 -0.6112  0.6515 -0.4329
17625SOL    HW153453   4.702   2.138   9.265 -0.5606  1.4024 -0.7995
17625SOL    HW253454   4.806   2.175   9.161 -1.0568 -1.6646 -2.5237
17626SOL     OW53455   2.822   7.866   4.811  0.6406  0.3565 -0.1361
17626SOL    HW153456   2.889   7.853   4.878  0.2604  0.4900  0.2746
17626SOL    HW253457   2.863   7.838   4.729  0.6146 -1.2426  0.3727
17627SOL     OW53458   8.949   2.446   0.157  0.5681  0.0580  0.3528
17627SOL    HW153459   8.926   2.463   0.065  0.3856  0.0010  0.3863
17627SOL    HW253460   8.895   2.507   0.207  0.8514  0.2628  0.4132
17628SOL     OW53461   7.664   5.608   3.404 -0.2811 -0.0092 -0.2242
17628SOL    HW153462   7.712   5.544   3.351  0.4225  0.5427 -0.2655
17628SOL    HW253463   7.683   5.583   3.495 -0.8749 -0.4948 -0.2240
17629SOL     OW53464   7.678   2.925   1.885  0.3905 -0.0669 -0.3503
17629SOL    HW153465   7.615   2.955   1.819 -2.6079 -3.1959  0.7755
17629SOL    HW253466   7.635   2.943   1.969  1.9104 -0.5660  0.5621
17630SOL     OW53467   7.784   3.411   7.581 -0.9487 -0.6331 -0.1492
17630SOL    HW153468   7.799   3.325   7.542 -1.3477 -0.3536 -0.9524
17630SOL    HW253469   7.864   3.461   7.560 -0.8237 -0.7304  0.0953
17631SOL     OW53470   9.154   9.197   0.871 -0.5031  0.2069 -0.5321
17631SOL    HW153471   9.121   9.286   0.862 -2.5187 -0.4418  0.0185
17631SOL    HW253472   9.126   9.152   0.791 -1.0178 -0.3637 -0.0468
17632SOL     OW53473   2.361   5.393   9.853 -0.0695 -0.3054 -0.5843
17632SOL    HW153474   2.432   5.337   9.821  2.6920  2.0487  0.8489
17632SOL    HW253475   2.353   5.370   9.946 -1.2295 -0.5835 -0.7485
17633SOL     OW53476   4.222   5.452   6.157  0.2906 -0.1566  0.6175
17633SOL    HW153477   4.242   5.545   6.147  0.5652  0.0623  2.6092
17633SOL    HW253478   4.303   5.414   6.193 -0.5239 -0.6645  2.0258
17634SOL     OW53479   2.377   6.177   0.322  0.0119  0.2152  0.0689
17634SOL    HW153480   2.368   6.252   0.381 -0.9377  0.0762  0.1079
17634SOL    HW253481   2.290   6.137   0.320  0.9076 -2.0806  1.6260
17635SOL     OW53482   8.400   8.564   0.865  0.1385  0.3533 -1.0572
17635SOL    HW153483   8.333   8.500   0.842  0.7975 -1.0607  0.7485
17635SOL    HW253484   8.421   8.608   0.782 -0.1108 -1.9919 -2.4459
17636SOL     OW53485   9.487   4.903   1.945 -0.3543 -0.0711  0.1528
17636SOL    HW153486   9.484   4.893   2.040 -1.1958 -0.6154  0.0858
17636SOL    HW253487   9.487   4.813   1.912 -1.0050  0.1194 -0.3780
17637SOL     OW53488   4.958   2.365   7.366  0.4120 -0.6970  0.0890
17637SOL    HW153489   4.994   2.444   7.325 -4.8546  2.0148 -0.0998
17637SOL    HW253490   4.930   2.311   7.292 -3.0231  1.1133 -0.1273
17638SOL     OW53491   6.803   8.466   7.840  0.5023 -0.3535 -0.1014
17638SOL    HW153492   6.773   8.552   7.870 -0.3455 -1.2124  1.7133
17638SOL    HW253493   6.836   8.481   7.752 -0.5265  1.6471 -0.1996
17639SOL     OW53494   8.625   8.790   3.820 -0.9478  0.0924  0.3645
17639SOL    HW153495   8.547   8.832   3.782 -2.3058 -1.5850  1.1348
17639SOL    HW253496   8.646   8.844   3.896 -0.9256  0.9413 -0.2197
17640SOL     OW53497   1.823   0.041   4.961 -0.0963  0.2464  0.2172
17640SOL    HW153498   1.838  -0.008   4.880 -0.6693 -1.7017  1.2403
17640SOL    HW253499   1.731   0.025   4.982 -0.2360  1.5970  0.7219
17641SOL     OW53500   7.370   8.941   7.910  0.1593 -1.3298 -0.4675
17641SOL    HW153501   7.359   9.029   7.946  0.5370 -2.0216  1.5043
17641SOL    HW253502   7.465   8.931   7.901  0.0706 -1.1213 -1.8995
17642SOL     OW53503   3.430   0.876   6.950  0.0744  0.2309  0.2667
17642SOL    HW153504   3.468   0.821   7.018 -1.4633 -0.2072  0.8335
17642SOL    HW253505   3.499   0.938   6.926  1.7458 -1.6606 -0.1121
17643SOL     OW53506   1.888   6.526   8.034  0.1200  0.0838  0.4362
17643SOL    HW153507   1.942   6.492   7.963  0.7485  0.9019  0.5107
17643SOL    HW253508   1.799   6.527   7.998  0.4325  0.5027 -0.3487
17644SOL     OW53509   1.115   8.250   4.516  0.5857  0.0269 -0.4075
17644SOL    HW153510   1.122   8.189   4.442  0.0826 -1.2140  0.5309
17644SOL    HW253511   1.031   8.295   4.502  0.0453 -0.8687 -0.1266
17645SOL     OW53512   5.543   5.087   9.650  0.0925  0.2095  0.0887
17645SOL    HW153513   5.483   5.029   9.697  0.7283 -0.2377  0.3602
17645SOL    HW253514   5.489   5.128   9.583 -0.1629 -1.4240 -0.7511
17646SOL     OW53515   6.533   5.725   7.363  0.0715 -0.0249 -0.0103
17646SOL    HW153516   6.468   5.782   7.322  0.1343 -0.6206 -0.9707
17646SOL    HW253517   6.484   5.676   7.429  0.0096  1.0966  0.8064
17647SOL     OW53518   9.188   3.375   9.021  0.4408  0.1007 -0.1114
17647SOL    HW153519   9.226   3.363   9.108 -1.3610 -0.5599  0.6419
17647SOL    HW253520   9.192   3.469   9.005  0.4720  0.2717  0.8485
17648SOL     OW53521   6.074   3.464   1.743  0.0691  0.4121  0.7647
17648SOL    HW153522   6.035   3.377   1.732  0.3268  0.4119 -0.2988
17648SOL    HW253523   6.134   3.454   1.816  0.5877 -0.4936  0.2453
17649SOL     OW53524   6.317   4.934   5.178  0.8190  0.5911 -0.3689
17649SOL    HW153525   6.255   4.954   5.248  1.3477  0.3155  0.1912
17649SOL    HW253526   6.304   5.003   5.113 -0.3481  0.3156 -0.4534
17650SOL     OW53527   5.006   6.372   1.791 -0.5418  0.5475  0.3409
17650SOL    HW153528   4.953   6.400   1.716 -0.5856  2.0931  0.9025
17650SOL    HW253529   5.097   6.386   1.763 -0.5644  1.3695  0.6314
17651SOL     OW53530   0.878   6.477   6.812  0.0713 -0.3254 -0.2040
17651SOL    HW153531   0.803   6.443   6.862  0.0695 -0.6128 -0.4008
17651SOL    HW253532   0.839   6.535   6.746 -0.0829 -1.3880 -1.0732
17652SOL     OW53533   1.725   5.651   7.482 -0.0999  0.1447 -0.1482
17652SOL    HW153534   1.717   5.558   7.461 -0.8756  0.2951 -0.5541
17652SOL    HW253535   1.746   5.652   7.576  0.9409 -0.4571 -0.3584
17653SOL     OW53536   5.678   9.957   8.013  0.0097  0.6212 -0.3160
17653SOL    HW153537   5.591   9.940   8.049 -0.0683 -0.4390 -0.9651
17653SOL    HW253538   5.733   9.974   8.090 -0.0443 -2.0411  0.4103
17654SOL     OW53539   7.756   6.245   3.233  0.2877  0.3080  0.0521
17654SOL    HW153540   7.759   6.265   3.326 -1.0853  2.9548 -0.3721
17654SOL    HW253541   7.784   6.153   3.227 -1.2150 -0.4810  3.2048
17655SOL     OW53542   2.358   5.072   2.553 -0.3525 -0.2330 -0.2310
17655SOL    HW153543   2.357   4.991   2.502 -1.1269  0.7931 -1.9363
17655SOL    HW253544   2.374   5.044   2.643  1.4535 -2.0954 -1.0698
17656SOL     OW53545   4.056   4.639   3.763  0.4026  0.2467 -0.4326
17656SOL    HW153546   4.001   4.694   3.818 -0.0214  0.5806 -1.1688
17656SOL    HW253547   4.078   4.564   3.818 -0.9988 -0.0203 -0.1919
17657SOL     OW53548   3.385   5.113   6.900  0.0111  0.2248 -0.0368
17657SOL    HW153549   3.371   5.065   6.819  0.1844 -0.4918  0.3549
17657SOL    HW253550   3.297   5.127   6.935 -0.3101  2.8831 -1.6565
17658SOL     OW53551   6.362   9.071   7.281 -0.3296 -0.0217  0.3223
17658SOL    HW153552   6.423   9.141   7.305 -0.8796  1.1434 -1.4730
17658SOL    HW253553   6.280   9.117   7.261 -0.9795 -1.2802 -0.0159
17659SOL     OW53554   1.802   8.865   9.812  0.3315  0.0638  0.1395
17659SOL    HW153555   1.876   8.853   9.873  1.9621 -1.4421 -1.9697
17659SOL    HW253556   1.838   8.920   9.742 -0.1601 -1.5674 -1.4593
17660SOL     OW53557   7.298   8.812   2.251 -0.4157  0.2680 -1.3229
17660SOL    HW153558   7.367   8.754   2.283 -1.0106  0.0616 -0.4045
17660SOL    HW253559   7.293   8.882   2.316 -1.7548 -0.2493 -0.8242
17661SOL     OW53560   8.919   2.804   7.886 -0.6130 -0.0378 -0.0603
17661SOL    HW153561   9.001   2.823   7.932  0.2648 -1.7349 -0.8304
17661SOL    HW253562   8.947   2.770   7.801 -2.0824 -1.5093  0.0086
17662SOL     OW53563   3.194   5.380   5.977 -0.5045  0.0692 -0.5736
17662SOL    HW153564   3.110   5.336   5.988  0.5071 -2.0526 -0.9487
17662SOL    HW253565   3.238   5.370   6.061  0.0168 -0.2744 -0.8803
17663SOL     OW53566   3.569   0.557   2.387  0.5952 -0.3978  0.3323
17663SOL    HW153567   3.544   0.479   2.336  1.0844  0.1600 -0.7935
17663SOL    HW253568   3.613   0.521   2.464 -0.7745 -1.2864  0.7448
17664SOL     OW53569   9.776   0.409   9.115  0.4159 -0.1246  0.2635
17664SOL    HW153570   9.750   0.323   9.084  0.0230  0.0794  0.0222
17664SOL    HW253571   9.739   0.416   9.203  1.8708 -0.8639  0.9611
17665SOL     OW53572   2.599   9.585   9.721  0.0998  0.4595  0.1059
17665SOL    HW153573   2.533   9.559   9.785  0.8211  0.6607  0.9360
17665SOL    HW253574   2.662   9.637   9.770  2.1751 -1.6684 -0.0907
17666SOL     OW53575   7.444   2.430   3.064 -0.3197  0.3376  0.2899
17666SOL    HW153576   7.537   2.407   3.060 -0.2383  0.8634 -1.1590
17666SOL    HW253577   7.398   2.349   3.044 -0.2230 -0.0746  1.5984
17667SOL     OW53578   7.108   2.149   4.485 -0.2708  0.1181 -0.2269
17667SOL    HW153579   7.162   2.216   4.443  2.1669 -1.9058 -0.5547
17667SOL    HW253580   7.127   2.158   4.579 -1.7835  1.3214  0.0160
17668SOL     OW53581   4.179   3.055   6.846  0.1649  0.0223  0.4093
17668SOL    HW153582   4.099   3.084   6.802 -0.6416 -0.0679  1.7360
17668SOL    HW253583   4.207   3.130   6.898  0.8996  0.0221  0.0189
17669SOL     OW53584   6.430   7.201   2.502  0.2334  0.0790  0.3548
17669SOL    HW153585   6.355   7.153   2.467 -1.4910  3.1170 -0.5228
17669SOL    HW253586   6.498   7.191   2.436 -0.1782 -0.8818  0.0609
17670SOL     OW53587   2.411   2.974   6.907 -0.7655  0.1482 -0.4511
17670SOL    HW153588   2.390   2.887   6.874  0.5444 -0.3041 -0.1709
17670SOL    HW253589   2.347   2.989   6.977 -1.7676 -0.0623 -1.2979
17671SOL     OW53590   1.773   3.083   0.035 -0.0784  0.4493  0.3400
17671SOL    HW153591   1.695   3.140   0.032 -0.4373 -0.0748 -1.5176
17671SOL    HW253592   1.846   3.144   0.026 -0.2935  0.8870  1.4164
17672SOL     OW53593   0.618   1.128   1.823 -0.6723  0.1639  0.1967
17672SOL    HW153594   0.567   1.189   1.770  0.1908  0.0690 -0.7786
17672SOL    HW253595   0.693   1.180   1.853  1.0416 -0.8136 -2.1393
17673SOL     OW53596   7.678   5.987   0.027 -0.4101 -0.6152 -0.5148
17673SOL    HW153597   7.711   6.049   0.092  0.4583 -0.8767 -0.6963
17673SOL    HW253598   7.673   6.038  -0.054  1.4877 -1.0643 -0.9581
17674SOL     OW53599   1.653   7.103   6.336 -0.2020 -0.0528  0.4902
17674SOL    HW153600   1.746   7.097   6.313 -0.3202  1.2895 -0.4693
17674SOL    HW253601   1.617   7.017   6.315  0.1901  0.3868 -2.3552
17675SOL     OW53602   6.974   9.444   7.091 -0.3466  0.0125  0.3432
17675SOL    HW153603   6.937   9.359   7.118 -0.2717  0.0035  0.4188
17675SOL    HW253604   7.068   9.433   7.100 -0.3776  0.4319  1.3456
17676SOL     OW53605   7.329   6.297   9.576  0.6376  0.2903  0.2865
17676SOL    HW153606   7.404   6.237   9.571  1.8168  1.0422  4.4548
17676SOL    HW253607   7.274   6.261   9.646 -0.1102  2.4878  0.9113
17677SOL     OW53608   8.965   6.939   7.126 -0.1002  0.1861  0.0212
17677SOL    HW153609   9.041   6.963   7.178  0.3145  0.9079 -0.8938
17677SOL    HW253610   8.953   6.846   7.143  1.1209  0.0085  0.0007
17678SOL     OW53611   4.093   1.391   6.599 -0.1048  0.0595  0.0802
17678SOL    HW153612   4.187   1.411   6.608  0.4775 -1.6159 -1.5779
17678SOL    HW253613   4.078   1.317   6.657 -1.0599  1.8770  2.2845
17679SOL     OW53614   9.216   1.306   5.362 -0.2785  0.5839 -0.0931
17679SOL    HW153615   9.143   1.267   5.412  0.0794 -0.8393 -0.6198
17679SOL    HW253616   9.175   1.377   5.312 -1.2215  0.1106 -0.0234
17680SOL     OW53617   1.625   7.740   9.981  0.1753  0.7625  0.3914
17680SOL    HW153618   1.573   7.660   9.973 -0.2935  0.8049  2.4187
17680SOL    HW253619   1.658   7.757   9.893 -2.8816  0.4825 -0.9062
17681SOL     OW53620   1.922   0.772   7.456  0.7344  0.2521 -0.0376
17681SOL    HW153621   1.831   0.786   7.481  0.6096 -0.0980 -0.2852
17681SOL    HW253622   1.918   0.710   7.383  1.1435  0.5586 -0.3297
17682SOL     OW53623   0.115   4.077   3.111 -0.4481  0.2689 -0.1968
17682SOL    HW153624   0.163   4.076   3.028  0.7114  0.6127  0.4573
17682SOL    HW253625   0.058   4.000   3.106  2.2901 -1.9475  0.2136
17683SOL     OW53626   9.776   9.178   9.536  0.0925 -0.2434  0.2839
17683SOL    HW153627   9.717   9.166   9.461  0.9640  2.3431 -0.9217
17683SOL    HW253628   9.780   9.273   9.548  2.4874 -0.4491  1.5749
17684SOL     OW53629   8.416   8.069   4.962 -0.1382  0.3576 -0.3253
17684SOL    HW153630   8.390   8.011   5.033 -0.4900  1.4341  0.4655
17684SOL    HW253631   8.492   8.027   4.922  0.6576  0.1752  1.2972
17685SOL     OW53632   3.123   6.680   2.611  0.2454  0.2748 -0.3015
17685SOL    HW153633   3.154   6.769   2.628  0.3837  0.3715 -1.0536
17685SOL    HW253634   3.200   6.633   2.578 -0.3651  0.5217 -2.1986
17686SOL     OW53635   9.914   5.054   5.775 -0.0028  0.0662 -0.2478
17686SOL    HW153636   9.969   5.021   5.846 -0.7684  1.2089  0.9381
17686SOL    HW253637   9.974   5.100   5.717  0.4350  0.5887  0.5919
17687SOL     OW53638   9.198   4.175   4.254 -0.5559  0.2695 -0.4100
17687SOL    HW153639   9.179   4.195   4.162 -0.6667 -0.4945 -0.5535
17687SOL    HW253640   9.124   4.212   4.302  0.6347  2.8337 -0.3665
17688SOL     OW53641   1.542   0.175   1.068  0.4531 -0.2226 -0.4052
17688SOL    HW153642   1.471   0.206   1.012 -0.2652 -0.2653  0.4519
17688SOL    HW253643   1.510   0.094   1.106  0.5867  0.1989  0.6658
17689SOL     OW53644   3.309   2.651   7.228 -0.8494 -0.6238 -0.6157
17689SOL    HW153645   3.227   2.603   7.215  0.0281 -1.9523 -1.4343
17689SOL    HW253646   3.338   2.673   7.140 -0.0065 -0.7262 -0.3710
17690SOL     OW53647   0.380   8.586   6.354  0.2392  0.0584 -0.3813
17690SOL    HW153648   0.432   8.522   6.305  1.5030 -0.2757  1.3076
17690SOL    HW253649   0.424   8.593   6.439 -0.8781  1.8937  0.1025
17691SOL     OW53650   7.804   6.161   5.944 -0.5107 -0.1000 -0.2928
17691SOL    HW153651   7.805   6.256   5.948 -2.5901  0.0246 -1.0850
17691SOL    HW253652   7.743   6.141   5.872  2.4623 -2.0292 -2.5111
17692SOL     OW53653   0.384   3.802   3.482  0.2341 -0.9683  0.0991
17692SOL    HW153654   0.321   3.801   3.410  1.8130 -1.7509 -1.3522
17692SOL    HW253655   0.378   3.890   3.518 -1.4089 -0.9138 -0.2150
17693SOL     OW53656   8.943   5.295   2.251  0.2632 -0.0528 -0.2125
17693SOL    HW153657   8.940   5.384   2.218 -2.2290 -0.3057 -0.8369
17693SOL    HW253658   8.858   5.281   2.292  0.5122 -2.2193 -0.3223
17694SOL     OW53659   9.965   3.700   4.275 -0.4459  0.2681 -0.1296
17694SOL    HW153660   9.970   3.621   4.221 -1.8118  0.3182 -0.3695
17694SOL    HW253661   9.885   3.688   4.327 -0.5670  1.4052 -0.0276
17695SOL     OW53662   5.750   5.706   0.367  0.0787 -0.4606  0.1208
17695SOL    HW153663   5.781   5.766   0.435 -2.3356 -0.8114  1.6262
17695SOL    HW253664   5.704   5.637   0.415 -1.2545 -0.9948 -1.8219
17696SOL     OW53665   7.041   9.800   3.050 -0.4565  0.2358 -0.4448
17696SOL    HW153666   7.122   9.847   3.033 -1.6067  1.9397 -1.4170
17696SOL    HW253667   7.029   9.743   2.974 -1.4122  1.8318 -1.5341
17697SOL     OW53668   4.891   4.188   0.524 -0.6269  0.2300 -0.0442
17697SOL    HW153669   4.986   4.183   0.512 -0.6915  0.1057 -0.5078
17697SOL    HW253670   4.863   4.263   0.470 -0.7333  0.5581  0.4574
17698SOL     OW53671   5.496   8.136   6.153 -0.2338 -0.4007  0.0849
17698SOL    HW153672   5.476   8.096   6.068  2.1635 -0.7372 -0.4092
17698SOL    HW253673   5.497   8.063   6.215 -2.0404 -0.1464  0.4796
17699SOL     OW53674   8.444   5.965   9.228  0.0921  0.3724 -0.8349
17699SOL    HW153675   8.413   5.910   9.156  1.7320 -1.3664 -0.2828
17699SOL    HW253676   8.530   5.930   9.251 -0.2670  0.9774  1.8448
17700SOL     OW53677   3.855   2.269   0.651 -0.2010  0.2151  0.3548
17700SOL    HW153678   3.790   2.257   0.720  0.6695  2.6668  1.7214
17700SOL    HW253679   3.929   2.311   0.695  0.5793  1.4695 -1.9814
17701SOL     OW53680   9.729   1.721   4.143  0.0584 -0.3399  0.0181
17701SOL    HW153681   9.808   1.730   4.089 -1.1079  0.7466 -1.5575
17701SOL    HW253682   9.710   1.627   4.141  0.4632 -0.4111 -0.8184
17702SOL     OW53683   4.669   7.451   3.886  0.2227 -0.2809 -0.4064
17702SOL    HW153684   4.644   7.457   3.978  0.2803  0.4259 -0.4355
17702SOL    HW253685   4.743   7.511   3.876  1.4123 -1.7056 -0.5219
17703SOL     OW53686   8.608   2.070   9.382 -0.2246  0.6790 -0.2173
17703SOL    HW153687   8.645   2.010   9.447 -0.9906  1.3013  0.8427
17703SOL    HW253688   8.514   2.069   9.400 -0.1619  2.9200  0.5086
17704SOL     OW53689   1.095   7.898   2.885 -0.4842 -0.0230 -0.6619
17704SOL    HW153690   1.019   7.888   2.827  0.3863  2.1469 -2.3238
17704SOL    HW253691   1.165   7.850   2.841  0.3390  2.1306 -1.8425
17705SOL     OW53692   8.037   6.120   6.457 -0.7003 -0.4421  0.3183
17705SOL    HW153693   8.066   6.044   6.507 -0.8428 -0.4287  0.4236
17705SOL    HW253694   8.107   6.135   6.393 -0.7806 -0.7997  0.1457
17706SOL     OW53695   5.572   7.335   8.982  0.3807  0.0034 -0.2054
17706SOL    HW153696   5.662   7.311   9.004  0.6808  1.7190  0.5479
17706SOL    HW253697   5.530   7.349   9.067 -0.2274  0.5131 -0.5851
17707SOL     OW53698   5.677   8.284   4.705  0.2697  0.1433  0.3547
17707SOL    HW153699   5.673   8.352   4.772  2.7392  0.2158  0.5232
17707SOL    HW253700   5.663   8.331   4.623 -1.7164  0.2149  0.6807
17708SOL     OW53701   0.337   6.281   2.913 -0.1357 -0.2323  0.5076
17708SOL    HW153702   0.251   6.319   2.929  1.5087  3.1180  2.5264
17708SOL    HW253703   0.363   6.245   2.998  0.5301 -1.1121 -0.0508
17709SOL     OW53704   7.678   3.716   1.603  0.1300  0.1837 -0.5903
17709SOL    HW153705   7.765   3.744   1.576  0.2379  0.4472  0.0286
17709SOL    HW253706   7.693   3.655   1.675 -0.2489  1.5910  0.7246
17710SOL     OW53707   8.526   2.631   9.195  0.2572 -0.4754  0.1765
17710SOL    HW153708   8.436   2.603   9.175 -0.3011  0.0307  1.8335
17710SOL    HW253709   8.563   2.558   9.245  0.3212 -0.1573  0.6031
17711SOL     OW53710   9.518   2.480   3.219 -0.1906  0.2084  0.1142
17711SOL    HW153711   9.536   2.529   3.139  1.1663 -1.5783 -0.7473
17711SOL    HW253712   9.574   2.521   3.285  0.7374  0.0058 -0.5286
17712SOL     OW53713   7.393   8.470   1.247  0.4452  0.4293  0.6192
17712SOL    HW153714   7.389   8.520   1.166  0.5176  1.0160  0.9697
17712SOL    HW253715   7.479   8.427   1.245  0.0226 -0.4188 -0.1000
17713SOL     OW53716   5.805   2.874   5.870 -0.0087  0.2553 -0.3847
17713SOL    HW153717   5.773   2.795   5.826  0.2229 -0.0420 -0.0209
17713SOL    HW253718   5.767   2.870   5.958 -0.8493  1.0880 -0.6908
17714SOL     OW53719   2.099   6.112   0.327  0.1545 -0.1416 -0.7140
17714SOL    HW153720   2.062   6.030   0.294  0.7400 -0.3124 -0.9718
17714SOL    HW253721   2.029   6.153   0.376  0.1467 -1.2532  0.2246
17715SOL     OW53722   9.748   8.115   4.793 -0.3181 -0.3361 -0.0646
17715SOL    HW153723   9.767   8.021   4.786  0.5057 -0.2284  0.5397
17715SOL    HW253724   9.699   8.124   4.874  0.5802 -0.1167  0.4671
17716SOL     OW53725   5.564   3.482   5.219  0.0091  0.1744  0.2130
17716SOL    HW153726   5.470   3.479   5.201  0.2259  0.6539 -1.0912
17716SOL    HW253727   5.593   3.392   5.206 -0.2107  0.0876  0.3121
17717SOL     OW53728   1.196   0.332   8.761 -0.7213  0.0156 -0.3732
17717SOL    HW153729   1.195   0.249   8.713  1.6224 -0.0306 -0.4523
17717SOL    HW253730   1.194   0.400   8.693  2.1094 -0.0477 -0.6036
17718SOL     OW53731   5.886   4.964   7.439  0.0788  0.2590 -0.4269
17718SOL    HW153732   5.889   4.905   7.363 -2.5203 -0.9574  0.3325
17718SOL    HW253733   5.937   4.918   7.506  0.1644  0.0932 -0.6025
17719SOL     OW53734   7.725   2.705   4.035  0.1813 -0.2881  0.2525
17719SOL    HW153735   7.729   2.725   4.129 -0.4753 -2.1248  0.7175
17719SOL    HW253736   7.816   2.707   4.006  0.4155  0.0528  0.9833
17720SOL     OW53737   2.210   9.144   8.788  0.1722 -0.2887 -0.0885
17720SOL    HW153738   2.188   9.051   8.776  1.0344 -0.4487 -0.5072
17720SOL    HW253739   2.271   9.144   8.861  0.4668 -0.0867 -0.3379
17721SOL     OW53740   8.188   4.347   7.571  0.1326 -0.5144 -0.0339
17721SOL    HW153741   8.242   4.291   7.627  0.7618  0.1213  0.0105
17721SOL    HW253742   8.241   4.361   7.493 -0.2383 -0.3983 -0.2699
17722SOL     OW53743   7.345   6.865   6.028 -0.5985 -0.5313 -0.1182
17722SOL    HW153744   7.394   6.788   5.999 -1.5659 -1.4034  0.4860
17722SOL    HW253745   7.339   6.854   6.123 -0.4811  0.4645  0.0081
17723SOL     OW53746   9.245   6.981   9.604 -0.3372 -0.7421  0.2755
17723SOL    HW153747   9.184   7.017   9.540  2.5093  1.4440 -1.4059
17723SOL    HW253748   9.246   7.045   9.675  0.5441 -0.3238 -0.0945
17724SOL     OW53749   9.227   0.964   7.894  0.0030 -0.1251  0.5844
17724SOL    HW153750   9.184   0.956   7.979 -0.0684 -0.9555  0.4840
17724SOL    HW253751   9.320   0.957   7.914 -0.0771 -2.0977  0.4427
17725SOL     OW53752   8.990   7.217   6.287  0.1593  0.1997  0.5633
17725SOL    HW153753   8.947   7.148   6.236 -0.1413  0.3870  0.5608
17725SOL    HW253754   9.074   7.230   6.243 -0.2659  0.6437 -0.1512
17726SOL     OW53755   2.430   4.276   7.380  0.5673  0.1875 -0.1182
17726SOL    HW153756   2.471   4.290   7.294  1.5510  0.0339  0.3055
17726SOL    HW253757   2.497   4.302   7.443 -1.5630  4.5981  0.7115
17727SOL     OW53758   6.354   8.881   4.271 -0.0568 -0.2054  0.0226
17727SOL    HW153759   6.318   8.914   4.354  1.6069  2.2011 -0.1080
17727SOL    HW253760   6.364   8.787   4.286  0.0387  0.1159  2.5457
17728SOL     OW53761   7.425   5.447   7.718 -0.5032  0.3950 -0.4426
17728SOL    HW153762   7.354   5.383   7.721  1.4487 -1.8718  1.8761
17728SOL    HW253763   7.407   5.506   7.791  1.6056 -2.3239  2.5653
17729SOL     OW53764   4.377   2.035   2.227 -0.2380  0.4589  0.4203
17729SOL    HW153765   4.417   2.008   2.144 -0.6924  0.9500  0.0286
17729SOL    HW253766   4.433   2.106   2.258  1.2090 -1.1523  1.6701
17730SOL     OW53767   2.541   1.961   1.000  0.2161 -0.4510 -0.0056
17730SOL    HW153768   2.455   1.960   0.958 -0.3513 -1.2592  1.1191
17730SOL    HW253769   2.546   1.877   1.045  0.4533  0.6641  2.1885
17731SOL     OW53770   0.103   1.617   3.701 -0.4662 -0.1564 -0.2659
17731SOL    HW153771   0.151   1.535   3.702  0.6316  0.4115  2.7392
17731SOL    HW253772   0.011   1.592   3.707 -0.2928 -1.1470 -1.3031
17732SOL     OW53773   9.120   3.152   2.258  0.3083  0.2057  0.4377
17732SOL    HW153774   9.045   3.152   2.199 -0.6254 -1.3839  1.5330
17732SOL    HW253775   9.121   3.239   2.297  1.4546  1.6003 -2.4204
17733SOL     OW53776   3.333   8.128   8.038 -0.3391 -0.2390  0.2076
17733SOL    HW153777   3.300   8.064   7.974  1.0383 -1.6494  0.8355
17733SOL    HW253778   3.290   8.103   8.120 -0.3182  0.0946  0.3209
17734SOL     OW53779   4.660   1.171   9.894  0.4428  0.2503  0.3129
17734SOL    HW153780   4.599   1.229   9.940  0.0334  2.0582 -2.2712
17734SOL    HW253781   4.619   1.085   9.898 -1.4543  1.0874  0.1437
17735SOL     OW53782   3.030   4.388   8.486 -0.0798  0.5478 -0.2916
17735SOL    HW153783   3.015   4.432   8.569 -0.1226  0.1807 -0.1012
17735SOL    HW253784   2.943   4.370   8.452 -0.0729 -0.1059  0.0202
17736SOL     OW53785   1.585   4.961   1.079  0.0436  0.0629 -0.1859
17736SOL    HW153786   1.668   4.998   1.109 -0.4094  0.5648  0.4701
17736SOL    HW253787   1.558   5.017   1.007 -0.1552  0.4372  0.1740
17737SOL     OW53788   4.366   9.358   6.200 -0.0008  0.1295 -0.8862
17737SOL    HW153789   4.285   9.330   6.243 -0.5519  0.1136 -1.8900
17737SOL    HW253790   4.393   9.436   6.248 -0.1219 -0.3659  0.0164
17738SOL     OW53791   8.960   9.312   3.666  0.4835  0.1807 -0.6607
17738SOL    HW153792   9.033   9.254   3.647  1.8337  1.4856  0.3018
17738SOL    HW253793   8.997   9.380   3.722 -1.2780  1.3737 -0.8512
17739SOL     OW53794   5.333   9.055   9.425 -0.4254  0.3186 -0.0818
17739SOL    HW153795   5.369   9.086   9.341 -0.3723 -0.3584 -0.3135
17739SOL    HW253796   5.259   9.113   9.442 -1.5044 -0.5973 -1.4618
17740SOL     OW53797   5.035   8.673   1.848  0.1264 -0.0101  0.1478
17740SOL    HW153798   5.008   8.633   1.766  0.4804 -2.2520  1.0619
17740SOL    HW253799   4.957   8.718   1.880 -0.1240  0.5577 -1.1930
17741SOL     OW53800   0.248   1.592   2.970  0.0484 -0.1082 -0.2962
17741SOL    HW153801   0.245   1.553   3.057  0.9676  0.6565  0.0937
17741SOL    HW253802   0.270   1.519   2.912 -5.4961 -1.8884 -0.7851
17742SOL     OW53803   0.958   9.681   4.124  0.3580 -0.3622 -0.2624
17742SOL    HW153804   0.918   9.595   4.140  1.9302 -1.1755 -0.5769
17742SOL    HW253805   1.042   9.678   4.169  0.0333  1.4107  0.5757
17743SOL     OW53806   8.819   9.594   0.308  0.1254 -0.7859  0.2297
17743SOL    HW153807   8.914   9.585   0.307  0.0007 -2.3295 -0.8657
17743SOL    HW253808   8.789   9.543   0.233 -1.6296 -1.2292  1.1682
17744SOL     OW53809   1.224   2.487   4.418 -0.2166 -0.2572 -0.2176
17744SOL    HW153810   1.161   2.482   4.346  0.1092  0.3335 -0.5496
17744SOL    HW253811   1.171   2.480   4.497 -0.8796  1.6006 -0.4489
17745SOL     OW53812   2.397   7.743   9.399  0.2809  0.3353 -0.4292
17745SOL    HW153813   2.332   7.697   9.346 -0.3812  0.5162  0.2238
17745SOL    HW253814   2.438   7.675   9.452 -0.3678  0.4257  0.1914
17746SOL     OW53815   5.733   0.995   8.015  0.6558  0.0169  0.1618
17746SOL    HW153816   5.760   1.055   7.945  4.0573 -1.9737 -0.4647
17746SOL    HW253817   5.641   0.977   7.996  0.2321  2.9115 -1.1401
17747SOL     OW53818   5.885   3.919   9.948 -0.1459 -0.0061 -0.4549
17747SOL    HW153819   5.792   3.917   9.926 -0.6934  0.0214  1.6209
17747SOL    HW253820   5.903   3.830   9.980 -0.1985  0.7091  1.7152
17748SOL     OW53821   4.303   1.648   0.467  0.4479 -0.5270  0.4923
17748SOL    HW153822   4.249   1.707   0.416  0.8118  0.4026  1.1551
17748SOL    HW253823   4.245   1.614   0.536  0.1964 -1.0775  0.0136
17749SOL     OW53824   6.788   6.984   5.596 -1.0031  0.2388 -0.0753
17749SOL    HW153825   6.791   6.981   5.691  3.0962  0.2389 -0.0031
17749SOL    HW253826   6.696   6.999   5.574 -2.6674 -2.8631  3.6978
17750SOL     OW53827   8.167   7.880   6.454 -0.1476 -0.5673  0.0266
17750SOL    HW153828   8.165   7.821   6.529  0.4245 -1.8005 -0.8915
17750SOL    HW253829   8.075   7.886   6.426 -0.2419 -0.8014  0.2800
17751SOL     OW53830   2.511   1.707   9.916 -0.5775  0.5138  0.3025
17751SOL    HW153831   2.523   1.614   9.894  0.6301  0.6668  0.2256
17751SOL    HW253832   2.419   1.724   9.899 -1.4355 -1.2752  2.6464
17752SOL     OW53833   4.751   7.714   5.814  1.0096 -0.0435  0.2973
17752SOL    HW153834   4.832   7.673   5.845  2.2584  1.5003 -0.8092
17752SOL    HW253835   4.778   7.798   5.778 -0.8966 -0.0819 -1.4066
17753SOL     OW53836   9.673   1.432   1.339 -0.1308 -0.2937  0.1442
17753SOL    HW153837   9.593   1.381   1.337 -0.8390  0.7971  0.1102
17753SOL    HW253838   9.688   1.449   1.432 -1.4538  1.7725  0.0475
17754SOL     OW53839   3.727   7.056   2.366 -0.2289 -0.2384 -0.2192
17754SOL    HW153840   3.748   6.973   2.324  2.1036  0.5200 -0.7170
17754SOL    HW253841   3.744   7.041   2.459  1.0819 -0.1189 -0.4166
17755SOL     OW53842   9.743   1.891   7.499 -0.2011  0.5156 -0.5758
17755SOL    HW153843   9.834   1.867   7.483  0.1549  0.7011  1.0408
17755SOL    HW253844   9.747   1.963   7.562 -1.5212 -1.2426  1.6498
17756SOL     OW53845   3.567   9.589   4.320  0.5034  0.9731 -0.0441
17756SOL    HW153846   3.585   9.496   4.338 -3.4101  0.2162  0.8532
17756SOL    HW253847   3.592   9.601   4.229  0.6082 -1.1077 -0.3431
17757SOL     OW53848   9.344   5.097   1.792 -0.0685  0.3363  0.1481
17757SOL    HW153849   9.288   5.142   1.856 -0.0867  0.2017  0.2272
17757SOL    HW253850   9.402   5.043   1.845 -1.4144 -1.3335 -0.0102
17758SOL     OW53851   4.327   1.051   6.072 -0.5073 -0.1349  0.0007
17758SOL    HW153852   4.242   1.009   6.086  0.0277 -1.6790 -1.1330
17758SOL    HW253853   4.355   1.079   6.159 -1.9735  0.0165  0.4470
17759SOL     OW53854   4.896   8.977   6.745 -0.4073 -0.1457  0.5336
17759SOL    HW153855   4.902   8.922   6.667 -2.1367  2.0467 -1.2982
17759SOL    HW253856   4.812   8.953   6.784  0.6191 -1.5043  2.0386
17760SOL     OW53857   4.966   6.834   8.519  0.4126 -0.0543 -0.3482
17760SOL    HW153858   4.947   6.755   8.469  0.3588  0.6643 -1.5202
17760SOL    HW253859   5.022   6.886   8.461  0.7231  0.6198  0.5247
17761SOL     OW53860   1.474   9.551   3.755 -0.1644 -0.2664 -0.5364
17761SOL    HW153861   1.475   9.531   3.662 -1.1215  1.8922 -1.0745
17761SOL    HW253862   1.409   9.622   3.764  1.7769  1.4146  1.3672
17762SOL     OW53863   5.062   5.013   0.143  0.0548 -0.0252 -0.0162
17762SOL    HW153864   5.139   4.957   0.150  0.8555  0.8545 -1.3902
17762SOL    HW253865   5.040   5.012   0.050 -0.8147  0.7515  0.1715
17763SOL     OW53866   9.410   9.118   0.491 -0.1506 -0.8287  0.3345
17763SOL    HW153867   9.462   9.198   0.502 -0.4534 -0.3666 -1.2860
17763SOL    HW253868   9.321   9.150   0.475 -0.6009 -1.5593  1.2920
17764SOL     OW53869   8.129   1.842   5.633  0.1665 -0.8188  0.0265
17764SOL    HW153870   8.215   1.849   5.675 -0.1529 -3.0983  1.1973
17764SOL    HW253871   8.071   1.894   5.689  0.5800 -0.0497 -0.2395
17765SOL     OW53872   3.954   5.817   2.931  0.1108 -0.4283 -0.3345
17765SOL    HW153873   4.020   5.797   2.998 -0.2085 -0.7852 -0.1260
17765SOL    HW253874   3.927   5.907   2.951 -1.1812 -1.0741  1.0582
17766SOL     OW53875   6.670   6.507   8.865 -0.1778  0.0289  0.0449
17766SOL    HW153876   6.746   6.523   8.809  1.0218  2.6112  2.1639
17766SOL    HW253877   6.692   6.427   8.913  0.9155  0.3527  0.1238
17767SOL     OW53878   9.608   7.148   1.041 -0.5448 -0.8603  0.1313
17767SOL    HW153879   9.682   7.204   1.018 -0.3305 -1.2752 -0.1883
17767SOL    HW253880   9.538   7.174   0.982 -0.7349 -0.3061  0.5885
17768SOL     OW53881   8.864   8.109   5.679  0.5294 -0.5005 -0.4633
17768SOL    HW153882   8.813   8.030   5.694  1.3189 -1.2950 -1.7937
17768SOL    HW253883   8.841   8.136   5.590  1.1558  0.0984 -0.4541
17769SOL     OW53884   0.998   0.585   8.263 -0.2527 -0.3129 -0.0802
17769SOL    HW153885   1.009   0.525   8.190  0.9259  1.1449 -1.1518
17769SOL    HW253886   0.973   0.669   8.223 -0.3709  0.3247  1.2509
17770SOL     OW53887   3.489   9.224   1.567  0.3692  0.2385 -0.1907
17770SOL    HW153888   3.478   9.139   1.524  1.8858 -0.2212  0.2658
17770SOL    HW253889   3.461   9.288   1.501  2.0283 -0.4675 -1.6619
17771SOL     OW53890   2.040   3.460   8.409  0.7788  0.0046  0.1282
17771SOL    HW153891   2.048   3.388   8.472  0.5451  0.7266  0.9974
17771SOL    HW253892   2.010   3.417   8.329  0.5996 -0.8649  0.6393
17772SOL     OW53893   0.191   9.012   8.878  0.3459  0.0568 -0.3589
17772SOL    HW153894   0.134   9.086   8.897  1.6854  1.5335 -1.8143
17772SOL    HW253895   0.147   8.964   8.808 -0.0563  0.0255 -0.0866
17773SOL     OW53896   2.799   2.373   3.339 -0.0932 -0.2705 -0.3261
17773SOL    HW153897   2.805   2.418   3.254  1.9877  0.2545  0.0278
17773SOL    HW253898   2.717   2.405   3.377  0.9964  2.9652 -0.3256
17774SOL     OW53899   1.278   1.532   7.207  0.2004  0.4833 -0.1593
17774SOL    HW153900   1.245   1.541   7.118 -1.0743  1.2137  0.3552
17774SOL    HW253901   1.253   1.443   7.233  1.3463 -0.0437 -0.8163
17775SOL     OW53902   4.664   1.322   1.991 -0.0468  0.6367 -0.4904
17775SOL    HW153903   4.570   1.324   1.975 -0.8098 -2.3007  2.4209
17775SOL    HW253904   4.672   1.333   2.086  2.3824 -0.7072 -0.4629
17776SOL     OW53905   0.411   6.349   8.534 -0.6681 -1.0037  0.1028
17776SOL    HW153906   0.456   6.301   8.603  0.2667  0.8441  0.8683
17776SOL    HW253907   0.361   6.283   8.486  0.1724 -2.6137  1.3636
17777SOL     OW53908   3.093   3.752   1.193 -0.0381  0.4393 -0.4698
17777SOL    HW153909   3.176   3.705   1.199 -0.7435 -0.6474  1.3026
17777SOL    HW253910   3.118   3.842   1.172  1.5388  0.0158 -0.5316
17778SOL     OW53911   1.716   8.427   4.391  0.3018  0.5067  0.3848
17778SOL    HW153912   1.787   8.363   4.381  1.0024  0.8762  2.5140
17778SOL    HW253913   1.654   8.385   4.450 -0.1995  1.0363  0.2390
17779SOL     OW53914   9.730   2.994   7.657  0.5775  0.1523 -0.0109
17779SOL    HW153915   9.760   3.061   7.719 -0.5960  0.4991  0.2101
17779SOL    HW253916   9.640   3.019   7.638  0.2444 -1.1677 -0.2171
17780SOL     OW53917   0.080   3.025   4.085  0.6087 -0.2265  0.2666
17780SOL    HW153918   0.034   3.011   4.167  0.2077 -0.2705  0.0370
17780SOL    HW253919   0.144   3.094   4.104 -0.1784  0.4973  0.3571
17781SOL     OW53920   9.574   0.779   1.561 -0.7560  0.2243  0.0306
17781SOL    HW153921   9.501   0.833   1.594 -0.5177  0.5233  0.0671
17781SOL    HW253922   9.531   0.701   1.525 -1.1805  0.9053 -0.9697
17782SOL     OW53923   1.893   6.081   1.648 -0.2467  0.5844 -0.2526
17782SOL    HW153924   1.960   6.040   1.702  0.2658  0.3494 -1.0494
17782SOL    HW253925   1.866   6.012   1.587  0.0471  1.1735 -1.0738
17783SOL     OW53926   3.938   2.267   5.906 -0.8814  0.0238  0.4299
17783SOL    HW153927   3.900   2.207   5.842  1.3748  0.8537 -1.8191
17783SOL    HW253928   3.986   2.210   5.967 -1.4237 -0.6314  0.2595
17784SOL     OW53929   8.440   4.433   4.481  0.4495 -0.5005 -0.0055
17784SOL    HW153930   8.455   4.514   4.433 -1.1023 -0.2208 -0.0435
17784SOL    HW253931   8.422   4.460   4.571 -0.3095 -0.7740 -0.0688
17785SOL     OW53932   8.929   7.980   0.280 -0.3802  0.0398 -0.5241
17785SOL    HW153933   8.852   8.034   0.264  0.1540  1.0582  0.2568
17785SOL    HW253934   8.969   8.017   0.358  0.2633 -1.2102 -0.2340
17786SOL     OW53935   8.680   8.072   3.814 -0.6060 -0.2086 -0.0403
17786SOL    HW153936   8.622   8.039   3.883 -1.3683  1.2972  0.1022
17786SOL    HW253937   8.709   8.158   3.846 -0.9101  0.4881 -1.5323
17787SOL     OW53938   0.788   3.349   1.919 -0.2998 -0.9071 -0.5596
17787SOL    HW153939   0.694   3.361   1.935 -0.5111 -2.1753 -0.7046
17787SOL    HW253940   0.823   3.324   2.005  0.1985  1.0287 -0.1643
17788SOL     OW53941   8.867   9.020   9.833  0.0671 -0.2008  0.3017
17788SOL    HW153942   8.848   8.930   9.858 -2.1630  0.1533  0.0314
17788SOL    HW253943   8.830   9.029   9.746  3.0296  0.1362 -1.0317
17789SOL     OW53944   1.510   9.417   5.738 -0.0639 -0.3111  0.0275
17789SOL    HW153945   1.580   9.465   5.695  0.7319 -1.3140  0.1404
17789SOL    HW253946   1.459   9.483   5.784  1.1102  0.3966  0.3454
17790SOL     OW53947   6.253   7.535   7.942  0.2015 -0.0510  0.0988
17790SOL    HW153948   6.281   7.446   7.966  0.6422 -0.1863 -0.8761
17790SOL    HW253949   6.318   7.564   7.878 -1.4505 -0.0883 -1.6864
17791SOL     OW53950   8.115   4.170   6.609 -0.4109 -0.4431 -0.0852
17791SOL    HW153951   8.118   4.095   6.549  0.2871 -0.2785 -0.2630
17791SOL    HW253952   8.205   4.201   6.612 -0.9495  1.3636 -1.2535
17792SOL     OW53953   7.486   5.533   4.737 -0.2952  0.4278  0.3441
17792SOL    HW153954   7.392   5.524   4.719 -0.8431  2.1083  1.9733
17792SOL    HW253955   7.492   5.614   4.788  1.8036 -0.6276  1.9166
17793SOL     OW53956   7.343   7.800   1.873 -0.9307 -0.3908  0.5872
17793SOL    HW153957   7.290   7.748   1.812  0.4922  0.2898 -1.3359
17793SOL    HW253958   7.391   7.861   1.817  2.2040 -1.2271  2.0950
17794SOL     OW53959   9.765   2.219   1.505 -0.7409 -0.1597 -0.2789
17794SOL    HW153960   9.734   2.133   1.476  2.3173 -1.3774 -0.3267
17794SOL    HW253961   9.822   2.200   1.580  1.1972  1.6268 -1.1977
17795SOL     OW53962   3.720   1.513   1.646  0.0888  0.2060  0.0175
17795SOL    HW153963   3.773   1.439   1.677  0.0273 -0.1676 -0.7379
17795SOL    HW253964   3.634   1.499   1.684 -0.0612 -0.3960 -0.5251
17796SOL     OW53965   5.360   8.111   2.075 -0.0435 -0.1924  0.2114
17796SOL    HW153966   5.290   8.057   2.111  0.1706 -0.1553  0.6851
17796SOL    HW253967   5.334   8.127   1.984 -1.9653  1.9611  1.0545
17797SOL     OW53968   5.347   3.594   8.179  0.3217  0.4654 -0.4492
17797SOL    HW153969   5.317   3.680   8.151  1.3557  0.8797 -0.3051
17797SOL    HW253970   5.281   3.534   8.144  1.2115  0.9909 -3.3612
17798SOL     OW53971   8.749   7.668   6.715  0.0159  0.6010  0.1180
17798SOL    HW153972   8.832   7.671   6.763  0.2272  3.0054 -0.2630
17798SOL    HW253973   8.698   7.740   6.751 -2.7134 -1.9015  1.5900
17799SOL     OW53974   7.379   9.297   0.925 -0.1702  0.0892 -0.9753
17799SOL    HW153975   7.348   9.293   1.016 -1.2935 -1.4575 -1.3792
17799SOL    HW253976   7.441   9.370   0.924  1.5578 -1.1761  1.5453
17800SOL     OW53977   4.332   8.438   7.592  0.4240 -0.2649 -0.2869
17800SOL    HW153978   4.348   8.437   7.686 -0.9173  2.8889  0.0905
17800SOL    HW253979   4.383   8.512   7.559 -0.9412  0.1473 -1.5983
17801SOL     OW53980   7.983   0.593   3.310  0.2088 -0.1196 -0.1006
17801SOL    HW153981   7.916   0.634   3.255  0.5702 -0.0537 -0.4995
17801SOL    HW253982   8.062   0.644   3.293  0.2688  0.0638  0.6810
17802SOL     OW53983   2.470   0.840   4.464  0.0176  0.9466  0.2940
17802SOL    HW153984   2.416   0.911   4.499 -0.5927  0.0366  1.2825
17802SOL    HW253985   2.409   0.785   4.415  0.3797  0.8223 -0.0223
17803SOL     OW53986   0.809   9.733   8.028  0.4416 -0.2476  0.0136
17803SOL    HW153987   0.723   9.758   8.062  0.0385 -0.4047 -0.8537
17803SOL    HW253988   0.829   9.650   8.072 -0.1979 -0.5878 -0.3183
17804SOL     OW53989   2.669   7.030   8.023  0.1282 -0.1893  0.0364
17804SOL    HW153990   2.623   7.089   8.082  1.5342  0.1477  0.8249
17804SOL    HW253991   2.669   6.946   8.068  2.0601  0.2899  1.0446
17805SOL     OW53992   4.052   7.059   3.748  0.7209 -0.1549 -0.4273
17805SOL    HW153993   3.996   6.994   3.706 -0.5794  1.0036 -0.5529
17805SOL    HW253994   4.130   7.063   3.693 -0.2965  0.2296 -1.8942
17806SOL     OW53995   6.883   1.152   6.575 -0.3827 -0.4910 -0.1053
17806SOL    HW153996   6.963   1.103   6.556 -0.2099  0.5453 -2.3457
17806SOL    HW253997   6.911   1.223   6.632  0.3984  0.0953 -1.1937
17807SOL     OW53998   0.998   6.074   1.365 -0.3191 -0.5185  0.2726
17807SOL    HW153999   1.083   6.117   1.350 -0.4629 -0.3879 -0.1914
17807SOL    HW254000   0.978   6.032   1.281 -2.4099  2.4030 -0.8194
17808SOL     OW54001   6.053   2.381   2.645 -0.2888 -0.1102 -0.3471
17808SOL    HW154002   6.133   2.428   2.668  1.8732 -3.4663 -0.3018
17808SOL    HW254003   5.983   2.429   2.690  1.5389  3.2173 -0.7062
17809SOL     OW54004   9.460   7.126   6.266 -0.4652 -0.3668  0.2416
17809SOL    HW154005   9.421   7.190   6.206 -0.8832 -0.2458  0.6435
17809SOL    HW254006   9.503   7.063   6.208  0.6600  0.7132 -0.1478
17810SOL     OW54007   7.072   1.077   3.167 -0.0568 -0.7748 -0.2025
17810SOL    HW154008   7.111   1.069   3.254  0.8133 -1.1358 -0.6115
17810SOL    HW254009   7.129   1.024   3.110 -0.2679 -0.0690 -1.0979
17811SOL     OW54010   4.236   6.836   6.205  0.4971  0.2721  0.6250
17811SOL    HW154011   4.214   6.904   6.142 -0.8899 -0.2512  0.4911
17811SOL    HW254012   4.294   6.878   6.268  0.7835  1.1770 -0.2285
17812SOL     OW54013   2.406   8.015   9.371  0.6582 -0.1922  0.3859
17812SOL    HW154014   2.424   7.923   9.390 -1.0570 -0.9869 -1.5455
17812SOL    HW254015   2.478   8.062   9.412  0.9301 -2.2689  2.5134
17813SOL     OW54016   9.807   0.158   1.322 -0.1289  0.6094 -1.0902
17813SOL    HW154017   9.778   0.079   1.275 -1.5917  0.7548 -0.4914
17813SOL    HW254018   9.882   0.189   1.272 -1.4142  0.5733 -3.1662
17814SOL     OW54019   1.431   4.025   3.466 -0.1515  0.6713  0.3565
17814SOL    HW154020   1.345   4.054   3.436 -0.7127 -0.0837  1.1936
17814SOL    HW254021   1.446   4.075   3.546 -0.6837 -0.5705  1.2615
17815SOL     OW54022   5.119   1.004   9.784  0.1334 -0.6015  0.2793
17815SOL    HW154023   5.046   1.061   9.808  0.2543  0.2658 -1.2667
17815SOL    HW254024   5.181   1.012   9.857  0.7078  2.2790 -0.3932
17816SOL     OW54025   8.338   2.342   6.932  0.2278 -0.2197 -0.4040
17816SOL    HW154026   8.404   2.271   6.928 -1.4362 -1.8124 -1.1090
17816SOL    HW254027   8.359   2.397   6.856  0.7354 -0.7371 -0.6546
17817SOL     OW54028   7.268   7.974   7.930 -0.0891 -0.0900  0.4506
17817SOL    HW154029   7.347   7.997   7.979 -0.9776 -0.5636  2.2060
17817SOL    HW254030   7.234   8.058   7.899  0.6138  0.2073  0.4560
17818SOL     OW54031   4.385   1.754   1.996  0.0456 -0.1266  0.0867
17818SOL    HW154032   4.339   1.826   1.954  0.5533 -0.1681 -0.5560
17818SOL    HW254033   4.315   1.694   2.023 -0.2637 -0.8491 -2.0758
17819SOL     OW54034   5.851   4.531   1.722  0.8484 -0.1228 -0.1826
17819SOL    HW154035   5.841   4.437   1.735  0.3460  0.2626  2.9796
17819SOL    HW254036   5.801   4.550   1.643  0.7932 -2.4521 -0.7699
17820SOL     OW54037   1.042   7.581   2.356  0.2753  0.1144 -0.0222
17820SOL    HW154038   1.039   7.504   2.413 -0.2937  0.8995  1.0299
17820SOL    HW254039   0.975   7.564   2.290 -0.1928 -0.0681  0.4944
17821SOL     OW54040   8.154   0.863   5.580  0.6125 -0.1917 -0.0742
17821SOL    HW154041   8.099   0.797   5.537 -0.4155 -0.0771  1.0145
17821SOL    HW254042   8.243   0.834   5.563  0.1940 -1.1237 -0.7697
17822SOL     OW54043   5.291   4.242   8.491 -0.2987 -0.1694 -0.5298
17822SOL    HW154044   5.196   4.233   8.483 -0.6292  2.6599 -0.8975
17822SOL    HW254045   5.303   4.312   8.555  1.5638 -0.7849 -0.1640
17823SOL     OW54046   8.834   4.317   7.782 -0.0654 -0.3847  0.3087
17823SOL    HW154047   8.786   4.364   7.851  0.2043 -2.1848  1.8005
17823SOL    HW254048   8.913   4.369   7.767 -0.4794  0.4116  0.8180
17824SOL     OW54049   8.515   8.257   3.528  0.0144  0.4158 -0.6560
17824SOL    HW154050   8.535   8.335   3.476  0.3512  0.7993  0.0287
17824SOL    HW254051   8.559   8.186   3.482  1.1255  0.8968 -0.3938
17825SOL     OW54052   4.619   6.106   2.258  0.2796 -0.2639  0.2283
17825SOL    HW154053   4.541   6.152   2.226 -0.0553 -1.4053 -0.6887
17825SOL    HW254054   4.611   6.018   2.221  1.2850 -0.8336  1.3077
17826SOL     OW54055   8.146   0.686   9.367 -0.1399  0.2255 -0.1776
17826SOL    HW154056   8.115   0.769   9.332  0.4052 -0.2286 -1.8672
17826SOL    HW254057   8.241   0.689   9.356 -0.1611 -0.8435 -0.8609
17827SOL     OW54058   7.750   8.546   9.378 -0.1119  0.7865  0.0807
17827SOL    HW154059   7.832   8.501   9.399  0.7031  1.2836 -1.8151
17827SOL    HW254060   7.749   8.622   9.437  0.0156 -0.0199  1.1599
17828SOL     OW54061   8.543   1.152   0.866 -0.0747 -0.7295  0.5615
17828SOL    HW154062   8.502   1.237   0.883 -0.8022 -0.9204 -0.2119
17828SOL    HW254063   8.471   1.090   0.865  0.4983 -1.4507  1.5918
17829SOL     OW54064   2.566   9.160   7.501 -0.2752  0.3224  0.1410
17829SOL    HW154065   2.538   9.097   7.434 -1.2393  0.1260  0.7261
17829SOL    HW254066   2.609   9.107   7.568  0.7005  0.5215 -0.2943
17830SOL     OW54067   5.319   7.017   7.029  0.0653  0.1312  0.6329
17830SOL    HW154068   5.282   6.975   6.952  2.3419 -1.4238  0.2925
17830SOL    HW254069   5.243   7.036   7.084 -1.5704  0.8339 -1.7184
17831SOL     OW54070   4.216   5.630   7.764  0.0772 -0.2615 -0.4378
17831SOL    HW154071   4.243   5.553   7.713 -0.2028 -0.5469 -0.1614
17831SOL    HW254072   4.140   5.599   7.814  1.0839 -0.3416  1.0763
17832SOL     OW54073   9.161   0.634   5.686  0.1332 -0.4054 -0.4436
17832SOL    HW154074   9.239   0.688   5.676 -0.4307  1.0324  2.0654
17832SOL    HW254075   9.192   0.545   5.666  1.5667  0.4924 -2.6753
17833SOL     OW54076   1.582   3.086   3.138  0.0195  0.0838  1.1162
17833SOL    HW154077   1.522   3.028   3.184 -0.9175  0.7441  0.7703
17833SOL    HW254078   1.616   3.145   3.205 -1.0131  0.7698  1.0557
17834SOL     OW54079   2.501   9.034   1.993  0.1478  0.1388 -0.0992
17834SOL    HW154080   2.430   8.998   2.045  0.4695  1.6094  1.4453
17834SOL    HW254081   2.466   9.040   1.904 -0.8294 -1.3216  0.1670
17835SOL     OW54082   2.418   6.506   2.320  0.5364 -0.1697 -0.1831
17835SOL    HW154083   2.507   6.523   2.350  0.1371 -0.2557  1.1462
17835SOL    HW254084   2.388   6.432   2.373 -1.2165  1.5322  1.4160
17836SOL     OW54085   6.657   0.229   4.557  0.8316  0.1122  0.6460
17836SOL    HW154086   6.714   0.237   4.481  1.8188 -0.1292  1.3392
17836SOL    HW254087   6.571   0.207   4.521  1.3970 -0.5064 -0.3633
17837SOL     OW54088   2.460   6.465   2.750  0.4863  0.2053 -0.5432
17837SOL    HW154089   2.494   6.390   2.701  1.5483  1.2709 -1.4691
17837SOL    HW254090   2.535   6.522   2.764  0.3847 -0.2730  2.8761
17838SOL     OW54091   9.270   5.232   6.523  0.0060 -0.2879  0.1956
17838SOL    HW154092   9.216   5.154   6.507 -0.1804 -0.3961  1.2534
17838SOL    HW254093   9.222   5.303   6.480 -0.0922 -0.6762 -0.3382
17839SOL     OW54094   3.513   6.929   4.849  0.2649  0.9258 -0.5402
17839SOL    HW154095   3.499   6.870   4.923  1.4868  0.7743 -0.4199
17839SOL    HW254096   3.562   6.878   4.785  0.4253  1.4872 -0.8756
17840SOL     OW54097   2.988   0.384   6.173 -0.6160  0.1562 -0.0113
17840SOL    HW154098   3.053   0.315   6.174  1.7482  2.2196 -0.8775
17840SOL    HW254099   3.019   0.447   6.238 -1.6009  1.3236 -0.6340
17841SOL     OW54100   7.972   6.287   4.645  0.4558  0.0997  0.2125
17841SOL    HW154101   7.983   6.192   4.639 -0.7560 -0.0476  0.1328
17841SOL    HW254102   7.902   6.300   4.709  1.1495  0.9830  0.8166
17842SOL     OW54103   7.014   1.899   6.937 -0.1624 -0.2947  0.1369
17842SOL    HW154104   7.049   1.810   6.937 -1.0924 -0.6713  0.2437
17842SOL    HW254105   7.059   1.942   7.010  0.7658 -0.4739 -0.3124
17843SOL     OW54106   6.266   3.318   3.917 -0.2247  0.4940  0.1217
17843SOL    HW154107   6.218   3.394   3.952 -1.3600  0.1047 -0.5179
17843SOL    HW254108   6.293   3.345   3.830  0.0361  0.4235  0.1798
17844SOL     OW54109   8.036   8.386   6.843  0.0907  0.0310  0.0423
17844SOL    HW154110   7.980   8.464   6.841 -1.0815 -0.7949 -0.0704
17844SOL    HW254111   8.111   8.412   6.897 -1.4533  0.4590  2.0874
17845SOL     OW54112   7.021   8.108   6.024 -0.8514 -0.5485 -0.0915
17845SOL    HW154113   7.032   8.040   6.090 -0.9147 -1.6491 -1.1877
17845SOL    HW254114   6.930   8.101   5.996 -2.0154  2.4214  2.3152
17846SOL     OW54115   5.438   2.975   5.716  0.1761  0.1598  0.5283
17846SOL    HW154116   5.367   2.912   5.702  2.1192 -1.9434 -0.5240
17846SOL    HW254117   5.511   2.922   5.748  1.8250  1.9299 -0.1040
17847SOL     OW54118   7.820   0.555   1.388  0.1635  0.1301  0.0576
17847SOL    HW154119   7.818   0.519   1.300 -0.9810 -0.9768  0.5058
17847SOL    HW254120   7.765   0.496   1.440  2.3116 -0.3604  1.9510
17848SOL     OW54121   2.934   2.937   5.038 -0.4159  0.3068  0.1066
17848SOL    HW154122   2.919   3.021   5.082 -2.7785 -0.6411  1.2620
17848SOL    HW254123   3.027   2.918   5.053  0.1046  2.5199  0.0636
17849SOL     OW54124   4.391   2.529   5.555 -0.5648 -0.0472 -0.5524
17849SOL    HW154125   4.400   2.543   5.461 -0.0182  2.2365 -0.2026
17849SOL    HW254126   4.473   2.559   5.593 -1.5068  0.9318  0.8133
17850SOL     OW54127   0.080   1.634   1.282 -0.8776 -0.2052  0.4857
17850SOL    HW154128   0.093   1.544   1.314  0.6142 -0.2892 -0.2564
17850SOL    HW254129   0.162   1.655   1.238 -1.3133  1.4397  0.4118
17851SOL     OW54130   4.611   1.077   6.923 -0.2611  0.1504 -0.4660
17851SOL    HW154131   4.669   1.153   6.929  1.3838 -0.9911 -1.0938
17851SOL    HW254132   4.639   1.019   6.993 -0.1362 -0.7420 -1.2316
17852SOL     OW54133   2.469   5.824   3.864 -0.7351  0.4835  0.1929
17852SOL    HW154134   2.534   5.872   3.915 -0.6415 -0.0041  0.5398
17852SOL    HW254135   2.389   5.875   3.872 -1.0504 -0.2101  1.8569
17853SOL     OW54136   5.552   9.700   0.314 -0.3151 -0.1916  0.0090
17853SOL    HW154137   5.589   9.703   0.403  1.4897  0.2455 -0.7084
17853SOL    HW254138   5.468   9.746   0.321  0.3063  0.8107  1.2744
17854SOL     OW54139   9.174   9.130   8.526 -0.6628 -0.1020  0.1963
17854SOL    HW154140   9.198   9.120   8.433 -1.5827  1.2405 -0.2109
17854SOL    HW254141   9.127   9.049   8.547 -2.3508  0.4555 -1.1520
17855SOL     OW54142   5.208   5.452   0.097 -0.2660 -0.0199 -0.1650
17855SOL    HW154143   5.241   5.537   0.069 -1.5747  0.5246 -0.1136
17855SOL    HW254144   5.113   5.462   0.099 -0.4046 -1.2281  0.6648
17856SOL     OW54145   7.137   1.546   7.497 -0.1145  0.0089 -0.3927
17856SOL    HW154146   7.163   1.457   7.474 -0.7065 -0.0177 -1.0141
17856SOL    HW254147   7.042   1.548   7.481  0.0241  0.9923 -1.2302
17857SOL     OW54148   3.147   5.698   9.802  0.2453 -0.4122  0.3991
17857SOL    HW154149   3.209   5.692   9.729  0.6666 -0.9949  0.7943
17857SOL    HW254150   3.071   5.745   9.766  0.5321 -0.5146 -0.3481
17858SOL     OW54151   7.757   7.339   8.054 -0.6785  0.0004 -0.5412
17858SOL    HW154152   7.779   7.430   8.037 -0.0305  0.8780  3.8307
17858SOL    HW254153   7.662   7.337   8.056 -0.6906  0.8763  0.4091
17859SOL     OW54154   3.172   8.647   1.661  0.2996 -0.0668  0.2018
17859SOL    HW154155   3.081   8.621   1.678 -0.5122  1.9782 -0.7378
17859SOL    HW254156   3.221   8.614   1.736 -1.6181  0.7911  1.9105
17860SOL     OW54157   6.727   7.486   6.655  0.2524  0.1529  0.9752
17860SOL    HW154158   6.731   7.439   6.739 -2.6832  1.0634  1.7493
17860SOL    HW254159   6.692   7.572   6.677  1.5932  1.2757 -0.9573
17861SOL     OW54160   9.373   0.750   1.897  0.3792  0.0386 -0.7596
17861SOL    HW154161   9.449   0.805   1.879 -0.1982  0.6725 -1.3189
17861SOL    HW254162   9.324   0.747   1.815 -0.5806  0.2465 -0.2222
17862SOL     OW54163   7.586   7.031   7.783 -0.5806  0.3030 -0.3242
17862SOL    HW154164   7.623   6.974   7.850  0.0186  0.0382 -0.8728
17862SOL    HW254165   7.650   7.030   7.712  0.4513  3.2727  0.4430
17863SOL     OW54166   4.588   0.631   1.881  0.1974  0.1339  0.6183
17863SOL    HW154167   4.539   0.708   1.854  0.1468  0.2144  0.9452
17863SOL    HW254168   4.538   0.557   1.846  0.2732  0.2489  0.2621
17864SOL     OW54169   3.021   6.154   2.013 -0.2583  0.4818 -0.0328
17864SOL    HW154170   3.112   6.177   1.994  0.2414 -1.4592 -0.2376
17864SOL    HW254171   2.994   6.217   2.079  1.6384  0.3738  0.9215
17865SOL     OW54172   0.904   7.703   2.778  0.4270  0.4740  0.1911
17865SOL    HW154173   0.816   7.674   2.804  0.5965 -0.4524 -0.2040
17865SOL    HW254174   0.938   7.630   2.725  0.9619  1.3316 -0.6847
17866SOL     OW54175   3.053   4.812   0.705  0.0654  0.4083  0.1384
17866SOL    HW154176   3.117   4.783   0.770  1.0647  1.4735 -0.3356
17866SOL    HW254177   2.991   4.738   0.697  1.5260 -0.8735  0.2123
17867SOL     OW54178   0.692   5.122   3.614 -0.1505 -0.1623  0.3926
17867SOL    HW154179   0.769   5.174   3.639  0.2415 -0.1289 -0.7956
17867SOL    HW254180   0.717   5.082   3.531 -1.1978 -0.6507  0.3039
17868SOL     OW54181   3.424   0.051   9.063 -0.0312  0.5118  0.1752
17868SOL    HW154182   3.438  -0.017   9.129  0.9483  1.8785  1.4398
17868SOL    HW254183   3.456   0.011   8.981  0.3041 -0.6178  0.8286
17869SOL     OW54184   0.201   3.494   8.381 -0.2759  0.1457  0.3223
17869SOL    HW154185   0.289   3.480   8.418 -0.2883  0.5636  0.5134
17869SOL    HW254186   0.155   3.412   8.399  0.4176 -0.5199 -0.7841
17870SOL     OW54187   6.845   1.561   8.309  0.4743  0.1893  0.1850
17870SOL    HW154188   6.775   1.604   8.358  1.5701 -0.3305  2.2907
17870SOL    HW254189   6.891   1.633   8.265 -0.4489  0.6739 -0.0125
17871SOL     OW54190   6.339   5.800   7.168 -0.0200  0.1588  0.4651
17871SOL    HW154191   6.255   5.844   7.150  0.4996 -0.0820 -3.4924
17871SOL    HW254192   6.404   5.851   7.120  1.6378 -1.3128  1.0277
17872SOL     OW54193   2.822   2.058   9.925 -0.2971 -0.3301  0.0621
17872SOL    HW154194   2.787   2.104  10.001 -0.7168 -0.3802 -0.1037
17872SOL    HW254195   2.748   2.045   9.867 -0.0942 -0.8100 -0.1003
17873SOL     OW54196   9.045   9.321   4.946 -0.4415 -0.6479  0.1070
17873SOL    HW154197   9.108   9.367   4.891 -0.2038 -0.5912  0.4281
17873SOL    HW254198   9.013   9.250   4.890 -0.4470 -0.3943 -0.2194
17874SOL     OW54199   4.924   3.050   0.325  0.3142  0.4140  0.0326
17874SOL    HW154200   4.923   3.145   0.315  2.8561  0.7376  1.7975
17874SOL    HW254201   4.975   3.035   0.404  0.4856 -2.4648 -0.5184
17875SOL     OW54202   4.392   7.293   9.971  0.1414  0.0619  0.0677
17875SOL    HW154203   4.370   7.379   9.937 -0.5629  0.1893  0.8066
17875SOL    HW254204   4.308   7.249   9.983  0.5493 -1.3420 -1.7967
17876SOL     OW54205   1.666   2.656   5.968  0.0984  0.0247 -0.0293
17876SOL    HW154206   1.572   2.652   5.985 -0.0150  0.2037 -0.6012
17876SOL    HW254207   1.673   2.678   5.875  0.6485 -4.0134 -1.1601
17877SOL     OW54208   1.993   2.812   9.138  1.8466  0.0940 -0.2800
17877SOL    HW154209   1.904   2.793   9.165  1.0829  0.0814 -2.5848
17877SOL    HW254210   2.045   2.807   9.219 -0.0527 -0.8806  0.9390
17878SOL     OW54211   9.301   2.232   6.684  0.0471  0.6069 -0.2942
17878SOL    HW154212   9.360   2.157   6.680  0.2836  0.7714  0.0050
17878SOL    HW254213   9.357   2.304   6.715 -0.2714  0.8074 -0.1842
17879SOL     OW54214   8.136   2.822   5.556 -0.3728  0.1728 -0.3971
17879SOL    HW154215   8.084   2.893   5.518 -1.5118 -0.0967  0.5956
17879SOL    HW254216   8.191   2.864   5.621 -0.2775  0.2866 -0.5505
17880SOL     OW54217   5.736   5.247   1.332  0.1900  0.0442 -0.3521
17880SOL    HW154218   5.819   5.282   1.300  0.9433 -0.8374  0.5497
17880SOL    HW254219   5.686   5.324   1.357 -0.8028  0.8841 -4.2559
17881SOL     OW54220   7.499   9.033   8.698 -0.2328 -0.2791  0.3808
17881SOL    HW154221   7.591   9.023   8.672 -0.6480 -0.9475 -0.9681
17881SOL    HW254222   7.497   9.111   8.752  0.8885  0.6872 -0.8922
17882SOL     OW54223   5.566   3.065   5.307 -0.5591  0.5345 -0.2514
17882SOL    HW154224   5.496   3.006   5.334  1.6844 -1.3755  1.8795
17882SOL    HW254225   5.561   3.138   5.369 -0.1559 -0.0476  0.4852
17883SOL     OW54226   9.521   2.396   4.417  0.1743 -0.1202  0.3906
17883SOL    HW154227   9.489   2.331   4.355 -1.6408 -0.4632  1.5925
17883SOL    HW254228   9.564   2.345   4.485 -3.1137 -0.4544  2.4614
17884SOL     OW54229   6.802   9.558   3.930  0.0208  0.3413 -0.1215
17884SOL    HW154230   6.751   9.639   3.934  1.3262  1.1645  0.7318
17884SOL    HW254231   6.853   9.566   3.849  0.3311  0.4932  0.0873
17885SOL     OW54232   5.695   7.518   4.140 -0.0695  0.9653  0.1232
17885SOL    HW154233   5.605   7.489   4.126  0.2842  0.4537 -1.3288
17885SOL    HW254234   5.743   7.439   4.165 -0.3641  1.5897  2.8882
17886SOL     OW54235   9.911   6.571   9.326  0.2051  0.0266 -0.3610
17886SOL    HW154236   9.854   6.630   9.375  0.7065  0.3450 -0.1437
17886SOL    HW254237   9.862   6.489   9.319 -0.7891  0.6826 -1.2646
17887SOL     OW54238   2.130   2.901   1.220 -0.5428  0.1724  0.2379
17887SOL    HW154239   2.206   2.958   1.209 -0.8306  0.3497 -0.9163
17887SOL    HW254240   2.056   2.952   1.185 -1.3413  0.3055  2.0104
17888SOL     OW54241   6.430   0.342   1.773 -0.4436  0.0762  0.1000
17888SOL    HW154242   6.358   0.292   1.811  0.6480 -1.2524  0.5385
17888SOL    HW254243   6.415   0.432   1.801 -0.5899 -0.5894  2.3337
17889SOL     OW54244   5.568   2.372   1.142  0.5302 -0.2361 -0.2187
17889SOL    HW154245   5.653   2.335   1.164  2.0743 -0.1596 -4.8995
17889SOL    HW254246   5.509   2.297   1.142  2.2275 -1.7633 -3.3368
17890SOL     OW54247   4.053   1.916   1.558 -0.2476  0.1527 -0.3097
17890SOL    HW154248   3.988   1.847   1.569  0.0017 -0.4286 -2.1285
17890SOL    HW254249   4.009   1.982   1.505  0.6013 -0.2561 -1.5771
17891SOL     OW54250   7.251   0.523   0.942 -0.4557  0.3721  0.5080
17891SOL    HW154251   7.324   0.468   0.969  0.5929  1.0177 -0.8473
17891SOL    HW254252   7.235   0.499   0.851 -1.3929  0.8251  0.5350
17892SOL     OW54253   1.642   4.420   5.436  1.0405 -0.1892  0.8366
17892SOL    HW154254   1.689   4.468   5.368 -1.0677  1.1583  0.2606
17892SOL    HW254255   1.572   4.479   5.464  0.1700 -1.7895  2.2315
17893SOL     OW54256   0.356   7.709   6.899 -0.3278  0.0037 -0.3339
17893SOL    HW154257   0.265   7.716   6.870 -0.1773 -0.1390 -0.8484
17893SOL    HW254258   0.395   7.644   6.841 -0.0199 -0.2931  0.1947
17894SOL     OW54259   9.901   2.218   2.847 -0.3555 -0.4554 -0.3005
17894SOL    HW154260   9.810   2.219   2.876 -0.2790  0.5434 -0.0380
17894SOL    HW254261   9.924   2.311   2.839  2.0256 -0.3961  4.0592
17895SOL     OW54262   1.194   3.712   4.450  0.0027  0.1446 -0.1992
17895SOL    HW154263   1.260   3.656   4.410 -0.5640 -0.3267 -0.4845
17895SOL    HW254264   1.199   3.795   4.402  0.9839  0.4207  0.3580
17896SOL     OW54265   5.327   7.254   9.690 -0.2070  0.2408 -0.0309
17896SOL    HW154266   5.273   7.175   9.692  0.9069 -0.5269  0.6188
17896SOL    HW254267   5.403   7.233   9.744  0.2951  1.6307 -0.1543
17897SOL     OW54268   8.880   7.799   2.636  0.0656  0.0274 -0.8164
17897SOL    HW154269   8.902   7.760   2.552 -0.8721  1.5449 -1.8072
17897SOL    HW254270   8.910   7.735   2.701  0.9164 -1.1114 -2.2823
17898SOL     OW54271   0.832   6.570   6.512 -0.2869  0.0384 -0.4213
17898SOL    HW154272   0.763   6.635   6.526  0.6817  1.6900 -2.7737
17898SOL    HW254273   0.913   6.620   6.510  0.4623 -1.1162 -2.6366
17899SOL     OW54274   5.837   7.613   6.721  0.1380 -0.0010 -0.5981
17899SOL    HW154275   5.782   7.659   6.785 -1.0163  0.7506 -2.0745
17899SOL    HW254276   5.918   7.595   6.768 -0.8037  0.1799  1.1927
17900SOL     OW54277   3.711   9.678   4.088 -0.0016  0.1315  0.1588
17900SOL    HW154278   3.766   9.648   4.016  0.1479  2.3942 -0.7343
17900SOL    HW254279   3.650   9.740   4.048 -1.2638 -0.0787  1.6487
17901SOL     OW54280   1.162   3.814   5.623 -0.4552  0.0387 -0.1827
17901SOL    HW154281   1.155   3.893   5.569  1.3950 -0.7103 -1.6180
17901SOL    HW254282   1.209   3.844   5.701  2.0835  0.0479 -1.6184
17902SOL     OW54283   2.248   2.067   0.544 -0.5715 -0.0195  0.1531
17902SOL    HW154284   2.327   2.034   0.587  1.8936  1.8259 -2.5673
17902SOL    HW254285   2.249   2.161   0.563 -3.2976 -0.1679  1.6151
17903SOL     OW54286   6.031   7.470   0.529  0.1234  0.1037  0.3416
17903SOL    HW154287   5.980   7.389   0.527 -1.1444  0.8650  1.0400
17903SOL    HW254288   6.089   7.463   0.453 -1.3408 -0.5688 -0.7570
17904SOL     OW54289   2.269   9.719   4.230 -0.6085  0.1077  0.4910
17904SOL    HW154290   2.359   9.692   4.246 -0.6148 -2.1121 -2.2773
17904SOL    HW254291   2.263   9.807   4.265  2.4749  0.1269  1.2408
17905SOL     OW54292   5.989  10.013   2.990 -0.4037 -0.2642 -0.9107
17905SOL    HW154293   6.035   9.944   2.942  0.5844 -0.8323  0.7821
17905SOL    HW254294   5.935   9.966   3.053 -0.3222  0.4905 -0.2695
17906SOL     OW54295   4.855   9.514   6.211  0.4009 -0.0377  0.9173
17906SOL    HW154296   4.836   9.451   6.141  2.5495 -1.0303  1.1561
17906SOL    HW254297   4.887   9.461   6.283  0.7425  1.2134  1.7071
17907SOL     OW54298   9.704   0.476   9.718 -0.0108  0.0284  0.0460
17907SOL    HW154299   9.754   0.539   9.667  0.1525  0.4930  0.7732
17907SOL    HW254300   9.736   0.391   9.688 -1.5686  0.1719 -2.3184
17908SOL     OW54301   8.509   0.895   3.967  0.2804 -0.4899 -0.1463
17908SOL    HW154302   8.510   0.827   4.034  0.6579 -0.0230  0.3327
17908SOL    HW254303   8.525   0.977   4.015 -0.3804 -0.0342 -0.6803
17909SOL     OW54304   2.359   2.313   4.522  0.4162 -0.1140 -0.3856
17909SOL    HW154305   2.436   2.258   4.527 -0.2281 -0.9850  0.3228
17909SOL    HW254306   2.287   2.253   4.504 -0.4839  0.2794  1.5824
17910SOL     OW54307   4.939   8.046   0.400 -0.3160  0.4464  0.1757
17910SOL    HW154308   4.929   8.101   0.322 -1.9154  1.8565  1.3006
17910SOL    HW254309   4.991   7.971   0.370  1.8221  2.4572 -1.4496
17911SOL     OW54310   8.185   0.325   4.337 -0.6330 -0.1568  0.1812
17911SOL    HW154311   8.193   0.401   4.280 -1.2442 -0.3572 -0.1748
17911SOL    HW254312   8.091   0.316   4.353 -0.6609 -1.4150 -0.5842
17912SOL     OW54313   6.365   4.502   4.039 -0.2427 -0.3074  0.0367
17912SOL    HW154314   6.453   4.496   4.002  0.1181  3.7032 -0.1808
17912SOL    HW254315   6.309   4.524   3.965 -1.2303 -1.4667  0.4074
17913SOL     OW54316   6.459   5.788   5.176 -0.4026  0.0181 -0.3353
17913SOL    HW154317   6.396   5.755   5.241 -0.5873 -2.5862 -1.6913
17913SOL    HW254318   6.532   5.819   5.228 -0.4697 -2.1444  1.1944
17914SOL     OW54319   2.072   2.128   9.933  0.1895  0.2430 -0.2163
17914SOL    HW154320   2.166   2.110   9.931  0.0936 -0.2439 -0.5146
17914SOL    HW254321   2.058   2.174  10.016  1.0024  2.1397 -1.0849
17915SOL     OW54322   3.890   5.643   1.194  0.3042  0.2452 -0.3438
17915SOL    HW154323   3.964   5.584   1.208  1.4514  1.6285 -0.3303
17915SOL    HW254324   3.839   5.637   1.275  0.8532 -0.0868 -0.0172
17916SOL     OW54325   5.305   9.765   3.960  0.6374  0.1328 -0.1574
17916SOL    HW154326   5.214   9.793   3.967  0.9004  1.2027 -0.9033
17916SOL    HW254327   5.342   9.782   4.046 -0.0341 -0.9934  0.3837
17917SOL     OW54328   0.802   8.479   6.784  0.0791 -0.2389  0.2497
17917SOL    HW154329   0.797   8.388   6.812  0.1969  0.1333  1.5762
17917SOL    HW254330   0.809   8.475   6.689 -1.4534 -1.5571  0.1563
17918SOL     OW54331   2.645   1.933   5.749 -0.3862  0.1867  0.2949
17918SOL    HW154332   2.608   1.985   5.678  1.5021  0.3276 -0.6559
17918SOL    HW254333   2.693   1.996   5.802 -0.5809 -0.1410  0.8660
17919SOL     OW54334   8.046   2.113   2.176 -0.4346 -0.0081 -0.0017
17919SOL    HW154335   8.019   2.026   2.146  1.9095 -0.6422 -0.4262
17919SOL    HW254336   8.055   2.104   2.271  1.4335 -0.7496 -0.2189
17920SOL     OW54337   1.019   6.143   3.466  0.1234  0.7237  0.3268
17920SOL    HW154338   1.093   6.148   3.405  0.3772  1.4129  0.6821
17920SOL    HW254339   1.016   6.051   3.493  1.1761  0.7876  0.7047
17921SOL     OW54340   6.080   6.623   1.175 -0.3133  0.2299 -0.2756
17921SOL    HW154341   6.155   6.646   1.121  1.2889  0.7750  2.0258
17921SOL    HW254342   6.005   6.663   1.131  1.1038  1.8196 -1.3711
17922SOL     OW54343   0.533   5.677   8.150  0.0008 -0.6299  0.2177
17922SOL    HW154344   0.586   5.662   8.228  1.3113 -0.9697 -0.7004
17922SOL    HW254345   0.562   5.610   8.088  0.0869  0.5811 -1.0937
17923SOL     OW54346   6.516   1.449   6.192  0.5142  0.3211  0.0509
17923SOL    HW154347   6.598   1.418   6.229 -0.0106 -0.7773  0.3397
17923SOL    HW254348   6.535   1.464   6.099  0.6354 -1.6125 -0.2837
17924SOL     OW54349   7.840   2.334   4.184  0.4047 -0.3231 -0.2949
17924SOL    HW154350   7.815   2.373   4.100  1.0911 -0.8664 -0.7571
17924SOL    HW254351   7.904   2.395   4.221  1.0410 -0.7105 -0.7480
17925SOL     OW54352   1.435   0.960   9.450  0.1987  0.8474  0.1407
17925SOL    HW154353   1.529   0.970   9.461  0.3851  1.4156 -1.6112
17925SOL    HW254354   1.397   1.033   9.499  0.7983  1.7384 -0.6843
17926SOL     OW54355   0.195   9.116   4.026 -0.5143 -0.5591  0.0307
17926SOL    HW154356   0.137   9.127   3.950 -0.8875  0.6380  0.4668
17926SOL    HW254357   0.268   9.063   3.993 -1.3978 -1.3359 -0.7615
17927SOL     OW54358   7.647   8.435   0.441 -0.1924  0.5011 -0.2358
17927SOL    HW154359   7.566   8.398   0.405 -0.1014 -0.0903  0.1755
17927SOL    HW254360   7.619   8.483   0.519 -0.2207  0.7731 -0.4111
17928SOL     OW54361   9.907   9.099   2.105 -0.1998 -0.2536  0.0448
17928SOL    HW154362   9.822   9.129   2.136 -0.8163 -1.2448 -0.6441
17928SOL    HW254363   9.970   9.152   2.154 -1.1996  2.5406 -1.4414
17929SOL     OW54364   6.213   2.618   9.805 -0.3212 -0.0252  0.2729
17929SOL    HW154365   6.285   2.587   9.859 -1.1356 -1.5711  0.5279
17929SOL    HW254366   6.152   2.657   9.867  0.4643  1.7086  0.0079
17930SOL     OW54367   2.619   7.936   2.928  0.0613 -0.9453  0.2966
17930SOL    HW154368   2.584   7.913   3.014  0.9364 -1.7664  0.4491
17930SOL    HW254369   2.714   7.937   2.940  0.1525  0.1981 -0.3579
17931SOL     OW54370   4.779   8.715   9.327 -0.4056  0.5669  0.6680
17931SOL    HW154371   4.788   8.810   9.325  0.2751  0.5042 -0.3433
17931SOL    HW254372   4.685   8.699   9.321 -0.6626  1.1825  2.5376
17932SOL     OW54373   2.413   5.301   0.725  0.1382 -0.0028 -0.0403
17932SOL    HW154374   2.328   5.331   0.759  0.3803  0.6543 -0.0005
17932SOL    HW254375   2.446   5.375   0.675  1.1774  0.1435  0.8253
17933SOL     OW54376   8.894   5.302   4.286  0.2470 -0.4642  0.7632
17933SOL    HW154377   8.883   5.242   4.212 -2.1851  0.3938  0.3430
17933SOL    HW254378   8.833   5.269   4.352  0.3076  0.4380  1.2849
17934SOL     OW54379   8.207   8.089   8.766  0.1723  0.0192 -0.1637
17934SOL    HW154380   8.173   8.172   8.732 -1.4759 -0.1840  0.9140
17934SOL    HW254381   8.216   8.033   8.689  0.9397  1.0471 -0.8523
17935SOL     OW54382   8.038   6.440   0.157  0.9010 -0.0274 -0.4141
17935SOL    HW154383   7.958   6.395   0.186  2.6055 -2.1365  1.3249
17935SOL    HW254384   8.021   6.462   0.065 -1.0610 -1.8995 -0.5817
17936SOL     OW54385   5.246   2.049   2.838 -0.6413  0.0317 -0.0829
17936SOL    HW154386   5.162   2.092   2.818 -0.2163  0.0566 -2.0159
17936SOL    HW254387   5.311   2.118   2.824 -0.2718  0.1070  1.7385
17937SOL     OW54388   2.261   5.277   2.749 -0.1389  0.0161 -0.0912
17937SOL    HW154389   2.297   5.221   2.681  1.9790 -0.9223  1.6902
17937SOL    HW254390   2.177   5.237   2.772  0.2383 -1.0243 -0.4970
17938SOL     OW54391   9.739   4.701   5.303 -0.2813 -0.0639  0.0141
17938SOL    HW154392   9.678   4.774   5.313  1.2557  1.4160 -0.8670
17938SOL    HW254393   9.800   4.711   5.376 -0.3916 -0.8389  0.2243
17939SOL     OW54394   6.844   5.188   5.565  0.1547 -0.9220  0.4490
17939SOL    HW154395   6.867   5.269   5.520 -0.6997  0.8148  2.9044
17939SOL    HW254396   6.758   5.165   5.530  0.4327 -0.8132 -0.3186
17940SOL     OW54397   0.066   5.090   0.986 -0.0682  0.1531 -0.6223
17940SOL    HW154398   0.041   5.127   0.902  1.7063  1.6361 -0.5577
17940SOL    HW254399  -0.016   5.061   1.025 -0.9256 -0.6394 -2.8550
17941SOL     OW54400   0.544   4.586   0.844  0.5633 -0.1229  0.1074
17941SOL    HW154401   0.602   4.564   0.772  0.1069  0.5832 -0.4989
17941SOL    HW254402   0.458   4.555   0.816  0.6197 -1.0666  0.9497
17942SOL     OW54403   5.126   5.945   6.136 -0.1678  0.0995  1.1022
17942SOL    HW154404   5.070   5.964   6.060 -0.4080 -2.3279  0.5936
17942SOL    HW254405   5.084   5.989   6.209 -1.3302  0.4330  0.2554
17943SOL     OW54406   6.820   6.750   7.144 -0.3544 -0.5974  0.1187
17943SOL    HW154407   6.803   6.666   7.185 -1.0138  0.4807  2.2006
17943SOL    HW254408   6.734   6.780   7.114 -0.1680 -0.5101 -0.3419
17944SOL     OW54409   7.096   3.233   7.457 -0.4819  0.4835  1.2234
17944SOL    HW154410   7.028   3.291   7.490 -0.7501  0.2867  1.0156
17944SOL    HW254411   7.119   3.269   7.371 -1.1026 -0.0861  0.8119
17945SOL     OW54412   2.735   9.740   7.782  0.0573 -0.6056  0.2281
17945SOL    HW154413   2.750   9.654   7.742  1.1479 -0.2096 -0.2664
17945SOL    HW254414   2.787   9.800   7.730  1.0263  0.0388  1.8413
17946SOL     OW54415   6.405   7.065   6.381 -0.2051  0.0695  0.0910
17946SOL    HW154416   6.329   7.079   6.437  0.2847  0.7638  0.6130
17946SOL    HW254417   6.383   7.109   6.299 -0.6641 -0.3797 -0.0291
17947SOL     OW54418   1.273   4.926   9.175  0.0637 -0.4950  0.0778
17947SOL    HW154419   1.319   4.910   9.093  0.9438  1.4651  0.1343
17947SOL    HW254420   1.307   4.861   9.235  0.5881 -0.9400 -0.6904
17948SOL     OW54421   5.343   8.582   4.249 -0.4911 -0.2828  0.4260
17948SOL    HW154422   5.295   8.542   4.176 -0.7009  0.5427  0.1037
17948SOL    HW254423   5.435   8.560   4.232 -0.4217  0.7656 -0.6573
17949SOL     OW54424   4.494   5.649   0.813 -0.0641 -0.1964 -0.4327
17949SOL    HW154425   4.408   5.610   0.794 -0.6120  1.2260 -1.0215
17949SOL    HW254426   4.554   5.574   0.816 -0.9690 -1.0467 -2.0702
17950SOL     OW54427   4.517   3.608   1.964  0.0371 -0.0713 -0.4957
17950SOL    HW154428   4.539   3.564   1.882  0.7964 -0.4014 -0.1309
17950SOL    HW254429   4.515   3.538   2.029 -1.1380  0.1025 -0.3233
17951SOL     OW54430   5.479   5.417   4.060  0.0437 -1.0434  0.1266
17951SOL    HW154431   5.407   5.433   3.999  0.0041  1.0317  0.6543
17951SOL    HW254432   5.555   5.404   4.004 -0.1187  0.1471 -0.3940
17952SOL     OW54433   0.161   1.073   5.012 -1.2649 -0.6659 -0.3553
17952SOL    HW154434   0.247   1.040   4.987 -0.2730  0.3083  1.5733
17952SOL    HW254435   0.145   1.145   4.951  0.9452  1.4507  1.3536
17953SOL     OW54436   7.298   3.580   8.235 -0.6573  0.3432 -0.4046
17953SOL    HW154437   7.361   3.591   8.163 -0.7639  2.6958 -0.2182
17953SOL    HW254438   7.224   3.534   8.196  0.5415 -1.1694 -0.9950
17954SOL     OW54439   9.694   1.737   8.065  0.0580 -0.2798 -0.8031
17954SOL    HW154440   9.644   1.794   8.007 -1.8058 -0.0101  0.9595
17954SOL    HW254441   9.637   1.723   8.141  0.7480 -3.8001 -0.7431
17955SOL     OW54442   3.729   0.694   8.444  0.0832  0.0333  0.1971
17955SOL    HW154443   3.654   0.753   8.442  0.5768  0.6863  0.4140
17955SOL    HW254444   3.799   0.743   8.401 -0.0904 -1.2852 -1.7548
17956SOL     OW54445   5.757   6.252   7.199 -0.2086  0.7093 -0.1234
17956SOL    HW154446   5.721   6.207   7.122 -2.1142  0.1907  1.0105
17956SOL    HW254447   5.721   6.340   7.195 -0.1098  0.7586  0.0551
17957SOL     OW54448   8.229   7.587   7.976 -0.1252  0.3500 -0.1334
17957SOL    HW154449   8.304   7.641   7.951  0.2518 -0.4778 -0.8921
17957SOL    HW254450   8.236   7.510   7.919 -2.6583  1.1237 -1.6575
17958SOL     OW54451   3.874   0.897   9.526  0.2767 -0.5963  0.5257
17958SOL    HW154452   3.842   0.827   9.583  0.5306 -0.8037  0.4141
17958SOL    HW254453   3.799   0.957   9.518 -0.3751 -1.4938 -0.4111
17959SOL     OW54454   7.143   6.847   2.069  0.4904 -0.0752 -0.0314
17959SOL    HW154455   7.138   6.828   1.976 -0.0173  0.1902 -0.0580
17959SOL    HW254456   7.237   6.845   2.089  0.5750 -0.5044 -0.4676
17960SOL     OW54457   4.170   9.523   8.193 -0.2244 -0.3908 -0.2131
17960SOL    HW154458   4.166   9.617   8.177 -0.9576 -0.0669  1.6358
17960SOL    HW254459   4.262   9.501   8.185  0.3461  1.0041  1.7821
17961SOL     OW54460   7.155   1.378   5.090 -0.3115  0.1886  0.2322
17961SOL    HW154461   7.122   1.363   5.179 -1.9705 -0.7860 -0.4912
17961SOL    HW254462   7.201   1.298   5.067  1.4042  0.9998  0.7079
17962SOL     OW54463   9.378   4.009   1.735 -0.2181 -0.2428  0.0332
17962SOL    HW154464   9.400   4.102   1.731 -1.6302  0.1122  0.0868
17962SOL    HW254465   9.428   3.969   1.664 -0.3774  0.7239 -0.6400
17963SOL     OW54466   4.001   6.187   3.442  0.4684  0.1123 -0.1284
17963SOL    HW154467   4.008   6.128   3.367  2.8531 -0.7410  0.6712
17963SOL    HW254468   4.005   6.274   3.405 -1.4074 -0.2048 -1.1923
17964SOL     OW54469   9.322   0.100   3.301 -0.1409  0.3553  0.0095
17964SOL    HW154470   9.384   0.054   3.358  0.1724  1.1924  0.3572
17964SOL    HW254471   9.235   0.075   3.335 -0.0708 -1.6444 -1.1159
17965SOL     OW54472   2.567   3.394   5.303  0.0780 -0.0687 -0.3369
17965SOL    HW154473   2.645   3.358   5.346  0.7730  0.7345 -0.9043
17965SOL    HW254474   2.503   3.402   5.374  0.4682 -0.8386  0.1209
17966SOL     OW54475   9.719   9.733   7.043  0.0085 -0.3875 -0.1683
17966SOL    HW154476   9.703   9.762   6.953 -0.0837 -0.9395 -0.3284
17966SOL    HW254477   9.801   9.777   7.068  1.0349 -1.6762 -1.1554
17967SOL     OW54478   1.363   8.395   0.634 -0.0368 -0.4060 -0.2337
17967SOL    HW154479   1.283   8.409   0.583 -0.2682 -1.1605 -0.0803
17967SOL    HW254480   1.433   8.430   0.577 -0.4378  0.0181 -0.4770
17968SOL     OW54481   4.807   0.219   0.584  0.2684  0.2255 -0.1100
17968SOL    HW154482   4.811   0.132   0.544 -1.6852  0.2634 -0.5013
17968SOL    HW254483   4.773   0.276   0.514 -0.1123  0.9512  0.6429
17969SOL     OW54484   8.793   9.815   1.301  0.2430 -0.2287  0.2862
17969SOL    HW154485   8.760   9.863   1.225  0.9892 -0.7421 -0.3751
17969SOL    HW254486   8.742   9.734   1.302 -1.3255  0.7081  1.6596
17970SOL     OW54487   5.855   1.726   9.768  0.2975  0.1744 -0.3001
17970SOL    HW154488   5.878   1.815   9.738  0.3456  0.3386  0.2211
17970SOL    HW254489   5.773   1.737   9.815  0.9579  0.1565  0.8882
17971SOL     OW54490   2.109   2.881   8.263 -0.8350 -0.3515 -0.2085
17971SOL    HW154491   2.025   2.904   8.225 -0.3077  1.0463 -0.5635
17971SOL    HW254492   2.109   2.922   8.350 -0.1396  0.4839 -0.5916
17972SOL     OW54493   3.088   3.026   8.306  0.1266  0.0942 -0.1057
17972SOL    HW154494   3.045   2.976   8.236  2.5058 -0.0398 -1.5704
17972SOL    HW254495   3.062   3.116   8.290 -0.3160 -0.0785 -0.4083
17973SOL     OW54496   5.225   7.566   2.440 -0.1582  0.5086 -0.5278
17973SOL    HW154497   5.313   7.533   2.458 -0.2075 -0.4916 -1.9333
17973SOL    HW254498   5.233   7.661   2.446  1.2899  0.4956 -1.6311
17974SOL     OW54499   9.616   4.900   4.849 -0.5943 -0.3953  0.2363
17974SOL    HW154500   9.556   4.826   4.862  0.6285 -1.4933 -0.0549
17974SOL    HW254501   9.702   4.865   4.875  0.2480  0.4797 -1.2249
17975SOL     OW54502   7.151   0.088   2.743 -0.6209  0.0127 -0.4363
17975SOL    HW154503   7.060   0.059   2.738 -0.0690 -1.7445 -1.0815
17975SOL    HW254504   7.175   0.107   2.652  0.0683 -1.0177 -0.4971
17976SOL     OW54505   4.573   6.781   9.530  0.2527  0.1127  0.4043
17976SOL    HW154506   4.509   6.839   9.488  2.2587  1.8600 -0.4511
17976SOL    HW254507   4.550   6.784   9.623 -1.6987 -0.4433 -0.0028
17977SOL     OW54508   1.727   8.985   5.951 -0.3850  0.2587 -0.2036
17977SOL    HW154509   1.633   9.006   5.955 -0.2281  0.8092  0.9095
17977SOL    HW254510   1.740   8.923   6.023  0.1750  0.4640 -0.1230
17978SOL     OW54511   0.218   8.560   0.395  0.5457  0.5093  0.8356
17978SOL    HW154512   0.141   8.503   0.405  0.0676  0.9074 -0.4003
17978SOL    HW254513   0.271   8.542   0.472 -1.3258  1.0659  2.3408
17979SOL     OW54514   2.788   3.304   1.740  0.5755  0.5057  0.6081
17979SOL    HW154515   2.698   3.291   1.769  0.9691 -1.0225  1.2249
17979SOL    HW254516   2.809   3.394   1.764 -0.7092  0.8106  0.6350
17980SOL     OW54517   7.812   6.733   8.374  0.3003  0.1327  0.4764
17980SOL    HW154518   7.813   6.827   8.394 -1.8664  0.2620  0.1708
17980SOL    HW254519   7.872   6.695   8.437  3.0164  1.9406 -0.8272
17981SOL     OW54520   9.860   9.027   8.542  0.5143 -0.2897  0.2391
17981SOL    HW154521   9.787   9.028   8.480  0.7353 -2.0490 -0.1004
17981SOL    HW254522   9.819   9.048   8.626 -0.0075  0.8289 -0.2707
17982SOL     OW54523   0.652   9.167   3.626  0.0760 -0.0111 -0.4809
17982SOL    HW154524   0.650   9.101   3.557  0.1399  0.4506 -0.9365
17982SOL    HW254525   0.701   9.240   3.587 -0.2941  0.4361 -0.1175
17983SOL     OW54526   7.678   9.038   0.743  0.2673 -0.3322  0.3990
17983SOL    HW154527   7.757   9.086   0.767  0.9850 -0.5639 -1.3392
17983SOL    HW254528   7.705   8.946   0.743 -0.4842 -0.5687  1.4802
17984SOL     OW54529   8.549   8.872   2.364 -0.4215 -0.7206  0.5850
17984SOL    HW154530   8.513   8.845   2.280  0.3845 -0.6200  0.1903
17984SOL    HW254531   8.523   8.964   2.373  3.0716  0.7030 -1.6812
17985SOL     OW54532   8.206   3.182   7.369 -0.0767 -0.1620  0.2285
17985SOL    HW154533   8.220   3.228   7.286  0.9916 -1.3635 -0.2865
17985SOL    HW254534   8.241   3.241   7.435  2.0479 -0.5372 -0.4959
17986SOL     OW54535   2.041   7.993   5.722 -0.6319 -0.1011  0.2176
17986SOL    HW154536   1.961   8.026   5.763  0.2291  1.8944  0.3868
17986SOL    HW254537   2.032   8.017   5.629 -0.2844  0.0263  0.2162
17987SOL     OW54538   5.491   3.516   6.847  0.2789 -0.1615  0.5177
17987SOL    HW154539   5.428   3.472   6.905  1.5467 -2.3501  0.3107
17987SOL    HW254540   5.575   3.473   6.865  0.7724 -0.8460 -2.7830
17988SOL     OW54541   9.263   2.232   0.482 -0.4207 -0.7541 -0.1270
17988SOL    HW154542   9.179   2.255   0.523 -0.6380 -2.1411  0.2771
17988SOL    HW254543   9.251   2.251   0.389  0.2007  2.8099  0.3767
17989SOL     OW54544   2.552   5.092   0.641 -0.3457  0.3241 -0.3704
17989SOL    HW154545   2.571   5.044   0.721 -2.1542 -0.6976 -0.5037
17989SOL    HW254546   2.531   5.181   0.671  1.2227  0.5874  0.0373
17990SOL     OW54547   3.947   7.940   4.828 -0.4714 -0.2739  0.3049
17990SOL    HW154548   3.860   7.934   4.866 -0.0802 -1.8476  1.0206
17990SOL    HW254549   3.957   7.860   4.776  0.1492  0.4109 -0.6740
17991SOL     OW54550   6.053   6.635   5.707 -0.1351  0.5443  0.9186
17991SOL    HW154551   6.117   6.659   5.640 -1.4196 -0.1168 -0.6184
17991SOL    HW254552   6.097   6.567   5.759  0.8571  1.0132  0.7166
17992SOL     OW54553   3.207   5.329   4.423  0.1358  0.6804 -0.1366
17992SOL    HW154554   3.157   5.353   4.500  2.5225  0.3323  1.6355
17992SOL    HW254555   3.270   5.400   4.411  1.9548 -0.7888  0.2884
17993SOL     OW54556   9.600   6.528   4.761 -0.0441 -0.0166  0.4330
17993SOL    HW154557   9.569   6.452   4.810 -0.8221  0.0518  0.0542
17993SOL    HW254558   9.582   6.508   4.669  1.0653  0.0158  0.1893
17994SOL     OW54559   7.785   3.816   4.570  0.3259 -0.3280 -0.6848
17994SOL    HW154560   7.744   3.877   4.509 -1.1253 -2.5971 -2.1011
17994SOL    HW254561   7.735   3.825   4.651  0.7902  1.0362 -0.5206
17995SOL     OW54562   1.300   0.284   3.491 -0.4542 -0.2263 -0.0248
17995SOL    HW154563   1.305   0.222   3.564 -0.8376 -1.6293 -1.1385
17995SOL    HW254564   1.386   0.278   3.449 -0.0632  0.9446  0.5659
17996SOL     OW54565   6.558   7.044   5.431 -0.1252  0.2513  0.4336
17996SOL    HW154566   6.614   7.121   5.425 -0.4835  0.5511  0.8637
17996SOL    HW254567   6.573   6.997   5.349  0.6048  0.4276  0.4585
17997SOL     OW54568   3.491   1.269   2.394  0.3612  0.1045 -0.1733
17997SOL    HW154569   3.439   1.190   2.375 -0.5390  0.9118 -1.1884
17997SOL    HW254570   3.502   1.267   2.489  0.8482 -1.5317 -0.2279
17998SOL     OW54571   5.386   9.758   6.027  0.0816  0.3266  0.3967
17998SOL    HW154572   5.344   9.684   6.071 -1.1611 -0.0114 -1.2457
17998SOL    HW254573   5.427   9.720   5.949  0.8839  1.1252  0.4104
17999SOL     OW54574   5.843   9.513   8.287 -0.1587  0.4464 -0.3855
17999SOL    HW154575   5.927   9.477   8.259  0.1691 -0.0250  1.1261
17999SOL    HW254576   5.791   9.436   8.309 -0.9171  0.7497 -1.0661
18000SOL     OW54577   1.374   8.760   6.527 -0.2997  0.2324  0.2972
18000SOL    HW154578   1.454   8.763   6.578 -0.5827 -1.2493  0.8688
18000SOL    HW254579   1.358   8.851   6.502  0.0426  0.9711  2.5477
18001SOL     OW54580   3.950   2.679   5.837 -0.5346 -0.2831 -0.4346
18001SOL    HW154581   3.987   2.663   5.924  0.4849  0.4031 -0.7158
18001SOL    HW254582   4.015   2.642   5.777 -0.5696  0.4414 -0.9318
18002SOL     OW54583   4.743   7.487   6.116 -0.1009 -0.1857 -0.1563
18002SOL    HW154584   4.786   7.548   6.056 -0.9405  0.0620 -0.5136
18002SOL    HW254585   4.707   7.542   6.185 -0.7217 -0.2860 -0.3947
18003SOL     OW54586   5.726   1.049   6.481 -0.2814  0.2019  0.3702
18003SOL    HW154587   5.756   0.961   6.459 -1.1295 -0.4858  1.8380
18003SOL    HW254588   5.712   1.091   6.397 -0.7595 -1.3819 -0.3833
18004SOL     OW54589   3.095   0.790   3.624 -0.1545  0.3236  0.2452
18004SOL    HW154590   3.185   0.777   3.594  0.2708  1.0082  1.1615
18004SOL    HW254591   3.042   0.732   3.569  0.8110  0.1196 -0.4910
18005SOL     OW54592   1.054   2.292   3.277  0.3910  0.4093 -0.4234
18005SOL    HW154593   1.018   2.363   3.224  1.0275 -0.4069 -2.0023
18005SOL    HW254594   0.977   2.244   3.308 -0.0918  2.2078  1.3592
18006SOL     OW54595   2.300   1.980   6.632 -0.7079  0.5737  0.1560
18006SOL    HW154596   2.383   1.967   6.678 -1.3910  0.2539  1.3268
18006SOL    HW254597   2.255   2.048   6.682 -1.4648  0.2167 -0.0280
18007SOL     OW54598   9.486   3.492   1.953 -0.2270 -0.3623  0.6296
18007SOL    HW154599   9.488   3.574   2.003 -0.1846  0.5949 -0.8691
18007SOL    HW254600   9.557   3.439   1.990 -0.3141  0.2381  1.6872
18008SOL     OW54601   3.448   4.335   5.992 -0.2845  0.1887  0.5029
18008SOL    HW154602   3.544   4.332   5.983 -0.2407 -0.5242  1.2107
18008SOL    HW254603   3.433   4.387   6.071 -0.4491 -0.5453  0.9617
18009SOL     OW54604   4.783   2.273   5.256  0.0077 -0.2230  0.0570
18009SOL    HW154605   4.827   2.339   5.204 -0.0265  1.2323  1.7551
18009SOL    HW254606   4.711   2.243   5.201  0.6804  0.3548 -1.1747
18010SOL     OW54607   9.253   6.909   2.443  0.4051  0.0941 -0.1833
18010SOL    HW154608   9.296   6.918   2.528 -0.2248 -1.0097  0.2738
18010SOL    HW254609   9.211   6.823   2.447  2.5325 -1.1802 -2.6068
18011SOL     OW54610   5.856   3.301   6.458 -0.2855  0.3598  0.1784
18011SOL    HW154611   5.933   3.353   6.434 -0.9327  0.6329 -1.4977
18011SOL    HW254612   5.787   3.366   6.471 -0.6820  0.0321 -0.2351
18012SOL     OW54613   5.476   5.167   2.099 -0.0808  0.8060 -0.1259
18012SOL    HW154614   5.433   5.098   2.150  0.5305  0.9865  0.6674
18012SOL    HW254615   5.546   5.121   2.052 -0.7921  0.6008 -0.9974
18013SOL     OW54616   5.488   5.609   3.475 -0.7525  0.2355  0.4399
18013SOL    HW154617   5.486   5.626   3.381 -0.0914 -0.1759  0.3449
18013SOL    HW254618   5.429   5.674   3.512  0.1999  1.4566 -0.0960
18014SOL     OW54619   5.176   1.099   5.564  0.0986 -0.4773 -0.2872
18014SOL    HW154620   5.144   1.011   5.582  0.2190 -0.8655 -1.8576
18014SOL    HW254621   5.270   1.088   5.547  0.1838  0.0043 -0.1640
18015SOL     OW54622   9.559   3.728   6.185  0.0018  0.4984  0.2147
18015SOL    HW154623   9.568   3.814   6.226 -1.0151  0.5852  0.2753
18015SOL    HW254624   9.570   3.666   6.258  0.3180  0.5857  0.2429
18016SOL     OW54625   8.135   2.531   4.939  0.1047 -0.1059 -0.0640
18016SOL    HW154626   8.054   2.489   4.913 -0.6906 -0.1425  2.2636
18016SOL    HW254627   8.108   2.606   4.992  1.5675 -0.4065  1.1914
18017SOL     OW54628   1.341   2.793   1.450  0.0652 -0.1164  0.1349
18017SOL    HW154629   1.298   2.744   1.519 -0.0259 -1.7867 -1.0624
18017SOL    HW254630   1.421   2.744   1.430 -0.6056 -0.4752 -1.8881
18018SOL     OW54631   3.745   9.743   4.522  0.3373 -0.0909  0.2040
18018SOL    HW154632   3.683   9.736   4.449 -0.0302 -1.2070  0.6019
18018SOL    HW254633   3.728   9.829   4.560  0.0585  0.2205 -0.6028
18019SOL     OW54634   6.902   3.530   8.188  0.0686 -0.5625 -0.7633
18019SOL    HW154635   6.845   3.543   8.112  0.4643  0.8455 -0.8490
18019SOL    HW254636   6.982   3.492   8.152  1.4350  2.7633 -1.6068
18020SOL     OW54637   0.314   8.159   5.110 -0.0619  0.2669  0.2959
18020SOL    HW154638   0.318   8.255   5.106 -2.6454  0.3896 -2.3390
18020SOL    HW254639   0.232   8.141   5.156  0.2367 -0.7005  0.4641
18021SOL     OW54640   5.767   6.553   2.515  0.0146 -0.1133 -0.0058
18021SOL    HW154641   5.842   6.494   2.508 -0.2931 -0.4822 -0.3174
18021SOL    HW254642   5.805   6.640   2.523  0.4778 -0.3342  0.2211
18022SOL     OW54643   4.035   2.425   5.692  0.2071 -0.5086 -0.4949
18022SOL    HW154644   4.120   2.383   5.682  0.2451 -0.4420 -0.4520
18022SOL    HW254645   3.986   2.368   5.751  0.3092 -0.4182 -0.3202
18023SOL     OW54646   4.573   2.261   7.773  0.5129 -0.2373 -0.0180
18023SOL    HW154647   4.515   2.190   7.746 -0.9515  1.1967 -0.8489
18023SOL    HW254648   4.618   2.287   7.693  0.4822  0.2362  0.1146
18024SOL     OW54649   1.013   5.328   1.731  0.4878  0.2959  0.7558
18024SOL    HW154650   0.926   5.353   1.761  0.0321 -0.1822 -0.1322
18024SOL    HW254651   1.021   5.366   1.644  0.1851 -1.6844 -0.2029
18025SOL     OW54652   5.181   6.077   9.616 -0.0228  0.4893  0.2707
18025SOL    HW154653   5.197   6.133   9.540  0.3298  1.0470  0.7488
18025SOL    HW254654   5.256   6.017   9.617  0.8140  1.5050  1.0775
18026SOL     OW54655   9.360   5.559   3.309 -0.4464 -0.8042 -0.1822
18026SOL    HW154656   9.267   5.573   3.328  0.1875  0.9806  1.9723
18026SOL    HW254657   9.371   5.464   3.312 -1.6601 -0.9523  2.6539
18027SOL     OW54658   1.198   3.319   0.242 -0.4159 -0.2817  0.1031
18027SOL    HW154659   1.220   3.405   0.206 -1.5195  0.2177  0.5596
18027SOL    HW254660   1.280   3.287   0.279  0.6311 -0.5721 -2.2725
18028SOL     OW54661   7.185   0.416   3.489  0.2569  0.5241 -0.4189
18028SOL    HW154662   7.166   0.330   3.452  0.1186 -0.2785  1.4267
18028SOL    HW254663   7.113   0.433   3.550  2.3428  0.0037  2.4112
18029SOL     OW54664   1.291   1.048   4.815 -0.0839 -0.0346  0.0811
18029SOL    HW154665   1.252   1.021   4.898  0.0562 -2.4378 -0.5683
18029SOL    HW254666   1.363   1.105   4.840 -1.8053  1.7032  1.4425
18030SOL     OW54667   9.786   2.051   2.680 -0.3656 -0.1476 -0.4408
18030SOL    HW154668   9.779   2.103   2.601  1.0278 -1.7450 -1.6859
18030SOL    HW254669   9.846   2.101   2.737  0.9549 -0.3362 -1.6109
18031SOL     OW54670   7.354   3.617   0.992 -1.0884  0.4620  0.7727
18031SOL    HW154671   7.328   3.527   1.011  1.7153 -0.8071 -0.7220
18031SOL    HW254672   7.301   3.641   0.916 -1.5873 -0.0887  0.9357
18032SOL     OW54673   8.861   2.716   3.795 -0.0221  0.3816 -0.1404
18032SOL    HW154674   8.952   2.709   3.766  0.0257 -0.4921  0.1959
18032SOL    HW254675   8.867   2.747   3.886 -0.0329 -0.3115  0.0977
18033SOL     OW54676   6.181   9.379   8.441  0.3654  0.5715  0.1699
18033SOL    HW154677   6.186   9.344   8.352  0.9415  0.6548  0.1692
18033SOL    HW254678   6.166   9.473   8.430 -1.5179  0.3094  0.1710
18034SOL     OW54679   1.132   2.673   6.437 -0.0015 -0.1559  0.0489
18034SOL    HW154680   1.206   2.672   6.376  0.5136 -1.7410  0.6479
18034SOL    HW254681   1.166   2.632   6.517 -1.6739 -1.5593  0.1139
18035SOL     OW54682   6.982   8.296   7.306 -0.3093 -0.2998  0.1219
18035SOL    HW154683   6.908   8.295   7.367 -0.6734  3.3371 -0.0084
18035SOL    HW254684   7.060   8.289   7.362 -0.6831 -1.0833  0.5601
18036SOL     OW54685   7.777   1.170   4.817 -0.0277  0.0935  0.9181
18036SOL    HW154686   7.819   1.196   4.735  1.2948 -1.8595  0.9263
18036SOL    HW254687   7.825   1.217   4.885 -0.8743  1.4107  0.6460
18037SOL     OW54688   3.829   3.561   0.243  0.0795  0.1244  0.3866
18037SOL    HW154689   3.763   3.566   0.312  1.0836  1.3491  1.3033
18037SOL    HW254690   3.910   3.591   0.285  0.8886  0.1525 -1.1189
18038SOL     OW54691   3.389   2.852   0.612 -0.4503 -0.4652 -0.1798
18038SOL    HW154692   3.374   2.862   0.518  0.6810 -1.9031 -0.5577
18038SOL    HW254693   3.482   2.829   0.619 -0.5467 -0.5075  1.2882
18039SOL     OW54694   4.447   1.678   8.309  0.2060  0.0280 -0.5731
18039SOL    HW154695   4.438   1.771   8.333  0.2372 -0.2332  0.5414
18039SOL    HW254696   4.508   1.643   8.374 -0.6594 -1.0138 -0.2990
18040SOL     OW54697   1.962   7.520   0.802 -0.6116  0.4233 -0.0186
18040SOL    HW154698   2.028   7.584   0.775 -0.1127  0.0634  0.3334
18040SOL    HW254699   2.003   7.435   0.787 -1.1476  0.1924 -0.1738
18041SOL     OW54700   6.039   3.471   6.395 -0.4709  0.0617  0.6835
18041SOL    HW154701   6.008   3.558   6.421  2.1626  1.3153 -0.0231
18041SOL    HW254702   6.101   3.488   6.325  0.4045 -2.3858  0.7686
18042SOL     OW54703   3.271   6.309   1.270 -0.0793  0.3614  0.0344
18042SOL    HW154704   3.182   6.294   1.238 -0.5007  0.1236  1.2629
18042SOL    HW254705   3.303   6.221   1.294 -0.5733  0.7261  2.2315
18043SOL     OW54706   6.060   8.343   4.100 -0.2634 -0.3171 -0.0448
18043SOL    HW154707   6.021   8.287   4.166 -1.2817  0.4151 -0.0138
18043SOL    HW254708   6.136   8.293   4.069  1.6176  0.2618  3.2257
18044SOL     OW54709   4.925   8.764   3.109 -0.7112 -0.4452  0.3216
18044SOL    HW154710   4.970   8.793   3.188  1.1517 -1.9251 -0.1024
18044SOL    HW254711   4.868   8.837   3.085  0.2950  0.8991  1.8037
18045SOL     OW54712   3.260   3.347   5.220  0.4748 -0.9074  0.6322
18045SOL    HW154713   3.284   3.405   5.149  2.8900 -2.8387 -0.2525
18045SOL    HW254714   3.275   3.398   5.300  0.3966  0.3637 -0.1491
18046SOL     OW54715   8.906   3.770   5.329 -0.0476  0.5415 -0.6305
18046SOL    HW154716   8.865   3.853   5.305 -1.1820  0.4166  0.7641
18046SOL    HW254717   8.850   3.734   5.398  0.7227 -1.1250 -0.8103
18047SOL     OW54718   7.422   0.322   4.568  0.3444 -0.3585 -0.1714
18047SOL    HW154719   7.514   0.345   4.581  0.6606 -1.7571  0.2022
18047SOL    HW254720   7.388   0.307   4.656  0.2768 -1.7019 -0.4140
18048SOL     OW54721   7.045   0.885   7.024  0.4509  0.2700 -0.4693
18048SOL    HW154722   6.971   0.925   6.979 -0.4248 -0.2889  0.4501
18048SOL    HW254723   7.074   0.952   7.086 -1.0784 -0.4907  1.1390
18049SOL     OW54724   0.432   5.230   1.769  0.0302  0.1349  0.1983
18049SOL    HW154725   0.473   5.170   1.832 -0.5279 -1.4968 -0.9201
18049SOL    HW254726   0.339   5.227   1.790 -0.2308 -0.8144 -0.9605
18050SOL     OW54727   9.015   0.399   3.546 -0.1098  0.5040 -0.1471
18050SOL    HW154728   9.062   0.482   3.538 -0.2444  0.5778 -0.1837
18050SOL    HW254729   8.978   0.400   3.634 -0.1456  0.5004 -0.1623
18051SOL     OW54730   5.930   5.790   3.686 -0.0733  0.3835  0.0211
18051SOL    HW154731   5.987   5.799   3.762  0.3896  0.1621 -0.2975
18051SOL    HW254732   5.990   5.784   3.612 -0.4923 -0.6273 -0.2420
18052SOL     OW54733   6.802   8.662   3.879 -0.4303 -0.0558 -0.0320
18052SOL    HW154734   6.756   8.701   3.804  0.1835 -2.3952 -1.7466
18052SOL    HW254735   6.733   8.624   3.933 -0.8785  1.6073  0.6125
18053SOL     OW54736   6.213   2.256   5.256 -0.4833  0.1646 -0.4578
18053SOL    HW154737   6.214   2.185   5.321 -0.0507 -0.5410 -1.2066
18053SOL    HW254738   6.205   2.336   5.308  0.1543 -0.3617  0.4924
18054SOL     OW54739   5.187   8.368   4.816 -0.7818 -0.2532 -0.1468
18054SOL    HW154740   5.216   8.321   4.738 -0.4261 -1.2517  0.5702
18054SOL    HW254741   5.250   8.344   4.884 -2.2727 -1.1004  1.0046
18055SOL     OW54742   6.488   6.099   2.760 -0.0598 -0.6166 -0.2455
18055SOL    HW154743   6.482   6.006   2.782  0.9135 -0.6617 -0.1322
18055SOL    HW254744   6.581   6.114   2.741 -0.0437  0.5139  0.5937
18056SOL     OW54745   7.756   2.283   3.162 -0.2973 -0.5633 -0.1768
18056SOL    HW154746   7.767   2.296   3.067  0.3290  1.6449  0.1231
18056SOL    HW254747   7.771   2.370   3.199 -2.4161 -0.9402  1.8189
18057SOL     OW54748   6.928   5.487   7.129 -0.3723 -0.1699 -0.2461
18057SOL    HW154749   6.947   5.466   7.221  2.4174  0.4933 -0.5822
18057SOL    HW254750   6.859   5.425   7.104 -2.4879  0.7635  2.7179
18058SOL     OW54751   8.367   0.532   6.382  0.3422  0.1199  0.5361
18058SOL    HW154752   8.292   0.592   6.386 -0.0487 -0.1746 -1.4934
18058SOL    HW254753   8.411   0.553   6.300  1.9949 -0.3314  1.2601
18059SOL     OW54754   4.140   3.961   6.917 -0.1784 -0.3718  0.5671
18059SOL    HW154755   4.204   3.903   6.875 -0.4585 -0.2010 -0.1161
18059SOL    HW254756   4.090   3.905   6.975  0.8962 -0.4285  1.4910
18060SOL     OW54757   6.499   3.594   4.579  0.1164 -0.6325  1.0448
18060SOL    HW154758   6.589   3.563   4.589  0.4098  0.4675  2.1722
18060SOL    HW254759   6.466   3.598   4.668 -0.0569  1.7019  0.9426
18061SOL     OW54760   0.040   1.199   0.868  0.4558  0.6417 -0.2404
18061SOL    HW154761   0.063   1.277   0.918 -1.0462  0.7617  0.3354
18061SOL    HW254762   0.103   1.133   0.895 -0.1569  0.7820  1.6719
18062SOL     OW54763   7.793   5.711   8.497 -0.1056 -0.0530  0.4651
18062SOL    HW154764   7.788   5.644   8.430 -0.6192 -0.8679  1.3013
18062SOL    HW254765   7.717   5.767   8.482  0.3741  0.4223 -0.2880
18063SOL     OW54766   3.252   4.144   7.222  0.0099 -1.2420  0.8714
18063SOL    HW154767   3.184   4.088   7.259 -0.1856 -1.7144 -0.1479
18063SOL    HW254768   3.329   4.086   7.214 -0.2575 -1.4574 -0.3876
18064SOL     OW54769   5.480   9.366   1.637  0.6686  0.2752 -0.0737
18064SOL    HW154770   5.519   9.391   1.553  0.6026 -0.7841 -0.4251
18064SOL    HW254771   5.524   9.285   1.661  0.1837  0.1963  0.5711
18065SOL     OW54772   9.189   5.433   8.873 -0.5032  0.4733  0.3012
18065SOL    HW154773   9.255   5.378   8.831 -1.1076 -0.5221  0.6189
18065SOL    HW254774   9.135   5.466   8.802 -1.0480 -0.5736  0.2114
18066SOL     OW54775   0.051   2.941   0.379  0.1972 -0.0633  0.2261
18066SOL    HW154776  -0.028   2.966   0.331 -1.2704 -0.5802  2.2118
18066SOL    HW254777   0.075   3.020   0.428 -0.5761 -0.5428  1.4580
18067SOL     OW54778   5.245   8.775   3.775 -0.8463 -0.2810 -0.2817
18067SOL    HW154779   5.340   8.764   3.773 -0.8556 -0.2509 -0.9179
18067SOL    HW254780   5.232   8.867   3.801 -0.6948 -0.0939 -0.8724
18068SOL     OW54781   0.982   4.855   7.357 -0.3171 -0.2221  0.2174
18068SOL    HW154782   0.965   4.935   7.306 -2.9562 -1.1008 -0.4003
18068SOL    HW254783   1.004   4.789   7.291  0.0933 -0.4617  0.5876
18069SOL     OW54784   1.323   6.126   0.041 -0.6444 -0.2219 -0.6860
18069SOL    HW154785   1.242   6.173   0.021 -0.9864 -0.5032 -0.0174
18069SOL    HW254786   1.311   6.097   0.132  0.3796  0.0941 -0.4338
18070SOL     OW54787   0.956   1.635   5.989 -0.4160  0.2968 -0.0716
18070SOL    HW154788   0.970   1.554   6.036 -1.2343  0.4443  0.4556
18070SOL    HW254789   1.031   1.690   6.012  0.0345 -0.2248 -0.2704
18071SOL     OW54790   0.267   6.591   6.900 -0.1722  0.0547  0.2770
18071SOL    HW154791   0.319   6.528   6.950  0.8114 -0.2311 -1.0435
18071SOL    HW254792   0.177   6.560   6.909  0.2248 -1.1984  0.1921
18072SOL     OW54793   4.253   0.891   1.375 -0.0673  0.1151  0.1892
18072SOL    HW154794   4.179   0.941   1.342  0.9088  1.5559  0.0611
18072SOL    HW254795   4.323   0.956   1.386  1.5589 -1.3642 -0.8187
18073SOL     OW54796   1.148   6.122   8.366  0.2238 -0.0566 -0.1441
18073SOL    HW154797   1.128   6.208   8.329  0.6887  0.1217  0.0125
18073SOL    HW254798   1.170   6.068   8.290  1.1025  0.2891 -0.1470
18074SOL     OW54799   3.258   2.772   2.887 -0.0131  0.1981  0.5953
18074SOL    HW154800   3.316   2.791   2.813  0.1437  1.8149  1.0919
18074SOL    HW254801   3.291   2.828   2.957 -1.7957  0.7162  1.0731
18075SOL     OW54802   9.124   5.419   7.229  0.0846  0.7793  0.2154
18075SOL    HW154803   9.185   5.401   7.301 -0.3150 -1.7767  0.0118
18075SOL    HW254804   9.180   5.447   7.157  1.1336 -1.6364 -0.0076
18076SOL     OW54805   7.617   6.959   2.345 -0.3461 -0.6345 -0.2037
18076SOL    HW154806   7.698   6.975   2.394 -1.0441  1.3509  0.4050
18076SOL    HW254807   7.562   6.910   2.405  0.2874 -1.8301 -0.5530
18077SOL     OW54808   7.230   6.809   1.771  0.3590  0.0480  0.1815
18077SOL    HW154809   7.208   6.717   1.756 -1.1091  0.3237  0.5094
18077SOL    HW254810   7.186   6.857   1.701 -0.1346  0.6235  0.8634
18078SOL     OW54811   6.962   4.886   6.385 -0.1433 -0.0710  0.0368
18078SOL    HW154812   6.920   4.909   6.468 -0.2392 -2.1935  0.6508
18078SOL    HW254813   7.008   4.965   6.359 -1.4558  1.1653  1.2655
18079SOL     OW54814   6.303   4.940   4.212  0.2059  0.0999  0.4998
18079SOL    HW154815   6.293   4.864   4.268 -0.1259  0.2214  0.6061
18079SOL    HW254816   6.303   5.015   4.271  0.0606  0.2148  0.3574
18080SOL     OW54817   8.819   8.057   0.863  0.2838 -0.1837  0.3659
18080SOL    HW154818   8.872   8.055   0.943 -0.6749 -0.7601  1.0099
18080SOL    HW254819   8.861   8.122   0.808  0.9612  0.2328  1.3460
18081SOL     OW54820   7.214   8.548   6.595  0.0660  0.0895 -0.1218
18081SOL    HW154821   7.237   8.560   6.688  0.3830 -2.3166  0.1700
18081SOL    HW254822   7.118   8.547   6.595  0.0344  1.3392 -0.0356
18082SOL     OW54823   5.611   4.508   3.738  0.0758  0.0268 -0.0632
18082SOL    HW154824   5.625   4.540   3.827 -1.1034  0.6216 -0.0634
18082SOL    HW254825   5.649   4.576   3.682 -1.6074  1.0498 -0.0423
18083SOL     OW54826   4.158   1.464   8.401 -0.0056 -0.5914 -0.0367
18083SOL    HW154827   4.119   1.421   8.325 -2.4481  0.0652  0.7557
18083SOL    HW254828   4.151   1.558   8.381  0.4808 -0.4430  0.4680
18084SOL     OW54829   4.083   9.124   3.508 -0.1642  0.1184  0.3178
18084SOL    HW154830   4.173   9.099   3.527  0.0556  0.3336 -0.4071
18084SOL    HW254831   4.067   9.199   3.566 -0.6294 -1.2402  2.0546
18085SOL     OW54832   7.324   2.966   8.720 -0.4230  0.3328 -0.0188
18085SOL    HW154833   7.308   2.929   8.633  0.9283 -2.3288  0.7313
18085SOL    HW254834   7.245   3.015   8.740 -1.8550 -1.1274 -1.7144
18086SOL     OW54835   6.535   3.264   1.193  0.1161  0.5533 -0.9066
18086SOL    HW154836   6.466   3.252   1.258  0.7316  0.0187 -0.3320
18086SOL    HW254837   6.521   3.193   1.130  1.0491 -0.5529  0.0588
18087SOL     OW54838   7.334   5.411   8.983  0.8195  0.3414 -0.7259
18087SOL    HW154839   7.402   5.476   9.003  1.9406 -0.6867 -1.0450
18087SOL    HW254840   7.381   5.340   8.940 -0.5074 -0.3406 -1.1069
18088SOL     OW54841   3.591   2.474   5.155  0.1757 -0.4184 -0.0483
18088SOL    HW154842   3.525   2.474   5.086 -0.2339  0.6702  0.3105
18088SOL    HW254843   3.675   2.474   5.110 -0.0818 -0.7851 -0.5256
18089SOL     OW54844   9.205   3.897   7.178  0.5175 -0.2182 -0.3265
18089SOL    HW154845   9.147   3.895   7.102 -0.2402 -0.6996  0.2563
18089SOL    HW254846   9.273   3.960   7.154 -1.0883  1.5461 -0.4094
18090SOL     OW54847   9.661   9.450   2.304 -0.4381  1.2590 -0.8539
18090SOL    HW154848   9.638   9.360   2.285  1.8253  1.0640 -3.1693
18090SOL    HW254849   9.632   9.463   2.395 -3.1125 -0.9204 -1.2817
18091SOL     OW54850   6.738   7.034   9.395 -0.7135  0.8883 -0.4416
18091SOL    HW154851   6.737   6.950   9.442 -0.2527 -0.8729 -3.3096
18091SOL    HW254852   6.649   7.043   9.361 -0.1170  0.1345 -2.3347
18092SOL     OW54853   1.759   6.630   5.411  0.3801  0.1471 -0.7659
18092SOL    HW154854   1.743   6.713   5.456 -0.2955 -0.4984  0.2131
18092SOL    HW254855   1.676   6.612   5.366 -0.0176 -0.7578  0.2942
18093SOL     OW54856   8.845   0.980   5.755 -0.5420  0.1750  0.0127
18093SOL    HW154857   8.899   0.904   5.778  0.0518  0.5716 -0.0401
18093SOL    HW254858   8.901   1.055   5.776 -0.9246  0.5844 -0.4347
18094SOL     OW54859   6.397   2.122   1.304  0.1187  0.0430  0.4455
18094SOL    HW154860   6.390   2.189   1.236  0.6469  0.9470  1.2545
18094SOL    HW254861   6.400   2.040   1.256  1.8990  0.7354 -0.7464
18095SOL     OW54862   7.602   8.238   2.576  0.5513  0.3883 -0.0987
18095SOL    HW154863   7.545   8.268   2.505  0.3894  0.6370  0.1339
18095SOL    HW254864   7.585   8.144   2.582  0.0497  0.4866  0.0708
18096SOL     OW54865   1.212   8.927   2.576 -0.0411  0.5691  0.1913
18096SOL    HW154866   1.181   8.836   2.575  1.9389 -0.1643 -0.2034
18096SOL    HW254867   1.225   8.946   2.669 -0.7697  0.5735  0.2980
18097SOL     OW54868   9.442   0.200   7.164 -0.2159 -0.0823 -0.1944
18097SOL    HW154869   9.384   0.193   7.241  1.1686  0.0664  0.9079
18097SOL    HW254870   9.522   0.155   7.191  0.6997  0.9257 -1.1522
18098SOL     OW54871   8.395   3.493   7.826 -0.6453 -0.2571  0.1028
18098SOL    HW154872   8.426   3.562   7.884  0.7341 -1.3774  0.7563
18098SOL    HW254873   8.465   3.484   7.761 -0.9360 -0.8524 -0.1320
18099SOL     OW54874   6.640   3.418   7.584 -0.1066 -0.0081  0.2962
18099SOL    HW154875   6.559   3.421   7.635 -0.7896  1.1816 -0.8004
18099SOL    HW254876   6.657   3.509   7.560 -0.1642 -0.5597 -2.0649
18100SOL     OW54877   2.711   0.796   2.587 -0.0904 -0.3266  0.4549
18100SOL    HW154878   2.646   0.858   2.555 -0.5079 -1.1942 -0.4130
18100SOL    HW254879   2.789   0.814   2.535 -0.2911 -0.6942  0.0213
18101SOL     OW54880   5.183   8.892   4.075  0.1383  0.2492 -0.0304
18101SOL    HW154881   5.176   8.949   3.998 -0.3805  1.4218  0.8754
18101SOL    HW254882   5.120   8.822   4.058  0.6278  0.0316 -1.0463
18102SOL     OW54883   6.530   7.007   0.757  0.4345 -0.5610  0.4953
18102SOL    HW154884   6.543   7.048   0.843 -0.2034  1.2697 -0.2384
18102SOL    HW254885   6.436   6.989   0.752  0.4375 -0.4715  0.0854
18103SOL     OW54886   1.199   8.290   4.155 -0.2771  0.1626 -0.0306
18103SOL    HW154887   1.226   8.212   4.203  3.1396  0.2494 -1.5506
18103SOL    HW254888   1.269   8.354   4.170 -0.7949  1.3753 -2.2889
18104SOL     OW54889   5.310   1.353   5.097  0.1855  0.1572  0.5039
18104SOL    HW154890   5.260   1.410   5.038  0.9318  0.0038 -0.3042
18104SOL    HW254891   5.262   1.270   5.098  0.2765  0.0932 -0.0648
18105SOL     OW54892   6.572   9.833   1.935  0.7138 -0.2006 -0.2493
18105SOL    HW154893   6.540   9.914   1.896 -0.9344 -1.7694 -2.3613
18105SOL    HW254894   6.642   9.861   1.994 -0.9334  2.8954  0.4233
18106SOL     OW54895   9.583   7.510   0.541 -0.1229  0.0191 -0.0458
18106SOL    HW154896   9.603   7.603   0.527 -1.6631  0.2738 -0.6480
18106SOL    HW254897   9.542   7.508   0.628  2.1705 -0.4769  1.0980
18107SOL     OW54898   8.085   1.843   1.892 -0.0996 -0.0604 -0.0016
18107SOL    HW154899   8.103   1.790   1.814  0.6416  0.7251 -0.3674
18107SOL    HW254900   8.091   1.933   1.862  2.1560  0.3157  1.3640
18108SOL     OW54901   3.526   8.874   1.206  0.4196  0.0476 -0.1542
18108SOL    HW154902   3.458   8.941   1.199  1.9850  1.5977 -1.5177
18108SOL    HW254903   3.560   8.865   1.117  1.4018 -1.3486  0.3280
18109SOL     OW54904   8.919   7.163   5.421  0.0390 -0.0860  0.5687
18109SOL    HW154905   8.968   7.104   5.478  0.1466  0.5351  1.1288
18109SOL    HW254906   8.986   7.218   5.381 -0.1249  0.1736  0.6493
18110SOL     OW54907   3.581   2.742   2.231 -0.4475  0.4486 -0.5142
18110SOL    HW154908   3.608   2.666   2.178 -2.0857  0.1866 -1.0463
18110SOL    HW254909   3.584   2.710   2.321 -3.2779 -1.0614 -0.8512
18111SOL     OW54910   5.218   5.728   1.995  0.1353  0.0923 -0.1389
18111SOL    HW154911   5.247   5.687   1.913 -0.0656  1.8241 -1.1394
18111SOL    HW254912   5.157   5.665   2.033 -1.6991  0.2168 -2.5940
18112SOL     OW54913   7.122   7.368   8.562  0.4813 -0.0629 -0.1422
18112SOL    HW154914   7.193   7.326   8.611  0.1974 -0.2767  0.0923
18112SOL    HW254915   7.076   7.295   8.520  1.2380  0.1762 -1.4431
18113SOL     OW54916   4.922   1.965   1.198  0.5130 -0.8806  0.1160
18113SOL    HW154917   4.971   1.973   1.280  1.0978 -2.2272 -0.0673
18113SOL    HW254918   4.959   1.887   1.156 -0.1723 -0.5392 -1.1610
18114SOL     OW54919   0.307   3.730   3.920 -0.6347 -0.7376  0.0033
18114SOL    HW154920   0.261   3.790   3.979  0.8465  0.4137  0.0546
18114SOL    HW254921   0.239   3.698   3.860 -1.5041  0.8703  0.0741
18115SOL     OW54922   2.956   0.781   0.669 -0.1230  0.3927  0.1428
18115SOL    HW154923   2.933   0.745   0.584  1.0586  1.8947 -0.8685
18115SOL    HW254924   2.880   0.834   0.695 -0.0867  0.7486 -0.4662
18116SOL     OW54925   5.101   3.057   0.517 -0.2741  0.5067 -0.3797
18116SOL    HW154926   5.119   3.022   0.604 -0.6465 -1.3221 -0.9992
18116SOL    HW254927   5.185   3.094   0.488  0.4258 -0.8076 -0.0895
18117SOL     OW54928   5.811   7.996   8.775  0.0886 -0.3713  0.6973
18117SOL    HW154929   5.794   7.904   8.751 -1.5329 -0.1580  0.8929
18117SOL    HW254930   5.795   8.045   8.694 -0.7594 -0.1072  1.0151
18118SOL     OW54931   3.655  10.010   8.134 -0.3965  0.1263 -0.8133
18118SOL    HW154932   3.667   9.935   8.192 -0.7285  0.7443  0.0711
18118SOL    HW254933   3.622   9.972   8.052  0.3380 -0.7818 -0.7036
18119SOL     OW54934   9.291   9.903   2.167  0.1029  0.2331 -0.0546
18119SOL    HW154935   9.345   9.965   2.118 -1.2403  2.0194  0.6103
18119SOL    HW254936   9.213   9.953   2.191 -0.3960 -1.3015  1.7783
18120SOL     OW54937   3.052   1.553   1.697 -0.0384  0.0049  0.0403
18120SOL    HW154938   2.959   1.541   1.715 -0.1722  0.7114 -0.1235
18120SOL    HW254939   3.060   1.544   1.602  0.0157  0.1826  0.0268
18121SOL     OW54940   9.217   6.251   7.574 -0.1789 -0.2513 -0.4051
18121SOL    HW154941   9.292   6.198   7.546  0.5099  0.9784 -0.9668
18121SOL    HW254942   9.211   6.320   7.508 -0.7217  0.6739  0.5856
18122SOL     OW54943   4.689   2.243   0.326  0.1310 -0.3824 -0.0017
18122SOL    HW154944   4.751   2.266   0.257  1.2496 -3.3470 -0.1209
18122SOL    HW254945   4.717   2.294   0.402  1.0776  0.2701 -0.7672
18123SOL     OW54946   5.115   6.130   8.118 -0.0894 -0.1873  0.1102
18123SOL    HW154947   5.070   6.067   8.061 -0.3399 -0.8541  1.0236
18123SOL    HW254948   5.198   6.147   8.073 -1.1436  0.9240 -1.5055
18124SOL     OW54949   9.419   2.203   1.484 -0.7315 -0.1949  0.7115
18124SOL    HW154950   9.448   2.259   1.412 -1.1275  0.6376  1.1830
18124SOL    HW254951   9.394   2.120   1.442  1.1101 -0.5072  0.1527
18125SOL     OW54952   0.724   0.888   8.957 -0.2107  0.8962 -0.4656
18125SOL    HW154953   0.696   0.871   9.047 -0.1144  1.6606 -0.2846
18125SOL    HW254954   0.815   0.861   8.954 -0.2611  0.7162 -0.3819
18126SOL     OW54955   8.211   7.494   2.446  0.3451 -0.5854 -0.2438
18126SOL    HW154956   8.137   7.505   2.385  0.8695 -0.2306 -0.8351
18126SOL    HW254957   8.173   7.511   2.532 -0.7746 -2.6406 -0.2681
18127SOL     OW54958   4.604   9.367   0.804  0.2956 -0.0099  0.0535
18127SOL    HW154959   4.614   9.276   0.776  1.5483 -0.0678  0.6474
18127SOL    HW254960   4.638   9.369   0.894  1.2347  1.2350 -0.3026
18128SOL     OW54961   2.821   5.014   4.510  0.2228 -0.3293 -0.0398
18128SOL    HW154962   2.738   5.040   4.549 -0.3828  1.5859 -2.3704
18128SOL    HW254963   2.888   5.049   4.568 -0.5791 -0.6546  1.1009
18129SOL     OW54964   2.643   2.602   6.375  0.0786  0.4762  0.6593
18129SOL    HW154965   2.594   2.549   6.311 -0.6255 -0.0347  1.5953
18129SOL    HW254966   2.721   2.631   6.327 -0.8401  0.8054 -0.6815
18130SOL     OW54967   1.895   9.483   2.092 -0.3535 -0.0710  0.1128
18130SOL    HW154968   1.821   9.538   2.066  0.8865  1.0342 -1.2470
18130SOL    HW254969   1.924   9.519   2.175  0.1733  1.1131 -0.5565
18131SOL     OW54970   4.887   7.637   3.814 -0.0345  0.2803 -0.5203
18131SOL    HW154971   4.869   7.725   3.780  0.2836  1.3480  1.8718
18131SOL    HW254972   4.902   7.584   3.736  0.2764  2.4470 -2.0349
18132SOL     OW54973   5.502   4.524   0.357  0.8930 -0.1777 -0.6968
18132SOL    HW154974   5.493   4.531   0.262 -0.4710  1.3123 -0.4956
18132SOL    HW254975   5.440   4.454   0.382 -1.6270  1.9476 -0.5854
18133SOL     OW54976   2.495   8.113   7.597  0.4805  0.1048  0.0092
18133SOL    HW154977   2.522   8.159   7.677  1.8301 -0.6607  0.0106
18133SOL    HW254978   2.423   8.056   7.626  0.9706 -0.1821  0.6776
18134SOL     OW54979   5.229   8.578   3.335  0.1347  0.6131  0.1878
18134SOL    HW154980   5.166   8.650   3.331 -0.3197  0.1592 -1.4754
18134SOL    HW254981   5.219   8.532   3.252  1.0763 -0.8327  0.8322
18135SOL     OW54982   4.376   4.726   8.618 -0.5550  0.0788  0.1485
18135SOL    HW154983   4.438   4.695   8.685  0.7043 -2.1862 -1.9181
18135SOL    HW254984   4.385   4.821   8.619 -1.3623  0.2791  3.8345
18136SOL     OW54985   2.099   2.470   2.444 -0.6297  0.0036 -0.4631
18136SOL    HW154986   2.145   2.414   2.506 -1.5632 -0.0837  0.1660
18136SOL    HW254987   2.039   2.411   2.399 -0.2917  0.1574 -1.1358
18137SOL     OW54988   0.254   3.253   0.900 -0.4564 -0.3189 -0.2415
18137SOL    HW154989   0.318   3.184   0.879  1.9367  1.4321  0.7776
18137SOL    HW254990   0.178   3.205   0.933  0.9091 -2.5057 -0.0054
18138SOL     OW54991   1.358   8.899   4.514 -0.0989 -0.0265 -0.0789
18138SOL    HW154992   1.416   8.837   4.470  1.5653  1.0497  0.4989
18138SOL    HW254993   1.370   8.981   4.466  0.7523  0.8291  1.4964
18139SOL     OW54994   5.347   6.812   3.368  0.2225  0.6245 -0.1152
18139SOL    HW154995   5.284   6.880   3.347  1.5328  1.2447 -2.4018
18139SOL    HW254996   5.426   6.860   3.393  1.0425 -0.0285 -1.3794
18140SOL     OW54997   3.510  -0.014   2.648 -0.1271 -0.6874 -0.7789
18140SOL    HW154998   3.581   0.002   2.711 -1.3288 -2.3891  1.1080
18140SOL    HW254999   3.442   0.048   2.673 -0.1753 -0.6037 -1.1209
18141SOL     OW55000   9.704   5.499   2.088  0.4094 -0.2163  0.1096
18141SOL    HW155001   9.680   5.521   2.178 -0.9099 -0.8233 -0.0705
18141SOL    HW255002   9.772   5.563   2.066 -0.2084  0.8303  1.0757
18142SOL     OW55003   8.675   7.162   3.415 -0.2960 -0.6504  0.5757
18142SOL    HW155004   8.629   7.114   3.346 -1.0031  1.6107 -0.6296
18142SOL    HW255005   8.662   7.109   3.494 -2.0947 -1.7743 -0.4101
18143SOL     OW55006   5.476   8.598   8.546 -0.0923  0.2620 -0.3535
18143SOL    HW155007   5.535   8.540   8.594  0.4900  0.3485 -0.9373
18143SOL    HW255008   5.524   8.618   8.465 -1.8366 -1.4350 -1.8912
18144SOL     OW55009   3.563   6.903   1.955 -0.3351 -0.1361  0.4051
18144SOL    HW155010   3.530   6.992   1.964  0.3386  0.0593  0.9336
18144SOL    HW255011   3.595   6.880   2.041 -0.4170 -0.8639  0.2479
18145SOL     OW55012   6.764   0.168   2.546  0.0826  0.2291 -0.3277
18145SOL    HW155013   6.693   0.206   2.597  1.8217  1.6110  1.1926
18145SOL    HW255014   6.795   0.240   2.491  1.1325  0.0315 -0.0166
18146SOL     OW55015   4.032   6.135   9.790 -0.3844 -0.2870 -0.0710
18146SOL    HW155016   4.112   6.088   9.812  0.1586  1.0127  0.8735
18146SOL    HW255017   4.015   6.112   9.699  1.1052 -0.5328 -0.3155
18147SOL     OW55018   2.258   9.196   3.410 -0.6430  0.2251  0.0247
18147SOL    HW155019   2.301   9.127   3.361  0.0983  0.0126  0.9454
18147SOL    HW255020   2.180   9.218   3.359 -1.1193 -1.5829 -0.0670
18148SOL     OW55021   6.987   7.088   6.370  0.0580 -0.4967  0.0542
18148SOL    HW155022   6.919   7.041   6.419  0.4018 -1.2699 -0.1944
18148SOL    HW255023   6.943   7.116   6.289 -0.6432  1.1936  0.9727
18149SOL     OW55024   7.396   1.018   6.746 -0.1528  0.2613 -0.1868
18149SOL    HW155025   7.437   1.052   6.666 -0.6227  1.0082 -0.1139
18149SOL    HW255026   7.303   1.037   6.736 -0.2808 -0.0486  0.3422
18150SOL     OW55027   9.697   7.781   0.913 -0.6825  0.3672 -0.4719
18150SOL    HW155028   9.649   7.863   0.919 -0.3874  0.5863 -0.9941
18150SOL    HW255029   9.754   7.792   0.836 -0.8745 -0.4423 -0.7412
18151SOL     OW55030   7.600   9.002   9.279  0.0175 -0.4276  0.6535
18151SOL    HW155031   7.616   9.018   9.372  1.0648 -0.3916  0.4815
18151SOL    HW255032   7.687   9.005   9.239 -0.5575  1.3036 -0.6010
18152SOL     OW55033   5.282   6.802   3.656 -0.2468 -0.0859 -0.3676
18152SOL    HW155034   5.362   6.758   3.627 -0.7039 -2.6330  1.7740
18152SOL    HW255035   5.213   6.765   3.600 -0.2482  0.1104 -0.4936
18153SOL     OW55036   4.489   5.592   9.028 -0.0988  0.1583  0.6804
18153SOL    HW155037   4.437   5.529   9.079  0.0072 -1.3896 -1.0012
18153SOL    HW255038   4.579   5.564   9.040 -0.0912 -0.3895 -0.5137
18154SOL     OW55039   8.153   0.144   7.727 -0.6035 -0.4121 -0.1658
18154SOL    HW155040   8.198   0.100   7.799 -0.7491 -1.4400 -0.6790
18154SOL    HW255041   8.114   0.222   7.767  2.5653  1.2030  0.0833
18155SOL     OW55042   3.717   1.791   9.537  0.1420 -0.6845 -0.5865
18155SOL    HW155043   3.691   1.708   9.499 -0.9161 -1.2606  1.2806
18155SOL    HW255044   3.785   1.768   9.601  0.5329  0.0162 -0.7330
18156SOL     OW55045   5.062   7.656   0.751  0.0916 -0.1016 -0.7507
18156SOL    HW155046   5.092   7.747   0.751  0.9599 -0.3802 -1.2723
18156SOL    HW255047   4.980   7.658   0.702 -0.5607  0.5918  0.3090
18157SOL     OW55048   8.846   9.626   1.714  0.2601  0.2981  0.1645
18157SOL    HW155049   8.881   9.695   1.657  1.1428 -0.2801  0.0039
18157SOL    HW255050   8.803   9.566   1.653  2.2971 -0.9946 -0.0771
18158SOL     OW55051   0.613   4.717   8.224  0.2357  0.3518 -0.5688
18158SOL    HW155052   0.621   4.657   8.298 -1.7661  0.3564 -0.2950
18158SOL    HW255053   0.657   4.797   8.252  0.8169 -0.1666  0.0142
18159SOL     OW55054   5.437   0.240   7.661 -0.1392  0.4099 -0.7182
18159SOL    HW155055   5.427   0.147   7.642 -1.1401 -0.1313  1.9469
18159SOL    HW255056   5.510   0.268   7.606 -0.0707 -1.8434 -1.8995
18160SOL     OW55057   7.012   2.937   7.670  0.0027 -0.3484 -0.1474
18160SOL    HW155058   6.994   3.027   7.696 -0.4738 -0.2203 -0.8867
18160SOL    HW255059   6.964   2.926   7.588  1.7784 -0.6102 -1.1952
18161SOL     OW55060   1.162   2.291   1.824 -0.1117 -0.9102 -0.0220
18161SOL    HW155061   1.207   2.297   1.908 -3.0549 -1.0704  1.6962
18161SOL    HW255062   1.140   2.382   1.802  2.1299 -0.6739 -1.5871
18162SOL     OW55063   8.808   7.633   8.396 -0.0017 -0.0219 -0.2748
18162SOL    HW155064   8.773   7.545   8.395 -0.8616  0.3147 -0.2714
18162SOL    HW255065   8.812   7.659   8.304  2.9044 -1.0624 -0.5651
18163SOL     OW55066   4.055   0.704   3.766  0.0973  0.0418 -0.4284
18163SOL    HW155067   4.145   0.706   3.797  0.3007 -0.8802 -0.9091
18163SOL    HW255068   4.034   0.795   3.746  1.4536  0.1165 -1.7397
18164SOL     OW55069   3.155   1.436   4.554  0.0636 -0.2515 -1.2693
18164SOL    HW155070   3.099   1.507   4.524 -1.8822 -1.3346 -0.3800
18164SOL    HW255071   3.096   1.377   4.601  1.9557 -1.5013 -0.3459
18165SOL     OW55072   1.851   8.383   7.822 -0.0774 -0.3506 -0.1040
18165SOL    HW155073   1.806   8.324   7.762 -0.2523  0.2497 -0.5746
18165SOL    HW255074   1.892   8.448   7.765 -3.3306  2.4887  0.4607
18166SOL     OW55075   1.999   2.459   7.780 -0.1887 -0.1520  0.2487
18166SOL    HW155076   2.051   2.493   7.853 -0.3948  0.1329  0.2641
18166SOL    HW255077   1.954   2.383   7.816  0.6756 -0.7599  0.0720
18167SOL     OW55078   5.179   0.522   6.830  0.2009 -0.3361 -0.0965
18167SOL    HW155079   5.123   0.478   6.894  0.3879 -1.5765 -0.7361
18167SOL    HW255080   5.264   0.531   6.874 -0.4319  1.4207  0.8245
18168SOL     OW55081   7.148   2.285   3.748  0.1082 -0.1214  0.3539
18168SOL    HW155082   7.195   2.331   3.817 -0.4919  1.3829 -0.1971
18168SOL    HW255083   7.056   2.287   3.775 -0.0039 -0.4166  0.0133
18169SOL     OW55084   8.270   4.941   5.728 -0.6626 -0.0910  0.4450
18169SOL    HW155085   8.254   4.873   5.662 -1.3723 -1.0778  1.5905
18169SOL    HW255086   8.286   4.892   5.809  0.5918  1.0800  0.9496
18170SOL     OW55087   4.820   1.756   3.222  0.0025  0.7825 -0.3806
18170SOL    HW155088   4.813   1.783   3.314  0.0010 -1.2116  0.2406
18170SOL    HW255089   4.907   1.718   3.214  0.0172  0.9670 -1.2300
18171SOL     OW55090   5.191   9.927   5.910  0.9345  0.0220 -0.2281
18171SOL    HW155091   5.269   9.882   5.942  0.2362 -1.5513 -0.6324
18171SOL    HW255092   5.209   9.942   5.817  1.6191  1.6675  0.1174
18172SOL     OW55093   4.763   1.913   5.997  0.3677 -0.1674 -0.3890
18172SOL    HW155094   4.680   1.955   5.977  0.5296  0.9000  1.0332
18172SOL    HW255095   4.828   1.962   5.947  0.4522  0.7944  0.6232
18173SOL     OW55096   8.804   3.155   0.390  0.0155  0.5136  0.5829
18173SOL    HW155097   8.809   3.236   0.340  1.3951  1.1729  1.7242
18173SOL    HW255098   8.864   3.168   0.463 -1.7898 -0.4645  2.3421
18174SOL     OW55099   9.654   9.518   7.389  0.0345  0.2266 -0.2689
18174SOL    HW155100   9.590   9.485   7.326 -1.7924  1.3337  0.9213
18174SOL    HW255101   9.637   9.612   7.394 -0.0873  0.1496  2.0442
18175SOL     OW55102   3.774   2.090   6.992  0.1444 -0.9095  0.2678
18175SOL    HW155103   3.779   2.141   6.911 -0.0320  0.0477  0.8423
18175SOL    HW255104   3.857   2.042   6.995  1.0796  0.6614  0.5535
18176SOL     OW55105   6.345   4.950   9.462  0.0261  0.2045 -0.2086
18176SOL    HW155106   6.293   4.952   9.381  0.1025  2.0074 -0.2671
18176SOL    HW255107   6.418   5.009   9.444  0.3495  0.1725  0.9735
18177SOL     OW55108   2.131   4.313   6.563  0.0159 -0.2390  0.0595
18177SOL    HW155109   2.037   4.315   6.546 -0.1561 -0.3726  0.9413
18177SOL    HW255110   2.139   4.333   6.656  0.9629  1.2331 -0.3153
18178SOL     OW55111   9.019   9.837   8.427  0.4237  0.7431  0.7458
18178SOL    HW155112   8.934   9.799   8.404  1.4688  0.6957 -4.1534
18178SOL    HW255113   9.002   9.931   8.436 -0.2590  0.6302  0.6520
18179SOL     OW55114   2.414   8.535   1.414 -0.1343  0.1668  0.4513
18179SOL    HW155115   2.506   8.563   1.416  0.2799 -1.0503 -0.4514
18179SOL    HW255116   2.417   8.447   1.376 -1.7471  0.3681 -0.1853
18180SOL     OW55117   5.684   8.473   3.133 -0.4150  0.6513  0.3392
18180SOL    HW155118   5.607   8.530   3.135 -1.1344 -0.2707 -0.2721
18180SOL    HW255119   5.652   8.388   3.163  0.6784  0.5791  1.3944
18181SOL     OW55120   4.367   4.347   6.131  0.2721  0.1930  0.2122
18181SOL    HW155121   4.382   4.386   6.045  1.2737 -1.1946 -0.2753
18181SOL    HW255122   4.386   4.254   6.119 -0.4671 -0.1875  1.7228
18182SOL     OW55123   8.270   2.309   0.958 -0.2737 -0.3224 -0.5519
18182SOL    HW155124   8.308   2.247   0.896  0.8120 -1.0767  0.7973
18182SOL    HW255125   8.179   2.281   0.967 -0.1052 -0.9834 -0.8551
18183SOL     OW55126   8.222   3.832   8.396 -0.5943 -0.1068  0.5400
18183SOL    HW155127   8.176   3.859   8.475 -0.5744 -0.5458  0.7063
18183SOL    HW255128   8.305   3.879   8.400 -0.6578 -0.0042  0.6983
18184SOL     OW55129   8.960   7.556   7.107  0.1036 -0.8295 -0.2465
18184SOL    HW155130   8.942   7.644   7.140  1.9503 -0.2089 -0.7553
18184SOL    HW255131   8.952   7.499   7.184 -0.5935 -0.1428  0.1946
18185SOL     OW55132   9.169   4.568   1.438 -0.1297  0.4162 -0.0140
18185SOL    HW155133   9.185   4.503   1.370  1.4339 -1.2533  1.8522
18185SOL    HW255134   9.073   4.572   1.445 -0.2834 -0.2448 -1.4721
18186SOL     OW55135   9.100   5.145   0.380 -0.3297 -0.4095  0.3391
18186SOL    HW155136   9.158   5.216   0.408 -1.5672  0.7219  0.1515
18186SOL    HW255137   9.159   5.072   0.362  1.1386  0.9385 -0.6773
18187SOL     OW55138   6.954   2.013   1.673 -0.2035  0.0096  0.0073
18187SOL    HW155139   6.879   1.955   1.685  0.7771 -1.1528  0.7771
18187SOL    HW255140   6.997   2.015   1.758 -1.1448  3.3235  0.5359
18188SOL     OW55141   7.422   1.725   2.395  0.0965  0.3928 -0.5192
18188SOL    HW155142   7.333   1.695   2.377  0.4109 -1.2739  0.4311
18188SOL    HW255143   7.421   1.748   2.488  0.8316 -0.4258 -0.2920
18189SOL     OW55144   9.179   6.278   0.378 -0.5326  0.2519 -0.1219
18189SOL    HW155145   9.184   6.299   0.285 -1.2815  0.0072 -0.2264
18189SOL    HW255146   9.166   6.183   0.380  0.9256  0.0430  0.2841
18190SOL     OW55147   8.772   1.790   1.312 -0.1590 -0.0568 -0.2381
18190SOL    HW155148   8.828   1.864   1.335  0.6878 -0.5863 -0.5713
18190SOL    HW255149   8.735   1.761   1.396  0.3772  0.0458  0.0365
18191SOL     OW55150   5.097   6.785   4.713  0.6931 -0.1489 -0.2424
18191SOL    HW155151   5.108   6.745   4.626  0.0639  0.3400 -0.5556
18191SOL    HW255152   5.002   6.785   4.727  0.6865  1.0934 -0.1859
18192SOL     OW55153   8.879   7.020   3.119  0.1535  0.4443 -0.0041
18192SOL    HW155154   8.966   6.990   3.143 -0.3635 -0.8435  0.3666
18192SOL    HW255155   8.820   6.967   3.172 -0.9459 -0.5967 -2.1223
18193SOL     OW55156   0.764   9.886   2.708  0.0015  0.4982 -0.2011
18193SOL    HW155157   0.692   9.854   2.763 -0.5343 -0.2727 -1.3167
18193SOL    HW255158   0.739   9.975   2.685 -0.6596  0.2005 -0.6639
18194SOL     OW55159   7.428   6.862   3.178  0.1349 -0.1101  0.6864
18194SOL    HW155160   7.460   6.772   3.169 -1.1488 -0.7143  1.7328
18194SOL    HW255161   7.389   6.883   3.093 -0.7897 -1.0717  0.8552
18195SOL     OW55162   0.361   3.698   4.819 -0.2824 -0.1352 -0.1403
18195SOL    HW155163   0.306   3.667   4.892 -0.3586  0.8043  0.2084
18195SOL    HW255164   0.303   3.752   4.766  0.0380  0.0065 -0.3474
18196SOL     OW55165   9.316   4.903   7.816 -0.5808 -0.4543 -0.4194
18196SOL    HW155166   9.244   4.875   7.872 -0.4661  0.8488  0.4107
18196SOL    HW255167   9.341   4.823   7.768 -2.1189 -1.0874 -0.2486
18197SOL     OW55168   0.136   4.362   7.871 -0.5375  0.1042 -0.1953
18197SOL    HW155169   0.061   4.303   7.867  1.0339 -2.0400  0.4248
18197SOL    HW255170   0.151   4.376   7.964  0.4554 -0.3430 -0.2778
18198SOL     OW55171   2.229   9.368   8.506 -0.2764 -1.2390 -0.1852
18198SOL    HW155172   2.153   9.354   8.562 -0.7803 -1.4483 -0.8981
18198SOL    HW255173   2.275   9.285   8.506  0.9861 -0.6045  1.6953
18199SOL     OW55174   0.152   8.523   5.795 -0.1853 -0.6201  0.3297
18199SOL    HW155175   0.200   8.545   5.875 -0.9230  0.3234  0.5211
18199SOL    HW255176   0.089   8.594   5.783  0.0492 -0.6330 -1.2146
18200SOL     OW55177   8.511   0.372   3.211  0.6762 -0.1102 -0.1740
18200SOL    HW155178   8.530   0.439   3.277 -0.8299  0.3799 -0.2175
18200SOL    HW255179   8.453   0.415   3.148 -0.6012 -1.5396 -0.0252
18201SOL     OW55180   9.686   1.698   5.763  0.1173 -0.8583  0.1117
18201SOL    HW155181   9.641   1.625   5.720  1.7745 -2.3644  0.8319
18201SOL    HW255182   9.683   1.677   5.856 -0.3276  0.5765  0.4487
18202SOL     OW55183   0.863   3.579   1.365 -0.6374 -0.3279 -0.2040
18202SOL    HW155184   0.901   3.602   1.450  0.6682 -0.2350 -0.7877
18202SOL    HW255185   0.797   3.647   1.348  1.9708  2.1905 -1.1372
18203SOL     OW55186   2.912   3.040   9.718 -0.0967  0.1717  0.3070
18203SOL    HW155187   2.932   3.130   9.694  2.2520  0.2153  2.0438
18203SOL    HW255188   2.849   3.011   9.653  0.6424  2.4017 -1.5264
18204SOL     OW55189   9.831   1.982   8.970  0.2028  0.0063 -0.5095
18204SOL    HW155190   9.775   2.013   8.899  0.2218  0.3535 -0.3710
18204SOL    HW255191   9.863   2.061   9.013  0.3362 -0.1984 -0.2246
18205SOL     OW55192   1.205   3.416   7.925  0.3035  0.5535 -0.2628
18205SOL    HW155193   1.207   3.401   7.831 -1.8145  2.1859 -0.6470
18205SOL    HW255194   1.292   3.389   7.956  0.6457 -1.1276 -2.4631
18206SOL     OW55195   3.470   4.724   7.090  0.4073 -0.4350  0.5570
18206SOL    HW155196   3.436   4.701   7.176  0.3555 -0.3852  0.5491
18206SOL    HW255197   3.413   4.678   7.029  2.5234 -3.4290  0.6023
18207SOL     OW55198   3.199   2.341   0.993  1.0303  0.0118  0.2981
18207SOL    HW155199   3.224   2.273   0.931 -3.5089 -2.4632  0.7549
18207SOL    HW255200   3.141   2.399   0.943 -0.3569 -0.3497  1.4108
18208SOL     OW55201   3.718   1.904   7.182  0.3265 -0.4558 -0.2893
18208SOL    HW155202   3.744   1.957   7.107  1.1912 -2.4573 -1.4834
18208SOL    HW255203   3.657   1.959   7.230  1.2709  1.6443 -1.3691
18209SOL     OW55204   3.910   8.699   1.231  0.1007  0.4837  0.3055
18209SOL    HW155205   3.987   8.670   1.281  0.1713  0.5424  0.2315
18209SOL    HW255206   3.849   8.731   1.297  0.1446  0.4473  0.3637
18210SOL     OW55207   3.150   2.879   1.562  0.0009 -0.0983  0.3851
18210SOL    HW155208   3.165   2.882   1.656  1.0645  0.0302  0.2262
18210SOL    HW255209   3.213   2.941   1.526  0.0543 -0.6175 -0.4543
18211SOL     OW55210   3.089   5.551   6.962 -0.6181 -0.5406  0.2833
18211SOL    HW155211   3.018   5.487   6.960 -0.4827 -0.7072 -2.2474
18211SOL    HW255212   3.132   5.542   6.877 -0.1607  2.4220  0.1025
18212SOL     OW55213   3.128   1.273   8.995  0.0247 -0.0263  0.1646
18212SOL    HW155214   3.034   1.269   9.008 -0.0164  0.8824  0.1943
18212SOL    HW255215   3.154   1.358   9.030  0.9531 -0.5271  0.7308
18213SOL     OW55216   6.897   0.057   3.043  1.0782 -0.0461  0.5597
18213SOL    HW155217   6.842   0.013   3.107  0.6877  0.2038  0.3984
18213SOL    HW255218   6.977   0.004   3.039  1.0877 -0.0819  1.2223
18214SOL     OW55219   1.473   4.950   2.636 -0.5229 -0.0067 -0.4074
18214SOL    HW155220   1.421   4.972   2.713  0.9039  0.9332  0.3353
18214SOL    HW255221   1.425   4.878   2.595 -1.2143 -0.6831  1.4573
18215SOL     OW55222   0.564   2.016   3.187 -0.0928 -0.2441  0.2785
18215SOL    HW155223   0.516   1.934   3.177 -2.2863  1.0096 -0.0590
18215SOL    HW255224   0.608   2.028   3.102 -1.6412  0.0214 -0.5247
18216SOL     OW55225   1.354   9.881   1.678  0.0521 -0.6887 -0.2704
18216SOL    HW155226   1.326   9.972   1.689  1.0820 -0.4222  0.2881
18216SOL    HW255227   1.398   9.859   1.761  0.3550 -1.4992 -0.6330
18217SOL     OW55228   7.917   5.639   4.179  0.2743 -0.3207  0.9805
18217SOL    HW155229   7.874   5.658   4.262  0.0285 -0.4100  0.8750
18217SOL    HW255230   7.858   5.675   4.113  0.3568 -0.4528  0.8362
18218SOL     OW55231   0.241   8.828   6.580  0.0322 -0.2096 -0.1854
18218SOL    HW155232   0.187   8.768   6.632  1.7111 -1.4977  0.1847
18218SOL    HW255233   0.331   8.801   6.599  0.7573  0.4809 -2.3613
18219SOL     OW55234   2.626   3.964   7.779  0.3075  0.3673  0.2260
18219SOL    HW155235   2.610   3.873   7.756  1.4414  0.4767 -1.0974
18219SOL    HW255236   2.716   3.965   7.813  0.7236  1.1410 -0.8163
18220SOL     OW55237   1.536   2.820   6.520  0.1345 -0.0154 -0.0377
18220SOL    HW155238   1.491   2.901   6.546  1.7789  0.4505  1.5680
18220SOL    HW255239   1.475   2.777   6.460 -0.9757  2.1929 -0.6031
18221SOL     OW55240   2.092   5.224   9.248 -0.3129  0.2882  0.3129
18221SOL    HW155241   2.106   5.245   9.340  0.3329  0.5568  0.1571
18221SOL    HW255242   2.164   5.167   9.224 -0.5542  0.1060  0.0086
18222SOL     OW55243   9.588   9.144   5.478 -0.0356  0.1394  0.3378
18222SOL    HW155244   9.660   9.126   5.538 -0.0349 -1.8305 -0.2048
18222SOL    HW255245   9.623   9.213   5.420  1.0083 -0.0020  0.7706
18223SOL     OW55246   2.859   2.308   9.764  0.5226 -0.3390 -0.1266
18223SOL    HW155247   2.904   2.349   9.839  1.6701 -1.8527  0.0580
18223SOL    HW255248   2.808   2.237   9.803 -2.4876  1.5701 -0.2853
18224SOL     OW55249   0.870   4.381   3.221 -0.0604 -0.1698  0.4058
18224SOL    HW155250   0.776   4.398   3.233 -0.4412 -2.2922  0.8061
18224SOL    HW255251   0.895   4.437   3.148 -1.9934 -0.5718 -0.6394
18225SOL     OW55252   3.042   5.740   3.981 -0.0379  0.1464  0.2299
18225SOL    HW155253   3.012   5.707   4.066 -0.7906  1.3800  0.4780
18225SOL    HW255254   3.095   5.670   3.945 -3.7855 -2.5609 -0.5753
18226SOL     OW55255   3.167   8.713   7.930  0.3259  0.3300 -0.3534
18226SOL    HW155256   3.248   8.708   7.980 -0.2116 -2.8870  0.4487
18226SOL    HW255257   3.194   8.697   7.839  0.6880  0.1568 -0.2167
18227SOL     OW55258   1.226   2.836   9.046 -0.6476  0.5192  0.2585
18227SOL    HW155259   1.198   2.858   9.135 -0.2164 -1.0384  0.8039
18227SOL    HW255260   1.180   2.755   9.025  0.0734  0.2856 -0.5084
18228SOL     OW55261   6.536   9.637   6.847 -0.2916 -0.0139 -0.0347
18228SOL    HW155262   6.617   9.604   6.885  1.7650  3.9404 -0.4501
18228SOL    HW255263   6.542   9.613   6.755  0.4006  0.1757 -0.0472
18229SOL     OW55264   9.473   7.491   3.727  0.0749 -0.2577 -0.1596
18229SOL    HW155265   9.542   7.424   3.729 -1.2665 -1.6986 -0.3573
18229SOL    HW255266   9.416   7.465   3.655  0.3388  2.0118 -1.2748
18230SOL     OW55267   1.700   0.102   6.288 -0.1346  0.0256 -0.1125
18230SOL    HW155268   1.685   0.166   6.358  2.6934  0.7507 -0.0210
18230SOL    HW255269   1.794   0.084   6.292  0.0993 -0.1697 -3.4881
18231SOL     OW55270   0.739   3.587   2.454  0.1452  0.1703 -0.2411
18231SOL    HW155271   0.652   3.584   2.494  0.5336  0.6200  0.6821
18231SOL    HW255272   0.794   3.536   2.514  0.3464 -0.9183 -1.3080
18232SOL     OW55273   0.868   5.529   7.244 -0.4096 -0.0006 -0.1317
18232SOL    HW155274   0.859   5.624   7.234  0.3086  0.0858 -0.0166
18232SOL    HW255275   0.785   5.501   7.282 -0.2889  0.7116  0.6904
18233SOL     OW55276   4.829   2.198   6.189  0.6920  0.2950 -0.0088
18233SOL    HW155277   4.870   2.197   6.103  0.5723  1.2045 -0.0881
18233SOL    HW255278   4.902   2.194   6.251  0.7203 -2.0126 -0.1212
18234SOL     OW55279   9.088   8.972   0.025  0.3690 -0.4134 -0.4145
18234SOL    HW155280   9.020   9.020  -0.021  0.8392 -0.3536 -1.0620
18234SOL    HW255281   9.062   8.975   0.117 -0.7851 -0.8760 -0.7100
18235SOL     OW55282   6.219   6.031   7.633 -0.3782  0.2886 -0.4078
18235SOL    HW155283   6.314   6.034   7.622 -0.3174  0.3308  0.0824
18235SOL    HW255284   6.189   5.966   7.569  0.1314 -0.7053  0.3406
18236SOL     OW55285   6.775   1.806   1.719 -0.1869 -0.4444 -0.7730
18236SOL    HW155286   6.688   1.788   1.682 -0.0278 -0.3431 -1.1945
18236SOL    HW255287   6.813   1.719   1.735  0.7857 -0.5489 -3.2741
18237SOL     OW55288   5.162   2.290   0.935 -0.0645  0.3933  0.1124
18237SOL    HW155289   5.119   2.246   0.862  3.0664 -2.6562 -0.1846
18237SOL    HW255290   5.213   2.360   0.895 -0.8719  0.8258 -0.1693
18238SOL     OW55291   1.297   3.894   9.613 -0.3864  0.4626 -0.0282
18238SOL    HW155292   1.270   3.844   9.690 -1.7247  0.8947 -0.2010
18238SOL    HW255293   1.275   3.984   9.634 -1.1899  0.5290 -1.0920
18239SOL     OW55294   1.095   5.743   2.512  0.0105 -0.0354  0.0827
18239SOL    HW155295   1.030   5.760   2.444 -0.8426 -0.3314  0.8105
18239SOL    HW255296   1.063   5.666   2.558  1.1367 -0.4896  0.1519
18240SOL     OW55297   9.799   5.373   1.029 -0.4170  0.1993 -0.7907
18240SOL    HW155298   9.779   5.293   1.078 -0.5077 -0.3337 -1.6786
18240SOL    HW255299   9.743   5.439   1.069  2.0358  0.6678  2.1997
18241SOL     OW55300   1.341   3.523   4.323 -0.3053 -0.2503 -0.4097
18241SOL    HW155301   1.411   3.473   4.280 -0.2092 -1.6689  1.2503
18241SOL    HW255302   1.285   3.552   4.252 -0.4199 -2.8842 -1.5114
18242SOL     OW55303   3.993   5.041   1.857 -0.2032  0.3969 -0.1306
18242SOL    HW155304   3.936   4.965   1.848 -0.8319  0.8247  0.1110
18242SOL    HW255305   3.969   5.078   1.942  0.3436  0.6669 -0.0894
18243SOL     OW55306   6.459   6.854   8.566 -0.2680  0.2737  0.0073
18243SOL    HW155307   6.382   6.834   8.513  0.9596 -0.9613 -1.4236
18243SOL    HW255308   6.480   6.771   8.610 -0.0525  0.7380  0.8057
18244SOL     OW55309   7.286   4.221   8.542  0.0829 -0.1007  0.0117
18244SOL    HW155310   7.216   4.155   8.539 -1.8063  1.7240  1.3183
18244SOL    HW255311   7.326   4.209   8.628 -0.3498  0.5236  0.3026
18245SOL     OW55312   2.547   7.776   7.055  0.0603  0.0641  0.4155
18245SOL    HW155313   2.553   7.828   7.135 -0.0033  1.5574 -0.5141
18245SOL    HW255314   2.629   7.725   7.053 -0.0671 -0.2016  1.5529
18246SOL     OW55315   1.667   3.454   6.432 -0.0375  0.1090 -0.0030
18246SOL    HW155316   1.751   3.498   6.421 -0.5734  1.4825  1.0424
18246SOL    HW255317   1.612   3.488   6.361 -0.2837  0.7500  0.4794
18247SOL     OW55318   7.727   0.611   5.363 -0.5742 -0.4927 -0.0622
18247SOL    HW155319   7.732   0.520   5.393 -3.2412 -0.7342 -0.1103
18247SOL    HW255320   7.654   0.648   5.411 -0.0480  1.4285 -0.6455
18248SOL     OW55321   8.790   0.575   4.483  0.1018  0.0272 -0.3282
18248SOL    HW155322   8.780   0.516   4.557  2.0089  0.0008 -0.0446
18248SOL    HW255323   8.880   0.608   4.490 -0.5380  2.0701 -1.1413
18249SOL     OW55324   6.443   4.265   8.767  0.2990 -0.1063 -0.1820
18249SOL    HW155325   6.389   4.263   8.845  1.4436 -1.5037  0.6273
18249SOL    HW255326   6.439   4.356   8.737 -1.3301  0.1279  0.6296
18250SOL     OW55327   6.960   0.804   1.724  0.7877 -0.0612 -0.1764
18250SOL    HW155328   6.952   0.782   1.631 -5.1894  0.4533 -0.1663
18250SOL    HW255329   6.966   0.720   1.768  1.5562 -0.4084 -0.9158
18251SOL     OW55330   6.687   6.154   7.071 -0.1255 -0.0499 -0.0812
18251SOL    HW155331   6.688   6.235   7.022 -1.2139  0.3232  0.4765
18251SOL    HW255332   6.769   6.111   7.048  0.1352  0.8657 -0.9355
18252SOL     OW55333   2.851   1.902   3.402 -0.1911  0.4073  0.3259
18252SOL    HW155334   2.807   1.952   3.471 -0.1273 -0.0215  0.6769
18252SOL    HW255335   2.779   1.870   3.346 -0.4458 -1.3308  1.5846
18253SOL     OW55336   9.254   8.798   1.497  0.3174  0.0880  0.2372
18253SOL    HW155337   9.341   8.837   1.503  0.3383 -0.1211  1.5292
18253SOL    HW255338   9.224   8.821   1.409  0.9344  1.7555  0.4246
18254SOL     OW55339   5.181   7.805   1.853  0.0760  0.2296  0.0244
18254SOL    HW155340   5.216   7.814   1.764  3.0905 -0.0345  1.0757
18254SOL    HW255341   5.207   7.886   1.897  0.5334 -0.5643  1.2471
18255SOL     OW55342   9.635   3.659   9.461  0.2595  0.0602 -0.3879
18255SOL    HW155343   9.645   3.571   9.498  1.1147  0.1963 -0.2685
18255SOL    HW255344   9.718   3.675   9.416 -0.2036  0.4853 -1.1155
18256SOL     OW55345   7.506   6.668   5.943 -0.2939  0.0435 -0.2435
18256SOL    HW155346   7.490   6.695   5.852  0.4252  0.9691 -0.1193
18256SOL    HW255347   7.530   6.576   5.937  1.5804  0.5289 -1.2477
18257SOL     OW55348   0.145   9.801   6.185 -0.0542  0.0565 -0.2898
18257SOL    HW155349   0.153   9.766   6.274  0.9640 -1.2285 -0.8487
18257SOL    HW255350   0.053   9.790   6.163 -0.2062 -0.1185  0.4163
18258SOL     OW55351   5.487   3.668   9.648  0.0464 -0.1181  0.1554
18258SOL    HW155352   5.553   3.663   9.579 -0.9624 -0.5488 -0.8061
18258SOL    HW255353   5.420   3.727   9.613 -1.0002 -1.1951  0.3000
18259SOL     OW55354   4.742   4.259   0.267  0.2942 -0.5436 -0.5751
18259SOL    HW155355   4.692   4.307   0.201 -1.6083  0.0854  1.2408
18259SOL    HW255356   4.781   4.328   0.321 -0.3992 -1.0190  0.5560
18260SOL     OW55357   7.227   8.026   7.312  0.2314 -0.3440 -0.3957
18260SOL    HW155358   7.287   8.044   7.239  0.4391  2.9207  0.4195
18260SOL    HW255359   7.258   7.943   7.349  1.8430 -0.6679 -2.3081
18261SOL     OW55360   4.294   2.453   5.278  0.2097 -0.1063 -0.5372
18261SOL    HW155361   4.244   2.374   5.256  0.3224  0.1012 -1.6096
18261SOL    HW255362   4.232   2.525   5.266  0.3456  0.0349 -0.3935
18262SOL     OW55363   5.813   6.402   7.678 -0.1606  0.3753  0.1849
18262SOL    HW155364   5.880   6.434   7.617 -0.4794  1.4790  0.3816
18262SOL    HW255365   5.756   6.346   7.625  1.0641 -0.8229  0.0841
18263SOL     OW55366   6.239   1.078   4.607  0.5490  0.5218  0.2900
18263SOL    HW155367   6.151   1.115   4.604 -0.7699 -2.3606  0.0176
18263SOL    HW255368   6.272   1.088   4.518 -0.4979 -0.5326 -0.2311
18264SOL     OW55369   6.345   4.684   3.381  0.4419  0.7084  0.4426
18264SOL    HW155370   6.267   4.720   3.339  0.8816 -0.3101 -1.3867
18264SOL    HW255371   6.313   4.610   3.433  0.2705 -0.8987 -1.7620
18265SOL     OW55372   8.003   1.592   0.254 -0.5990 -0.1488 -0.0736
18265SOL    HW155373   7.988   1.684   0.272 -0.4656 -0.2518  0.6027
18265SOL    HW255374   7.929   1.565   0.199 -0.5855  0.3780 -0.3542
18266SOL     OW55375   5.623   5.197   1.022 -0.4549 -0.6680 -0.0077
18266SOL    HW155376   5.684   5.265   1.051  0.2677 -0.8335 -1.0682
18266SOL    HW255377   5.597   5.224   0.934 -2.3365 -0.3441  0.6132
18267SOL     OW55378   1.809   8.536   1.005  0.1817  0.4311  0.0346
18267SOL    HW155379   1.731   8.567   0.960 -0.0303 -1.2367 -0.8339
18267SOL    HW255380   1.817   8.593   1.082  0.2106  2.9513 -1.7390
18268SOL     OW55381   0.201   0.624   5.889  0.1990  0.0804 -0.4179
18268SOL    HW155382   0.211   0.532   5.863  0.9415  0.6450 -2.2717
18268SOL    HW255383   0.118   0.651   5.850 -0.4870 -0.0083  0.9003
18269SOL     OW55384   9.293   4.484   3.977 -0.4779 -0.1658  0.2031
18269SOL    HW155385   9.302   4.555   3.913 -0.0244 -1.2247 -0.9339
18269SOL    HW255386   9.375   4.486   4.027  0.1289 -0.7471 -0.7414
18270SOL     OW55387   6.725   0.623   9.226 -0.4711  0.1067 -0.3271
18270SOL    HW155388   6.637   0.620   9.263 -0.6276 -0.6088 -0.7350
18270SOL    HW255389   6.772   0.553   9.271  0.2111  1.1785  0.6615
18271SOL     OW55390   8.413   8.748   6.002  0.3519  0.2065 -0.3921
18271SOL    HW155391   8.453   8.812   5.944  0.3356  2.9337  2.3391
18271SOL    HW255392   8.325   8.783   6.019  0.2094 -0.6995  0.8928
18272SOL     OW55393   1.680   2.409   2.118  0.0409 -0.0485 -0.1383
18272SOL    HW155394   1.721   2.495   2.113 -0.8230  0.3124 -1.3742
18272SOL    HW255395   1.719   2.360   2.045 -2.7669  0.8242 -2.4338
18273SOL     OW55396   3.150   5.296   9.820  0.2470 -0.0378 -0.0118
18273SOL    HW155397   3.187   5.348   9.892 -1.1790  0.3283  0.4890
18273SOL    HW255398   3.206   5.317   9.745  2.0178 -0.7323  1.0392
18274SOL     OW55399   9.687   8.095   7.917  0.3698 -0.4271 -0.6695
18274SOL    HW155400   9.654   8.184   7.902 -0.5168 -0.7145 -0.4887
18274SOL    HW255401   9.715   8.066   7.830 -1.4397 -0.7770 -1.1853
18275SOL     OW55402   4.274   4.207   9.403 -0.4848 -0.0467  0.0764
18275SOL    HW155403   4.301   4.144   9.336 -0.2740 -0.1517  0.2591
18275SOL    HW255404   4.247   4.285   9.354 -0.1029 -0.0396 -0.1192
18276SOL     OW55405   1.618   6.952   0.613  0.2306  0.0173 -0.5807
18276SOL    HW155406   1.713   6.944   0.626  0.0345 -0.1191  0.9660
18276SOL    HW255407   1.595   6.873   0.565  0.8990  0.0429 -0.9614
18277SOL     OW55408   8.906   6.505   1.013  0.0505 -0.1433  0.1868
18277SOL    HW155409   8.886   6.547   1.097 -0.0848  2.4613 -1.0453
18277SOL    HW255410   8.823   6.505   0.966  0.6097  0.6275 -0.8321
18278SOL     OW55411   3.786   2.433   6.998 -0.3389  0.0508 -0.0415
18278SOL    HW155412   3.865   2.486   7.007 -0.7958  0.6863  0.4157
18278SOL    HW255413   3.719   2.496   6.971 -1.4610  0.2249  2.8262
18279SOL     OW55414   3.995   2.459   4.801  0.2776  0.2193  0.3806
18279SOL    HW155415   3.975   2.413   4.882  1.3005  2.0318  1.7344
18279SOL    HW255416   3.913   2.500   4.775  0.3404  1.1391  1.5486
18280SOL     OW55417   8.054   6.607   5.089 -0.0514  0.1392 -0.2114
18280SOL    HW155418   8.051   6.678   5.025 -0.5788 -0.4815 -0.8920
18280SOL    HW255419   8.090   6.532   5.040 -0.4351 -0.3367  0.2177
18281SOL     OW55420   0.542   5.061   5.591 -0.2677  0.1146 -0.1983
18281SOL    HW155421   0.575   5.050   5.502 -0.2003  0.6778 -0.2468
18281SOL    HW255422   0.456   5.018   5.590  0.1903 -0.8222 -0.2359
18282SOL     OW55423   8.931   0.410   9.777  0.7407  0.5398 -0.3093
18282SOL    HW155424   8.886   0.474   9.722 -1.0548  0.5523  1.0571
18282SOL    HW255425   9.004   0.459   9.816 -0.4486  1.7466  0.5187
18283SOL     OW55426   7.151   0.293   7.960 -0.1629 -0.6010  0.0430
18283SOL    HW155427   7.150   0.200   7.982  0.5735 -0.5621  0.2547
18283SOL    HW255428   7.148   0.338   8.045 -2.0275 -0.4051 -0.0910
18284SOL     OW55429   6.322   5.567   7.033 -0.7431 -0.1978  0.7655
18284SOL    HW155430   6.329   5.490   7.090  1.8186 -0.5891  0.0268
18284SOL    HW255431   6.333   5.642   7.091 -2.0495 -0.3939  1.3049
18285SOL     OW55432   3.217   9.086   8.975 -0.0586 -0.2805  0.5767
18285SOL    HW155433   3.210   9.094   9.070  1.7755 -1.4275  0.8548
18285SOL    HW255434   3.304   9.118   8.955  0.4442 -2.1201 -0.4154
18286SOL     OW55435   4.516   2.998   0.553 -0.2631  0.5557 -0.0925
18286SOL    HW155436   4.536   3.091   0.566 -1.0144  0.6313  0.6037
18286SOL    HW255437   4.571   2.972   0.479  0.8853  1.2397  0.4855
18287SOL     OW55438   0.533   1.614   9.077 -0.5759  0.1062 -0.1715
18287SOL    HW155439   0.472   1.687   9.073 -2.3794 -1.3127  0.3440
18287SOL    HW255440   0.494   1.547   9.020  1.1602 -0.3971 -0.8460
18288SOL     OW55441   1.456   9.530   6.471  0.2410 -0.1448  0.1678
18288SOL    HW155442   1.401   9.459   6.502  0.3829 -0.5330 -0.4425
18288SOL    HW255443   1.452   9.523   6.375  0.5615  0.4293  0.1086
18289SOL     OW55444   5.121   0.477   1.925  0.0406  0.1706 -0.0249
18289SOL    HW155445   5.033   0.514   1.932 -0.5778  0.4599 -5.5572
18289SOL    HW255446   5.174   0.545   1.884  2.1482 -0.9817  0.5950
18290SOL     OW55447   7.267   6.594   5.484  0.3873 -0.2198 -0.5514
18290SOL    HW155448   7.194   6.563   5.429  0.5058 -0.4886 -0.5576
18290SOL    HW255449   7.230   6.668   5.531 -0.4781 -1.4575  0.8291
18291SOL     OW55450   5.320   6.354   2.389  0.4007 -0.1479 -0.3103
18291SOL    HW155451   5.240   6.316   2.423  0.5420  0.5960  0.8813
18291SOL    HW255452   5.356   6.286   2.331  1.6529 -2.7548  3.1959
18292SOL     OW55453   8.259   1.115   6.781  0.1418  0.0971  0.4992
18292SOL    HW155454   8.224   1.166   6.854 -2.2073 -0.9095  0.1629
18292SOL    HW255455   8.207   1.142   6.706  0.6293 -0.8872 -0.2133
18293SOL     OW55456   6.893   4.020   3.848 -0.5406  0.3658 -0.2342
18293SOL    HW155457   6.985   4.047   3.847 -0.7099  0.9443 -0.4597
18293SOL    HW255458   6.896   3.926   3.861  0.0765  0.4316  0.1446
18294SOL     OW55459   5.173   9.033   8.467 -0.4876  0.2348  0.2383
18294SOL    HW155460   5.131   8.976   8.531  1.6414 -1.5762  0.1570
18294SOL    HW255461   5.199   8.974   8.396 -0.4750  1.7612 -1.0677
18295SOL     OW55462   3.912   0.739   7.417  0.5515 -0.0400 -0.1136
18295SOL    HW155463   3.828   0.700   7.440  1.4796 -0.5026  2.8914
18295SOL    HW255464   3.930   0.706   7.329 -1.0738 -2.2863  0.3102
18296SOL     OW55465   1.500   1.087   2.819 -0.1781 -1.1015  0.6290
18296SOL    HW155466   1.405   1.074   2.827 -0.2160 -0.0777  2.3720
18296SOL    HW255467   1.520   1.155   2.883  1.6421 -0.7702 -0.2352
18297SOL     OW55468   9.090   6.745   0.897 -0.2873  0.3382 -0.4624
18297SOL    HW155469   9.135   6.667   0.930  0.2626  0.8704  0.0820
18297SOL    HW255470   9.001   6.737   0.931  0.3507  1.0556  1.5633
18298SOL     OW55471   7.664   0.036   3.518 -0.5245 -0.1875  0.4453
18298SOL    HW155472   7.722  -0.004   3.583  1.1803  0.4066 -0.6218
18298SOL    HW255473   7.576   0.018   3.549  0.1916 -2.4806  1.3595
18299SOL     OW55474   3.226   0.143   2.379 -0.1572 -0.1174  0.2181
18299SOL    HW155475   3.204   0.103   2.463 -0.6730 -1.1139 -0.3726
18299SOL    HW255476   3.319   0.125   2.366  0.6876  2.5113  1.8677
18300SOL     OW55477   4.058   2.938   1.572  0.1488 -0.4471  0.0213
18300SOL    HW155478   4.078   2.997   1.645  1.1007 -0.3609 -0.2844
18300SOL    HW255479   4.016   2.863   1.612 -0.0243 -0.0640  0.5651
18301SOL     OW55480   4.305   5.556   3.208 -0.4359 -0.0913  0.1404
18301SOL    HW155481   4.284   5.503   3.131 -1.0083  0.3338  0.0009
18301SOL    HW255482   4.305   5.493   3.280 -2.2317 -0.1320  0.1567
18302SOL     OW55483   9.384   8.538   5.965 -0.1679 -0.2042  0.2469
18302SOL    HW155484   9.305   8.484   5.974 -0.2138  0.0355  1.4844
18302SOL    HW255485   9.351   8.628   5.967 -0.0359 -0.0986 -1.2293
18303SOL     OW55486   4.061   0.740   2.435  0.1417  0.0041  0.1809
18303SOL    HW155487   4.011   0.796   2.376  0.5006  0.5529  0.3904
18303SOL    HW255488   4.136   0.794   2.462  0.8608 -0.8183 -0.1450
18304SOL     OW55489   9.075   7.014   6.590 -0.0713  0.0969 -0.4050
18304SOL    HW155490   9.160   7.053   6.572  0.3643  0.8465  2.6253
18304SOL    HW255491   9.022   7.087   6.623 -0.6404 -1.0168  1.2686
18305SOL     OW55492   6.191   2.229   4.753  0.8195  0.1455  0.3984
18305SOL    HW155493   6.229   2.272   4.830  1.1517  1.7726 -0.6282
18305SOL    HW255494   6.143   2.298   4.708  0.5595 -0.7934 -0.8229
18306SOL     OW55495   4.897   6.846   0.266  0.1895 -0.1866 -1.3498
18306SOL    HW155496   4.969   6.789   0.295  0.7841  1.1533 -0.0355
18306SOL    HW255497   4.939   6.910   0.208  0.0888  0.6184 -0.5570
18307SOL     OW55498   1.171   7.438   5.612 -0.0830  0.6141  0.3145
18307SOL    HW155499   1.241   7.430   5.547 -0.4318 -0.0178  0.0051
18307SOL    HW255500   1.097   7.473   5.563 -0.6614 -0.8076  0.1152
18308SOL     OW55501   3.657   2.048   9.463 -0.0106  0.3058  0.1857
18308SOL    HW155502   3.667   1.972   9.520 -0.5073  0.2265  0.1654
18308SOL    HW255503   3.708   2.025   9.385 -0.1423  0.0009  0.1871
18309SOL     OW55504   2.830   2.466   5.529  0.3902 -0.1722  0.5559
18309SOL    HW155505   2.836   2.441   5.621 -2.2184 -2.6820  0.2020
18309SOL    HW255506   2.861   2.389   5.481 -0.2731  0.2844 -0.6494
18310SOL     OW55507   9.746   0.815   7.963 -0.3789  0.2645  0.0912
18310SOL    HW155508   9.713   0.726   7.976  0.0762 -0.0169 -0.6379
18310SOL    HW255509   9.825   0.805   7.910  0.4349  0.9959  1.1231
18311SOL     OW55510   0.679   4.931   7.116 -0.3212  0.1966  0.2430
18311SOL    HW155511   0.746   4.979   7.166 -0.6756  0.9086  0.0561
18311SOL    HW255512   0.725   4.854   7.083  0.5656  0.9474 -0.3332
18312SOL     OW55513   2.084   2.220   9.466 -0.0724 -0.1792  0.0222
18312SOL    HW155514   2.043   2.205   9.551 -0.0669  0.3746  0.1271
18312SOL    HW255515   2.039   2.297   9.430  3.1906  2.9008  1.7649
18313SOL     OW55516   8.025   3.224   4.952  0.1391 -0.3537 -0.7144
18313SOL    HW155517   8.049   3.314   4.971  1.0417 -0.6349 -0.5055
18313SOL    HW255518   7.960   3.202   5.019 -0.0600  0.1237 -0.7472
18314SOL     OW55519   7.699   5.766   2.500 -0.1571 -0.1156 -0.1955
18314SOL    HW155520   7.650   5.845   2.477  0.0342  0.3491  0.9167
18314SOL    HW255521   7.777   5.768   2.445 -0.9512 -0.4112 -1.3639
18315SOL     OW55522   9.173   3.008   8.608  0.6575  0.0622 -0.1703
18315SOL    HW155523   9.213   2.942   8.665  0.2244  0.0854  0.1615
18315SOL    HW255524   9.097   3.040   8.657  2.1180  2.4632  0.7489
18316SOL     OW55525   3.249   2.299   0.145 -1.2718  0.0424 -0.7141
18316SOL    HW155526   3.196   2.341   0.077 -1.0331  0.9959 -0.3305
18316SOL    HW255527   3.340   2.316   0.118 -1.1766  0.2043 -0.2972
18317SOL     OW55528   1.133   9.845   0.921 -0.6462 -0.5927 -0.1687
18317SOL    HW155529   1.053   9.838   0.870 -1.5930  0.1153  1.1581
18317SOL    HW255530   1.192   9.781   0.882 -1.1921  0.1203 -2.3344
18318SOL     OW55531   1.452   3.756   8.447  0.1366 -0.0179 -0.0228
18318SOL    HW155532   1.419   3.668   8.429 -0.2851  0.5194 -2.1550
18318SOL    HW255533   1.431   3.771   8.539 -2.6731 -0.9492 -0.4120
18319SOL     OW55534   3.845   4.918   0.310 -0.1076  0.1391 -0.0734
18319SOL    HW155535   3.935   4.885   0.306  0.0403  0.6073 -0.7181
18319SOL    HW255536   3.852   5.002   0.355 -0.1958  0.2496 -0.2638
18320SOL     OW55537   1.473   0.595   2.935  0.3952 -0.2405 -0.1576
18320SOL    HW155538   1.553   0.617   2.983  0.9643 -1.3801 -0.5567
18320SOL    HW255539   1.407   0.655   2.971  1.4521  0.8413  0.0589
18321SOL     OW55540   8.327   2.863   4.673 -0.1032 -0.3951 -0.0063
18321SOL    HW155541   8.365   2.818   4.748 -0.6282  0.3155  0.6950
18321SOL    HW255542   8.239   2.826   4.665 -0.2040 -0.1548 -0.0056
18322SOL     OW55543   2.087   5.171   1.150 -0.7666 -0.2315  0.6075
18322SOL    HW155544   2.158   5.106   1.148  0.1791  0.7782 -1.6184
18322SOL    HW255545   2.042   5.160   1.067 -0.8307  1.6966  0.3440
18323SOL     OW55546   6.477   1.821   8.766 -0.2947 -0.0091  0.5389
18323SOL    HW155547   6.463   1.899   8.712 -0.7157  0.3395  1.1520
18323SOL    HW255548   6.465   1.851   8.856 -0.6676 -0.8244  0.7670
18324SOL     OW55549   5.940   7.615   4.611 -0.5697  0.4505 -0.2664
18324SOL    HW155550   5.960   7.708   4.621  0.5336  0.1342  0.7441
18324SOL    HW255551   5.982   7.590   4.529 -0.4242  0.7229 -0.2763
18325SOL     OW55552   1.221   7.499   4.514  0.3140  0.0772 -0.4697
18325SOL    HW155553   1.296   7.549   4.545 -0.0279 -0.9998  2.3461
18325SOL    HW255554   1.156   7.508   4.583 -0.5495 -2.4774 -0.8412
18326SOL     OW55555   5.241   8.852   7.316  0.3620 -0.7978  0.5072
18326SOL    HW155556   5.244   8.758   7.333  1.8644 -0.7505  0.6415
18326SOL    HW255557   5.327   8.884   7.343 -0.1515  0.6366  0.5414
18327SOL     OW55558   8.492   5.715   8.595 -0.0153  0.0988  0.8659
18327SOL    HW155559   8.502   5.678   8.683 -1.7913 -2.2948  0.1757
18327SOL    HW255560   8.570   5.688   8.548  0.2769  0.1608  1.3149
18328SOL     OW55561   2.063   9.654   4.974  0.4154  0.1153 -0.4856
18328SOL    HW155562   2.065   9.567   4.933 -1.8321  0.3097 -1.1566
18328SOL    HW255563   1.970   9.671   4.990  0.8659  2.0711  0.3705
18329SOL     OW55564   6.856   7.161   1.270  0.6588  0.3566 -0.1779
18329SOL    HW155565   6.764   7.183   1.257  0.9243  0.8227 -1.3467
18329SOL    HW255566   6.855   7.071   1.303 -0.2625  0.8149  1.1312
18330SOL     OW55567   2.460   5.806   7.853  0.4063 -0.1936  0.1136
18330SOL    HW155568   2.518   5.738   7.819 -0.2848 -1.1175  0.7359
18330SOL    HW255569   2.513   5.851   7.919  1.4918  1.1150 -1.5593
18331SOL     OW55570   4.221   9.083   2.357  0.3903 -0.4034 -0.2428
18331SOL    HW155571   4.260   9.032   2.427  2.0446 -0.0736 -0.8673
18331SOL    HW255572   4.271   9.165   2.357 -0.3718  0.0752 -1.0319
18332SOL     OW55573   4.554   7.134   0.833  0.0454  0.0153  0.2729
18332SOL    HW155574   4.561   7.137   0.929 -0.0854  1.8931  0.2645
18332SOL    HW255575   4.566   7.225   0.806 -0.5269 -0.3977 -1.4558
18333SOL     OW55576   9.533   2.194   0.572  0.3282 -0.3887 -0.3113
18333SOL    HW155577   9.457   2.164   0.521  1.0818 -1.6171 -0.7598
18333SOL    HW255578   9.508   2.281   0.603 -0.9334 -0.4229 -1.1468
18334SOL     OW55579   2.998   2.580   6.707 -0.5245 -0.0879 -0.2933
18334SOL    HW155580   2.930   2.515   6.725 -0.6708  0.1362 -0.0386
18334SOL    HW255581   3.007   2.579   6.612  0.9496 -1.9846 -0.1800
18335SOL     OW55582   0.961   0.548   0.737  0.9335 -0.7659  0.6716
18335SOL    HW155583   0.873   0.576   0.713  0.7278 -1.1879  0.9273
18335SOL    HW255584   1.019   0.596   0.678  0.5957  0.3530  1.2261
18336SOL     OW55585   2.743   0.222   1.797 -0.3063  0.2857 -0.1801
18336SOL    HW155586   2.769   0.138   1.834 -0.2131  1.2154  2.0139
18336SOL    HW255587   2.817   0.248   1.741 -0.5289 -1.2469 -1.2559
18337SOL     OW55588   7.982   8.414   9.412 -0.1371  0.7398 -0.0963
18337SOL    HW155589   8.065   8.462   9.415  0.2840  0.0210  0.1348
18337SOL    HW255590   7.996   8.348   9.345  1.2398 -2.4315  3.0023
18338SOL     OW55591   0.171   3.282   7.463  0.1724  0.7325  0.2274
18338SOL    HW155592   0.259   3.246   7.458 -0.6695 -1.3824 -0.6435
18338SOL    HW255593   0.179   3.370   7.428  1.9863  0.7142  0.4930
18339SOL     OW55594   6.352   3.487   8.302 -0.2022  0.8529 -0.0530
18339SOL    HW155595   6.416   3.436   8.353  1.1818 -0.0437 -2.4867
18339SOL    HW255596   6.404   3.558   8.264 -0.9662  0.9481 -0.9413
18340SOL     OW55597   3.552   8.349   6.803 -0.4721 -0.2281 -0.2310
18340SOL    HW155598   3.599   8.384   6.727  0.2173  1.2513  0.8373
18340SOL    HW255599   3.617   8.345   6.873 -0.8634 -2.4639  0.0874
18341SOL     OW55600   0.532   8.015   9.826  0.0062 -0.1327  0.2560
18341SOL    HW155601   0.627   8.013   9.815  0.0489  2.2450 -0.1898
18341SOL    HW255602   0.498   7.984   9.742  0.2821 -3.0112  1.0640
18342SOL     OW55603   7.016   5.767   2.931 -0.4165 -0.3916 -0.0980
18342SOL    HW155604   7.023   5.692   2.990  1.3018  0.5537  0.9661
18342SOL    HW255605   6.993   5.840   2.988  1.6716  0.6240 -0.4580
18343SOL     OW55606   8.695   0.933   6.983 -0.2283  0.2403 -0.1472
18343SOL    HW155607   8.720   0.850   6.943  1.3836  1.0534 -0.9509
18343SOL    HW255608   8.637   0.974   6.919  0.5338  0.5497 -0.6626
18344SOL     OW55609   0.715   3.561   8.792 -0.1155  0.2268  0.0568
18344SOL    HW155610   0.772   3.583   8.866 -1.3823  1.9072  0.6132
18344SOL    HW255611   0.759   3.597   8.716 -0.6564  2.0985  0.5636
18345SOL     OW55612   4.034   6.903   4.931  0.3243  0.4316  0.0452
18345SOL    HW155613   4.076   6.985   4.959 -0.3063  1.2181 -1.1864
18345SOL    HW255614   4.044   6.903   4.836 -1.9867  0.4177 -0.2528
18346SOL     OW55615   9.745   8.697   6.848 -0.3756 -0.1440  0.0115
18346SOL    HW155616   9.722   8.636   6.917 -0.0287 -2.5119 -1.8614
18346SOL    HW255617   9.835   8.722   6.868 -0.8180  0.5290  1.2866
18347SOL     OW55618   1.890   6.899   0.333  0.0889 -0.4965  0.5655
18347SOL    HW155619   1.794   6.891   0.340  0.2382 -1.1324  2.6165
18347SOL    HW255620   1.924   6.824   0.383  1.5871  2.3218  4.2674
18348SOL     OW55621   5.662   1.158   0.115  0.2573  0.4397 -0.2052
18348SOL    HW155622   5.713   1.210   0.177 -0.3800 -0.3109  1.0057
18348SOL    HW255623   5.688   1.189   0.029  1.4513  1.2670  0.4347
18349SOL     OW55624   1.209   5.584   3.908 -0.1069  0.2182  0.0214
18349SOL    HW155625   1.301   5.605   3.925 -0.2565  2.2638 -1.2881
18349SOL    HW255626   1.162   5.624   3.981 -0.0210 -0.2587  0.3436
18350SOL     OW55627   3.752   3.562   8.700  0.1981 -0.5256 -0.5554
18350SOL    HW155628   3.683   3.564   8.766 -0.5916 -1.6385 -1.3038
18350SOL    HW255629   3.752   3.650   8.662  0.3870  0.0002  0.6208
18351SOL     OW55630   7.555   3.806   9.871  0.9105 -0.3262  0.1466
18351SOL    HW155631   7.501   3.821   9.949  0.6069  0.3075 -0.1865
18351SOL    HW255632   7.607   3.886   9.862  1.6827 -0.8004  0.2777
18352SOL     OW55633   1.490   5.313   9.661 -0.1036 -0.1596 -0.1541
18352SOL    HW155634   1.473   5.406   9.675  1.2101  0.6945 -3.2388
18352SOL    HW255635   1.498   5.276   9.749 -1.1620  2.5135  1.1761
18353SOL     OW55636   7.738   3.852   5.968  0.4471  0.3898 -0.5556
18353SOL    HW155637   7.652   3.893   5.962  0.1184 -0.2450 -0.2863
18353SOL    HW255638   7.781   3.874   5.885  0.1193  0.9112 -0.5914
18354SOL     OW55639   5.334   2.871   1.514 -0.8327  0.2680  0.4023
18354SOL    HW155640   5.375   2.955   1.494  0.1226 -0.2713  0.0310
18354SOL    HW255641   5.253   2.872   1.463 -0.2756  0.4985 -0.5093
18355SOL     OW55642   4.969   3.344   6.796  0.2773 -0.7435  0.0282
18355SOL    HW155643   5.022   3.292   6.736  0.3742 -0.7294  0.1026
18355SOL    HW255644   4.892   3.289   6.813 -0.8586  0.1425 -1.8651
18356SOL     OW55645   6.461   7.766   5.852  0.1642  0.4040  0.0306
18356SOL    HW155646   6.556   7.759   5.850  0.1564  0.4472 -1.0277
18356SOL    HW255647   6.438   7.801   5.766 -0.8080  0.4174  0.2863
18357SOL     OW55648   4.001   9.918   7.514 -0.1775  0.5495  0.0702
18357SOL    HW155649   3.916   9.950   7.484  0.1280  0.2083 -1.2392
18357SOL    HW255650   4.026   9.978   7.584 -0.8309  1.5509 -0.5223
18358SOL     OW55651   2.269   5.655   4.885 -0.2243 -0.6410  0.2520
18358SOL    HW155652   2.232   5.636   4.798 -0.7182 -0.9839  0.5277
18358SOL    HW255653   2.341   5.716   4.868 -1.4554  0.7312 -0.2225
18359SOL     OW55654   7.559   9.531   0.873 -0.2417  0.1377  0.2854
18359SOL    HW155655   7.584   9.482   0.794  0.4261  0.0395  0.5472
18359SOL    HW255656   7.577   9.622   0.851 -0.1983  0.1259  0.2714
18360SOL     OW55657   7.323   6.617   0.678  0.2178 -0.1081 -0.3415
18360SOL    HW155658   7.236   6.622   0.718  0.7225 -1.6883  1.0647
18360SOL    HW255659   7.383   6.605   0.752  1.7003  1.2848 -1.2524
18361SOL     OW55660   3.271   2.422   5.222  0.2705 -0.5172 -0.8182
18361SOL    HW155661   3.316   2.352   5.269  0.1082 -0.7634 -1.0215
18361SOL    HW255662   3.292   2.502   5.270  0.5672 -0.6890 -0.6609
18362SOL     OW55663   3.298   6.092   2.292  0.0678 -0.4324  0.0589
18362SOL    HW155664   3.342   6.021   2.338  0.7117  0.0939  0.2826
18362SOL    HW255665   3.212   6.098   2.334 -0.0725 -1.2111 -0.1076
18363SOL     OW55666   9.291   1.420   4.260  0.0731 -0.6121  0.3241
18363SOL    HW155667   9.212   1.472   4.273 -0.1971 -1.3061  1.7250
18363SOL    HW255668   9.268   1.333   4.295  1.3622 -0.9024  0.5067
18364SOL     OW55669   4.471   0.383   0.549 -0.4570  0.0278  0.9215
18364SOL    HW155670   4.376   0.375   0.554 -0.4514 -0.0769  0.8617
18364SOL    HW255671   4.498   0.311   0.493 -0.2176 -0.7514  2.0075
18365SOL     OW55672   0.704   4.313   7.658  0.4991 -0.2694  0.0988
18365SOL    HW155673   0.703   4.329   7.564  1.0871 -0.3913  0.0681
18365SOL    HW255674   0.784   4.357   7.689 -1.4807  2.9652  1.1218
18366SOL     OW55675   2.536   1.666   7.761 -0.0926 -0.8499 -0.2882
18366SOL    HW155676   2.538   1.701   7.671 -1.9450  0.1422 -0.0024
18366SOL    HW255677   2.624   1.683   7.795  0.0970  0.4169 -1.3194
18367SOL     OW55678   7.891   2.173   0.120  0.7860  0.1504  0.8879
18367SOL    HW155679   7.814   2.231   0.112  0.9802  0.3357  0.2956
18367SOL    HW255680   7.951   2.204   0.052  2.3806  1.5065  2.7911
18368SOL     OW55681   7.965   5.625   1.714 -0.0773 -0.1895 -0.1339
18368SOL    HW155682   7.989   5.543   1.757  2.4047 -0.2697 -1.5117
18368SOL    HW255683   7.945   5.685   1.786  0.8510 -1.1856  0.9976
18369SOL     OW55684   1.891   1.433   1.694  0.0958 -0.1498 -0.0054
18369SOL    HW155685   1.959   1.367   1.702 -1.0756 -1.2267  1.5003
18369SOL    HW255686   1.853   1.440   1.781  1.2248  3.7427  0.3530
18370SOL     OW55687   3.335   0.187   1.089 -0.4332  0.1692  0.2092
18370SOL    HW155688   3.424   0.205   1.059 -0.3790 -1.3631 -0.6379
18370SOL    HW255689   3.279   0.214   1.017 -0.6316  0.6245  0.5257
18371SOL     OW55690   4.641   4.143   2.503 -0.1110 -0.3096 -0.0736
18371SOL    HW155691   4.714   4.084   2.524  0.3052  0.3923  0.4834
18371SOL    HW255692   4.683   4.227   2.484 -0.7556  0.0215 -0.0437
18372SOL     OW55693   0.353   3.490   7.842 -0.1321 -0.5218  0.0499
18372SOL    HW155694   0.347   3.396   7.826 -1.2118 -0.5998  0.8016
18372SOL    HW255695   0.416   3.499   7.913  0.2105 -0.6568 -0.2396
18373SOL     OW55696   4.214   9.810   0.183  1.1383  0.6810 -0.5437
18373SOL    HW155697   4.172   9.816   0.269  1.1387 -3.3253 -0.1140
18373SOL    HW255698   4.307   9.802   0.202  1.2072  0.4542 -0.9743
18374SOL     OW55699   8.294   4.038   4.622  0.5066 -0.6792 -0.0272
18374SOL    HW155700   8.226   4.105   4.620  0.2292 -0.9388 -2.1771
18374SOL    HW255701   8.315   4.022   4.530  1.5481 -2.5538  0.4660
18375SOL     OW55702   1.458   2.334   7.161 -0.4052 -0.1876 -0.1293
18375SOL    HW155703   1.371   2.369   7.182 -1.4446 -1.8544 -1.3754
18375SOL    HW255704   1.509   2.347   7.240 -1.9314  0.4395  0.7987
18376SOL     OW55705   1.885   5.593   4.153  0.2196  0.3988 -0.3664
18376SOL    HW155706   1.838   5.649   4.214  1.2249  0.4127  0.4118
18376SOL    HW255707   1.852   5.619   4.067 -0.8775  0.6907  0.1209
18377SOL     OW55708   4.313   4.605   5.107 -0.1239 -0.0244  0.1073
18377SOL    HW155709   4.291   4.691   5.144  0.8598  1.0468 -1.6614
18377SOL    HW255710   4.306   4.544   5.181 -0.1090  1.6879  1.5825
18378SOL     OW55711   6.425   1.310   8.529 -0.0698 -0.3809  0.5466
18378SOL    HW155712   6.396   1.389   8.576 -0.7369  0.2330 -0.8422
18378SOL    HW255713   6.409   1.330   8.437 -0.9940 -2.4507  0.2068
18379SOL     OW55714   9.403   1.397   0.745  0.1762  0.2510 -0.3117
18379SOL    HW155715   9.365   1.445   0.672 -0.4244 -0.9086 -0.7762
18379SOL    HW255716   9.357   1.431   0.822  2.3508  3.1171 -0.1012
18380SOL     OW55717   3.274   8.867   2.012 -0.2393  0.3828 -0.6947
18380SOL    HW155718   3.201   8.863   2.074 -0.3710  1.4131 -0.7733
18380SOL    HW255719   3.251   8.803   1.944 -0.1088 -0.7387  0.2757
18381SOL     OW55720   5.614   8.540   7.193 -0.3351  0.9165 -0.0797
18381SOL    HW155721   5.700   8.558   7.230 -0.4437  1.4124 -0.0589
18381SOL    HW255722   5.611   8.592   7.113 -0.5623  0.7991 -0.1480
18382SOL     OW55723   6.633   5.678   5.879 -0.7763  0.3216 -0.4296
18382SOL    HW155724   6.618   5.664   5.785  0.6641  0.2754 -0.6688
18382SOL    HW255725   6.680   5.599   5.907  0.6613  1.2454 -0.1423
18383SOL     OW55726   6.962   8.367   1.486 -0.2014  0.0720 -0.0479
18383SOL    HW155727   6.907   8.439   1.515  0.2580  1.3004 -2.0441
18383SOL    HW255728   6.906   8.290   1.491 -0.6988  0.5086  2.1312
18384SOL     OW55729   9.684   2.809   2.970 -0.4032 -0.2512 -0.1326
18384SOL    HW155730   9.617   2.742   2.984 -0.8964  0.6737  2.3597
18384SOL    HW255731   9.636   2.892   2.973  0.4826  0.3209 -1.1425
18385SOL     OW55732   7.621   7.171   4.639  0.6385  0.0907  0.1020
18385SOL    HW155733   7.630   7.206   4.550  0.8928 -0.4276 -0.0813
18385SOL    HW255734   7.659   7.238   4.695 -0.2417  0.7730 -0.1096
18386SOL     OW55735   5.659   0.244   7.882 -0.2649  0.0874 -0.2520
18386SOL    HW155736   5.575   0.260   7.839 -0.6308 -0.4730  0.2380
18386SOL    HW255737   5.655   0.152   7.909 -0.1642  0.4919  1.2287
18387SOL     OW55738   1.649   2.389   7.342 -0.1525 -0.0058 -0.7721
18387SOL    HW155739   1.652   2.481   7.370  0.5158 -0.0628 -0.6330
18387SOL    HW255740   1.640   2.340   7.424  2.6409 -0.2234 -0.4755
18388SOL     OW55741   6.521   9.729   8.431 -0.3099  0.0237  0.0974
18388SOL    HW155742   6.524   9.641   8.393 -0.7289 -0.4642  1.1689
18388SOL    HW255743   6.609   9.764   8.415 -0.0992 -0.6317 -0.2350
18389SOL     OW55744   8.042   6.047   2.176  0.3184  0.0934  0.3898
18389SOL    HW155745   7.966   6.064   2.119 -0.0228 -1.1378  0.4363
18389SOL    HW255746   8.098   6.124   2.165  0.4007 -0.2212 -1.8659
18390SOL     OW55747   7.365   5.609   7.338  0.7668 -0.8179  0.1114
18390SOL    HW155748   7.305   5.591   7.410 -0.2381 -0.4719 -0.6221
18390SOL    HW255749   7.438   5.655   7.380  0.7007 -1.5509  1.0703
18391SOL     OW55750   5.722   0.757   4.116 -0.5312  0.1728 -0.3848
18391SOL    HW155751   5.717   0.683   4.176 -1.1040  0.4460 -0.0834
18391SOL    HW255752   5.797   0.739   4.060 -0.3413 -0.3634  0.0467
18392SOL     OW55753   9.818   5.085   1.134  0.6112  0.1617  0.1688
18392SOL    HW155754   9.849   5.110   1.221 -0.6748  0.2829  0.6237
18392SOL    HW255755   9.763   5.008   1.149  1.4863 -0.6598 -0.7308
18393SOL     OW55756   8.753   7.286   0.253 -0.3979 -0.4725  0.3490
18393SOL    HW155757   8.740   7.196   0.224  1.1834  0.1858 -2.9214
18393SOL    HW255758   8.824   7.280   0.317 -1.3014 -1.6526  1.2887
18394SOL     OW55759   9.341   5.493   4.334 -0.3586  0.1694  0.1595
18394SOL    HW155760   9.427   5.457   4.356  0.2907  1.7439  0.2955
18394SOL    HW255761   9.359   5.568   4.278 -1.5072  1.7647  1.8258
18395SOL     OW55762   7.809   9.599   3.965  0.2863  0.0404 -0.7531
18395SOL    HW155763   7.802   9.530   4.031  0.3147 -0.4516 -1.2531
18395SOL    HW255764   7.796   9.554   3.882 -0.1906  0.7278 -1.0574
18396SOL     OW55765   8.303   9.961   6.206 -0.4946  0.1229  0.3423
18396SOL    HW155766   8.254  10.003   6.135 -0.7375  0.6539  0.8157
18396SOL    HW255767   8.275   9.870   6.203  0.8650 -0.2941 -1.4115
18397SOL     OW55768   1.530   3.536   5.984 -0.3953 -0.2841 -0.5311
18397SOL    HW155769   1.618   3.499   5.986  0.7024  2.1503  0.6342
18397SOL    HW255770   1.534   3.605   5.918 -0.4328  1.8762  1.5859
18398SOL     OW55771   9.402   8.016   8.426 -0.6230 -0.3002 -0.8636
18398SOL    HW155772   9.344   8.091   8.412  0.2656  0.3838 -0.9741
18398SOL    HW255773   9.375   7.980   8.511 -0.6240  0.5596 -0.4910
18399SOL     OW55774   0.721   0.857   4.843 -0.0945  0.0563 -0.1560
18399SOL    HW155775   0.711   0.893   4.755  0.1829 -0.4047 -0.3802
18399SOL    HW255776   0.758   0.770   4.830 -0.7686 -0.3245  0.3723
18400SOL     OW55777   8.404   9.346   8.993 -0.0523  0.0154 -0.0437
18400SOL    HW155778   8.347   9.367   9.067 -0.2904 -0.8663  0.0289
18400SOL    HW255779   8.354   9.285   8.940 -0.6945  2.1020 -2.0194
18401SOL     OW55780   9.865   4.976   5.429 -0.0389  0.0284  0.8732
18401SOL    HW155781   9.883   4.918   5.504 -0.0767  1.5840  2.1391
18401SOL    HW255782   9.917   4.940   5.358 -0.1537 -1.6259  1.5731
18402SOL     OW55783   6.631   8.468   9.216 -0.1388  0.4507  0.0896
18402SOL    HW155784   6.565   8.529   9.184 -0.1748  0.1710 -0.3703
18402SOL    HW255785   6.602   8.383   9.185  0.8509  0.4191 -0.7799
18403SOL     OW55786   7.859   2.921   3.372 -0.6671 -0.5939  0.5282
18403SOL    HW155787   7.834   2.942   3.462  0.2888  1.8045  0.3244
18403SOL    HW255788   7.796   2.968   3.317 -0.1741 -0.5748 -0.0347
18404SOL     OW55789   2.615   8.807   1.212  0.0370  0.3102  0.3124
18404SOL    HW155790   2.642   8.879   1.155 -1.8981  0.5295 -0.3713
18404SOL    HW255791   2.637   8.728   1.163 -1.9019  0.4939 -0.9649
18405SOL     OW55792   4.932   8.308   0.607 -0.3260  0.0669  0.6631
18405SOL    HW155793   4.979   8.225   0.613  0.6245  0.4868 -0.6517
18405SOL    HW255794   4.881   8.312   0.688 -0.0722 -1.5937  0.9420
18406SOL     OW55795   2.918   9.626   5.229 -0.4906  0.3054  0.5365
18406SOL    HW155796   2.874   9.687   5.288  0.0109  1.1917  0.0211
18406SOL    HW255797   2.981   9.680   5.182 -3.0099  0.3979 -3.1794
18407SOL     OW55798   5.230   4.951   0.970 -0.2472  0.1143 -0.2863
18407SOL    HW155799   5.259   5.024   1.024 -0.8070  0.8989 -1.0313
18407SOL    HW255800   5.259   4.873   1.018  0.0898  0.8092  0.6665
18408SOL     OW55801   8.935   0.942   8.374  0.0661 -0.0773  0.3249
18408SOL    HW155802   8.908   1.034   8.378 -2.4236 -0.7292  0.0904
18408SOL    HW255803   8.856   0.895   8.350  1.3049 -2.3104  0.3538
18409SOL     OW55804   0.892   0.030   6.795  0.1336  0.8550 -0.2647
18409SOL    HW155805   0.858   0.105   6.746 -0.6604  0.9892  0.4666
18409SOL    HW255806   0.887   0.056   6.887  0.4897  0.1632 -0.0395
18410SOL     OW55807   7.773   8.536   7.411  0.2752  0.2805  0.3683
18410SOL    HW155808   7.796   8.601   7.478 -1.6628  0.2451  1.1517
18410SOL    HW255809   7.677   8.540   7.406  0.2369 -1.1811 -0.9486
18411SOL     OW55810   4.034   6.183   4.567 -0.0168  0.4028 -0.1202
18411SOL    HW155811   4.111   6.202   4.620 -0.3254 -1.0927  0.9460
18411SOL    HW255812   4.068   6.145   4.486  0.3887 -0.9519  0.6509
18412SOL     OW55813   3.579   1.893   2.141 -0.3615  0.2100  0.2026
18412SOL    HW155814   3.657   1.947   2.128  0.2336 -0.4851  0.7679
18412SOL    HW255815   3.528   1.904   2.060  1.4269 -1.1244 -1.1877
18413SOL     OW55816   8.209   5.664   0.473 -0.2190 -0.1564 -0.2612
18413SOL    HW155817   8.293   5.645   0.514  0.2703  0.4723 -0.9468
18413SOL    HW255818   8.205   5.602   0.399 -0.2284  0.0051 -0.3961
18414SOL     OW55819   8.504   1.265   7.322 -0.0789 -0.1897  0.1260
18414SOL    HW155820   8.538   1.192   7.374  0.4170 -0.8289 -1.0425
18414SOL    HW255821   8.459   1.223   7.248 -1.7521  0.6677  0.5922
18415SOL     OW55822   1.761   9.005   4.200  0.0820  0.3577  0.6561
18415SOL    HW155823   1.782   8.986   4.291 -0.0434  1.0150  0.8292
18415SOL    HW255824   1.674   8.967   4.187  0.5543 -0.6951  0.4867
18416SOL     OW55825   3.356   3.613   9.895 -0.0098  0.2256  0.5076
18416SOL    HW155826   3.295   3.646   9.962 -0.3488  0.7359 -0.0477
18416SOL    HW255827   3.433   3.586   9.945 -0.0184  1.1604  1.0611
18417SOL     OW55828   0.266   2.176   0.698 -0.1003  0.4554 -0.3232
18417SOL    HW155829   0.267   2.125   0.617  0.8610  1.2089 -0.8065
18417SOL    HW255830   0.183   2.152   0.740 -0.1463 -0.7179 -1.0211
18418SOL     OW55831   2.459   6.846   3.373 -0.4892 -0.4474  0.3713
18418SOL    HW155832   2.371   6.814   3.355 -0.1926 -0.3396 -1.4373
18418SOL    HW255833   2.464   6.930   3.327  0.4857 -0.3680  0.6017
18419SOL     OW55834   7.342   5.197   1.204 -0.2362 -0.5617 -0.2335
18419SOL    HW155835   7.267   5.186   1.263 -0.4728 -0.0266 -0.4263
18419SOL    HW255836   7.321   5.276   1.154  0.6172 -0.2121 -0.0490
18420SOL     OW55837   7.446   5.192   7.427 -0.2435 -0.1907 -0.6500
18420SOL    HW155838   7.489   5.277   7.420  1.4821 -1.0438 -0.8814
18420SOL    HW255839   7.429   5.181   7.521 -0.9592  0.6074 -0.6713
18421SOL     OW55840   5.724   0.949   6.012  0.5823  0.2810 -0.9313
18421SOL    HW155841   5.648   0.980   6.062 -0.1700  0.4594 -2.1340
18421SOL    HW255842   5.780   0.907   6.077  0.5714  2.1606  0.3966
18422SOL     OW55843   6.553   7.285   6.231  0.0053 -0.3195 -0.1143
18422SOL    HW155844   6.459   7.302   6.228 -0.3263 -1.6939  1.3283
18422SOL    HW255845   6.571   7.259   6.321  1.9638  0.8190 -0.1046
18423SOL     OW55846   7.782   8.990   8.623 -0.2942  0.2060  0.6476
18423SOL    HW155847   7.822   8.927   8.563 -0.5644 -1.0191  1.7169
18423SOL    HW255848   7.847   9.001   8.692 -0.4528  0.7515  0.7143
18424SOL     OW55849   7.372   3.405   0.542 -0.3301  0.2388 -0.1455
18424SOL    HW155850   7.412   3.365   0.619 -0.1233 -0.5246 -0.6335
18424SOL    HW255851   7.279   3.386   0.550 -0.0655 -1.6454 -1.0931
18425SOL     OW55852   2.510   3.401   6.852  0.3164  0.8830  0.3339
18425SOL    HW155853   2.456   3.372   6.779  0.8147  1.3532 -0.2272
18425SOL    HW255854   2.476   3.352   6.927  0.9732 -0.9768 -0.5266
18426SOL     OW55855   6.804   5.056   3.063  0.2308  0.5197  0.3090
18426SOL    HW155856   6.808   5.006   2.982  0.2510 -1.8713  1.6776
18426SOL    HW255857   6.719   5.100   3.061  0.5056  1.0554 -1.2522
18427SOL     OW55858   5.441   2.820   2.147  0.3850  0.6883 -0.8612
18427SOL    HW155859   5.385   2.852   2.076 -1.4777 -2.9480 -1.2768
18427SOL    HW255860   5.398   2.850   2.227  0.6324  2.0047 -1.1961
18428SOL     OW55861   0.222   1.869   4.193 -0.1478 -0.3442 -0.5703
18428SOL    HW155862   0.291   1.834   4.250 -0.2305  0.0097 -0.2474
18428SOL    HW255863   0.228   1.817   4.113  1.4353  0.5932 -1.1021
18429SOL     OW55864   8.064   4.533   8.426  0.6418  0.2708  0.0711
18429SOL    HW155865   8.065   4.455   8.483  0.4042 -0.2151 -0.5791
18429SOL    HW255866   8.037   4.500   8.341  0.4475  1.0926 -0.1930
18430SOL     OW55867   0.540   8.999   7.048  0.0243  0.5904 -0.3983
18430SOL    HW155868   0.493   9.013   6.965  2.8712  0.6556 -2.1248
18430SOL    HW255869   0.608   9.066   7.049  2.1263 -1.4112  0.3319
18431SOL     OW55870   7.290   3.197   2.806 -0.1551  0.0304 -0.3853
18431SOL    HW155871   7.322   3.109   2.789  0.7222  0.2295  0.1845
18431SOL    HW255872   7.354   3.235   2.866 -0.1350  1.3170 -1.1878
18432SOL     OW55873   4.896   2.817   0.557  0.7647 -0.1031 -0.4425
18432SOL    HW155874   4.876   2.888   0.619  2.4497 -0.1215  0.1912
18432SOL    HW255875   4.827   2.822   0.491 -0.0152  1.1408  0.4244
18433SOL     OW55876   1.977   2.046   7.558 -0.5540  0.4284  0.1701
18433SOL    HW155877   1.969   2.134   7.521 -0.2886  0.5126  0.3100
18433SOL    HW255878   2.051   2.052   7.618 -0.1074 -0.0600 -0.3202
18434SOL     OW55879   4.889   8.513   1.113  0.6525 -0.1526 -0.0569
18434SOL    HW155880   4.832   8.587   1.092  2.0179  0.3834 -2.2524
18434SOL    HW255881   4.872   8.450   1.043  3.0224  0.2373 -1.0660
18435SOL     OW55882   3.328   4.528   2.949 -0.1133  0.2459  0.1469
18435SOL    HW155883   3.403   4.491   2.902 -1.2268  0.7416 -2.1599
18435SOL    HW255884   3.365   4.560   3.031  1.9557 -0.6676 -0.3623
18436SOL     OW55885   8.882   6.815   2.757  0.2798 -0.0924  0.1945
18436SOL    HW155886   8.829   6.837   2.681 -1.4832 -0.7177  1.1731
18436SOL    HW255887   8.904   6.899   2.797 -0.2510  0.1724 -0.0647
18437SOL     OW55888   2.324   4.368   9.783 -0.1512  0.5647  0.0093
18437SOL    HW155889   2.269   4.290   9.771 -0.0736  0.4552  0.3473
18437SOL    HW255890   2.306   4.395   9.873 -1.1430  1.6835 -0.4910
18438SOL     OW55891   1.971   1.528   4.079  0.6169  0.1179  0.3048
18438SOL    HW155892   2.029   1.551   4.151 -0.0858  2.3760  0.2540
18438SOL    HW255893   1.887   1.508   4.120 -0.0974  2.4861  0.1577
18439SOL     OW55894   2.972   7.643   5.867  0.1187 -0.3771  0.4680
18439SOL    HW155895   2.903   7.589   5.828 -0.9289  1.4472 -0.3867
18439SOL    HW255896   2.963   7.631   5.961 -0.8886 -0.7497  0.3335
18440SOL     OW55897   3.821   6.040   4.188 -0.3157 -0.5941 -0.6714
18440SOL    HW155898   3.805   6.063   4.097 -1.8093 -1.1682 -0.5789
18440SOL    HW255899   3.917   6.044   4.197 -0.2510  1.5734 -1.6788
18441SOL     OW55900   6.827   7.260   9.484  0.0487  0.3927  0.0960
18441SOL    HW155901   6.755   7.297   9.536  0.9382  0.3807  1.3685
18441SOL    HW255902   6.799   7.171   9.465 -0.2482  0.3587  0.6610
18442SOL     OW55903   1.723   6.255   2.198  0.0379 -0.1395  0.2587
18442SOL    HW155904   1.770   6.246   2.281 -0.6967 -1.5240  0.5539
18442SOL    HW255905   1.661   6.182   2.197 -1.6522  1.2235 -0.4128
18443SOL     OW55906   3.818   5.748   3.830  0.4030  0.4345  0.5137
18443SOL    HW155907   3.834   5.707   3.915 -1.6849 -0.5368  0.5038
18443SOL    HW255908   3.858   5.688   3.767  1.4128  0.8395  0.7482
18444SOL     OW55909   7.029   6.242   8.462  0.2055  0.8013  0.2701
18444SOL    HW155910   7.100   6.199   8.413 -1.9537  0.1358 -2.4922
18444SOL    HW255911   6.967   6.171   8.481 -0.4447  1.6284  1.3471
18445SOL     OW55912   4.623   7.385   2.031  0.0132 -0.2617  0.1857
18445SOL    HW155913   4.574   7.313   1.990  0.7182 -0.3254 -0.5631
18445SOL    HW255914   4.712   7.351   2.040 -0.4336 -0.9851  3.5418
18446SOL     OW55915   1.661   2.694   3.401 -0.1488  0.0991 -0.2146
18446SOL    HW155916   1.612   2.716   3.322 -0.7030 -2.3185 -0.6312
18446SOL    HW255917   1.593   2.674   3.466  0.2880 -0.0486  0.1996
18447SOL     OW55918   1.870   4.551   9.333  0.1622  0.1036  0.0399
18447SOL    HW155919   1.893   4.643   9.348 -2.9567  0.8959  0.5605
18447SOL    HW255920   1.941   4.503   9.376 -0.2240  2.3165  3.6860
18448SOL     OW55921   1.767   1.665   0.167 -0.0706  0.1022  0.1546
18448SOL    HW155922   1.767   1.688   0.074  2.5972  1.0618  0.2935
18448SOL    HW255923   1.859   1.649   0.188 -0.8359 -2.4896  2.1173
18449SOL     OW55924   2.511   0.887   5.010  0.2578  0.0740  0.2315
18449SOL    HW155925   2.597   0.877   4.970 -0.2911 -0.4867 -0.8482
18449SOL    HW255926   2.515   0.835   5.090  0.0658 -2.3344 -1.2103
18450SOL     OW55927   0.663   3.719   6.071  0.1163 -0.1564  0.5476
18450SOL    HW155928   0.600   3.791   6.065 -0.4329 -0.6385  0.5179
18450SOL    HW255929   0.620   3.645   6.029  1.5826  0.1037 -1.5757
18451SOL     OW55930   1.366   2.980   6.198  0.2269 -0.3384 -0.0948
18451SOL    HW155931   1.315   2.937   6.267 -0.0716  0.4322  0.1769
18451SOL    HW255932   1.342   3.072   6.204  0.8479 -0.1266 -0.6733
18452SOL     OW55933   5.753   8.902   7.903 -0.8185  0.4864  0.1583
18452SOL    HW155934   5.840   8.865   7.920 -1.5910 -0.8945  1.2705
18452SOL    HW255935   5.730   8.870   7.816 -0.7283 -0.1754  0.3752
18453SOL     OW55936   6.056   1.758   0.110  0.3403 -0.7533 -0.4444
18453SOL    HW155937   6.090   1.842   0.081  0.3498 -0.9527 -1.0209
18453SOL    HW255938   6.129   1.718   0.157  0.2631 -0.3470  0.0291
18454SOL     OW55939   8.647   2.713   1.588  0.4045 -0.1649 -0.0316
18454SOL    HW155940   8.683   2.631   1.623 -0.0445 -0.1005  0.5884
18454SOL    HW255941   8.648   2.774   1.662  0.2246  0.2274 -0.3469
18455SOL     OW55942   5.731   7.322   3.896  0.1542 -0.0960 -0.1026
18455SOL    HW155943   5.748   7.228   3.887 -0.8348 -0.2134 -0.9847
18455SOL    HW255944   5.642   7.327   3.932  0.0377  0.4993 -0.4567
18456SOL     OW55945   1.893   6.680   1.976  0.0160  0.4268 -0.3188
18456SOL    HW155946   1.884   6.587   1.957 -1.2711  0.2006  1.2209
18456SOL    HW255947   1.981   6.702   1.945  0.9177 -1.6399  0.5680
18457SOL     OW55948   1.937   3.744   8.807  0.2462 -0.0603  0.3038
18457SOL    HW155949   1.913   3.655   8.835 -1.0653  0.4392  0.8581
18457SOL    HW255950   1.999   3.774   8.873 -0.6792  0.0635  1.1526
18458SOL     OW55951   5.466   2.338   8.649 -0.3316  0.1558  0.2325
18458SOL    HW155952   5.549   2.381   8.670 -0.2802  0.1915 -0.0353
18458SOL    HW255953   5.434   2.386   8.573 -1.0719  0.7697  0.9177
18459SOL     OW55954   3.133   7.508   2.347  0.3047  0.2928 -0.5291
18459SOL    HW155955   3.124   7.426   2.297  0.9263  0.2389 -0.5565
18459SOL    HW255956   3.046   7.523   2.384 -0.1127  0.2134 -1.4466
18460SOL     OW55957   2.643   2.530   7.168  0.4654 -0.0490 -0.5385
18460SOL    HW155958   2.666   2.578   7.089  0.6835 -1.9370 -1.6877
18460SOL    HW255959   2.580   2.464   7.138 -1.5554  0.8939  1.3709
18461SOL     OW55960   6.737   9.303   3.832  0.3499 -0.2315 -0.3902
18461SOL    HW155961   6.814   9.281   3.780 -0.1853 -2.2923 -0.4042
18461SOL    HW255962   6.772   9.340   3.913  1.3505 -0.8652 -0.5208
18462SOL     OW55963   9.843   1.947   3.775 -0.2844 -0.5787  0.0732
18462SOL    HW155964   9.881   1.978   3.858 -0.0773 -0.8724  0.0924
18462SOL    HW255965   9.792   1.870   3.800 -3.8851  1.7546  0.6292
18463SOL     OW55966   5.103   2.937   9.962  0.0938  0.0815  0.5817
18463SOL    HW155967   5.153   2.936   9.881 -2.5593  0.5317 -1.1991
18463SOL    HW255968   5.121   3.023  10.000 -0.6806  0.9713 -0.9752
18464SOL     OW55969   2.670   5.619   0.996  0.0127  0.1233  0.4967
18464SOL    HW155970   2.692   5.679   0.925  0.2328 -0.1126  0.3669
18464SOL    HW255971   2.652   5.677   1.071  0.5221  0.3401  0.4554
18465SOL     OW55972   1.060   9.708   9.816 -0.5800  0.2942 -0.2457
18465SOL    HW155973   1.150   9.738   9.820 -0.8341  1.0656 -0.1503
18465SOL    HW255974   1.037   9.714   9.723  0.1595 -2.0486 -0.6414
18466SOL     OW55975   7.103   2.531   2.149  0.0297 -0.1508 -0.4773
18466SOL    HW155976   7.084   2.450   2.101  1.4182 -1.0080  0.3454
18466SOL    HW255977   7.199   2.531   2.158 -0.1463 -0.0045  2.1974
18467SOL     OW55978   4.501   9.008   1.597  0.0721 -0.5633  0.3120
18467SOL    HW155979   4.511   9.045   1.509 -1.3696 -1.7753 -0.4145
18467SOL    HW255980   4.425   9.052   1.634 -0.3456 -1.2322  0.2746
18468SOL     OW55981   9.784   2.391   8.024 -0.1586  0.4578  0.8060
18468SOL    HW155982   9.754   2.453   7.958 -1.1066  0.2851  1.0686
18468SOL    HW255983   9.728   2.407   8.100 -0.5078 -0.8111  0.8374
18469SOL     OW55984   4.891   8.572   3.450 -0.0535  0.1641 -0.0520
18469SOL    HW155985   4.918   8.656   3.487  1.2927 -0.2797  0.0122
18469SOL    HW255986   4.796   8.572   3.460 -0.2338  2.1778 -1.1033
18470SOL     OW55987   3.795   8.879   0.298 -0.2171  0.2186  0.0322
18470SOL    HW155988   3.863   8.855   0.236 -1.6723  0.8226 -1.8922
18470SOL    HW255989   3.833   8.951   0.349  0.8724 -0.0346 -0.3975
18471SOL     OW55990   2.229   4.544   0.794  0.2149  0.1490  0.5264
18471SOL    HW155991   2.156   4.485   0.815  0.5660 -0.7529 -0.7066
18471SOL    HW255992   2.307   4.496   0.823  0.3786  0.8546  1.2911
18472SOL     OW55993   0.001   5.120   7.362  0.2495 -0.1196  0.2271
18472SOL    HW155994   0.010   5.096   7.454  0.1565  0.0396  0.2779
18472SOL    HW255995   0.070   5.185   7.347  0.0036  0.1597  0.2913
18473SOL     OW55996   6.585   0.083   1.804  0.0306 -0.0279  0.3163
18473SOL    HW155997   6.557   0.055   1.717  0.4840  0.0131  0.1580
18473SOL    HW255998   6.550   0.172   1.813  1.0043  0.4346 -0.3052
18474SOL     OW55999   2.528   2.331   2.139  0.4390  0.1756 -0.5236
18474SOL    HW156000   2.451   2.360   2.188 -0.2468  0.1375 -1.5397
18474SOL    HW256001   2.493   2.307   2.053  1.5294 -0.2662 -0.8500
18475SOL     OW56002   6.281   7.421   4.711 -0.4743  0.6252  0.3289
18475SOL    HW156003   6.276   7.489   4.779  0.3470 -1.8658  3.1050
18475SOL    HW256004   6.198   7.373   4.720  0.2991 -0.6939  0.7747
18476SOL     OW56005   6.830   9.343   6.505  0.1809 -0.5393  1.0134
18476SOL    HW156006   6.854   9.334   6.413  1.1112  3.3201  0.7125
18476SOL    HW256007   6.909   9.319   6.553  0.2344 -0.9483  0.7235
18477SOL     OW56008   2.068   3.047   5.467  0.0996  0.5116 -0.3608
18477SOL    HW156009   2.133   3.105   5.428  0.4346  0.3134 -0.1059
18477SOL    HW256010   1.987   3.067   5.421  0.4021  0.5637 -0.8738
18478SOL     OW56011   9.574   7.758   8.656 -0.2803 -0.3867  0.5253
18478SOL    HW156012   9.483   7.789   8.653  0.5358  2.2865 -2.2059
18478SOL    HW256013   9.577   7.688   8.591 -0.1642  0.5419 -0.5141
18479SOL     OW56014   1.576   3.629   1.539  0.5950 -0.3034  0.3490
18479SOL    HW156015   1.557   3.681   1.617  0.8303 -0.4754  0.5196
18479SOL    HW256016   1.508   3.561   1.538  1.5439 -1.3053  1.3043
18480SOL     OW56017   7.266   0.729   4.972  0.0633 -0.2121  0.8507
18480SOL    HW156018   7.322   0.805   4.953 -0.0576 -0.2920  0.1225
18480SOL    HW256019   7.302   0.691   5.051 -0.1828  0.9094  1.5314
18481SOL     OW56020   9.896   3.427   0.699 -0.0826 -0.0474  0.5679
18481SOL    HW156021   9.989   3.447   0.692 -0.0387 -0.8013 -2.6139
18481SOL    HW256022   9.853   3.506   0.666 -0.4993 -0.2607  0.5938
18482SOL     OW56023   3.777   5.502   9.153  1.1759 -0.4822 -0.0336
18482SOL    HW156024   3.703   5.562   9.148  0.3751 -1.4655 -0.5492
18482SOL    HW256025   3.830   5.522   9.075  1.3618  0.1111  0.2464
18483SOL     OW56026   5.811   4.230   2.911  0.3099 -0.1384 -0.3894
18483SOL    HW156027   5.770   4.176   2.844  2.5973 -1.3650 -0.9247
18483SOL    HW256028   5.839   4.169   2.978 -0.5946  0.9083  0.9839
18484SOL     OW56029   2.522   4.445   6.438 -0.0837 -0.4070 -0.2122
18484SOL    HW156030   2.498   4.365   6.485 -0.4839 -0.0650  0.1741
18484SOL    HW256031   2.501   4.427   6.347 -1.5386 -0.2426  0.0633
18485SOL     OW56032   4.881   8.328   5.912  0.3441 -0.2935  0.2309
18485SOL    HW156033   4.930   8.291   5.839  0.0707  0.0275 -0.1199
18485SOL    HW256034   4.799   8.278   5.913 -0.8114  1.4499 -1.3836
18486SOL     OW56035   3.277   6.360   6.451 -0.6087  0.1267  0.8797
18486SOL    HW156036   3.346   6.335   6.512  0.2188 -0.1103 -0.1177
18486SOL    HW256037   3.197   6.323   6.488 -0.1333 -0.0101  1.8048
18487SOL     OW56038   2.083   8.931   3.707  0.1058  0.3103 -0.1366
18487SOL    HW156039   2.121   8.994   3.769 -1.4070 -0.3604  1.5795
18487SOL    HW256040   2.031   8.872   3.762  3.4464 -4.1833 -1.1853
18488SOL     OW56041   7.761   9.269   6.960 -0.3850 -0.0811  0.2422
18488SOL    HW156042   7.758   9.302   7.050  1.1065 -0.8337  0.5920
18488SOL    HW256043   7.819   9.331   6.914 -1.6208  0.6579 -0.3892
18489SOL     OW56044   5.400   0.630   0.485 -0.7155  0.3832  0.1015
18489SOL    HW156045   5.387   0.710   0.535 -1.3208 -0.3798  1.2162
18489SOL    HW256046   5.359   0.562   0.538 -0.3140 -0.6507 -0.8729
18490SOL     OW56047   1.247   1.412   4.987 -0.1810  0.1546  0.2560
18490SOL    HW156048   1.310   1.388   4.920  0.7563  0.9481  0.8240
18490SOL    HW256049   1.171   1.445   4.939  1.0118  2.0480 -0.4367
18491SOL     OW56050   1.249   2.776   4.483 -0.0447  0.1601 -0.3791
18491SOL    HW156051   1.220   2.705   4.426  2.1741 -2.4883  1.5143
18491SOL    HW256052   1.169   2.809   4.524 -1.0449 -4.2860  1.8963
18492SOL     OW56053   3.460   6.499   8.011 -0.3214  0.0853  0.2223
18492SOL    HW156054   3.375   6.527   7.977  0.5263  0.9448 -1.3094
18492SOL    HW256055   3.478   6.416   7.966 -0.2895 -0.0228  0.4343
18493SOL     OW56056   2.384   6.130   9.307  0.1779  0.1605  0.3736
18493SOL    HW156057   2.350   6.180   9.381  2.5422  1.7341  0.5180
18493SOL    HW256058   2.446   6.189   9.265  2.2308 -2.2262 -0.1798
18494SOL     OW56059   7.306   9.315   1.213  0.0677 -0.0373  0.2335
18494SOL    HW156060   7.224   9.314   1.263 -0.9778 -2.8455 -1.3243
18494SOL    HW256061   7.306   9.400   1.170 -3.2010 -0.6808 -1.3755
18495SOL     OW56062   0.500   5.314   9.843  0.0862 -0.5249  0.0526
18495SOL    HW156063   0.405   5.312   9.827  0.4580 -0.2767 -2.6672
18495SOL    HW256064   0.534   5.372   9.775  2.2195 -0.6481  0.9593
18496SOL     OW56065   2.506   7.410   1.652  0.2799  0.4045 -0.0752
18496SOL    HW156066   2.469   7.439   1.569 -0.8283 -0.5459  0.0710
18496SOL    HW256067   2.594   7.379   1.629 -0.2753 -0.5225 -1.0303
18497SOL     OW56068   4.234   6.644   4.594  0.2267 -0.1096 -0.2982
18497SOL    HW156069   4.328   6.651   4.609  0.2675 -2.1401  0.7967
18497SOL    HW256070   4.222   6.671   4.503  2.0306 -0.9107 -0.8264
18498SOL     OW56071   0.904   7.961   4.514 -0.5587 -0.1585  0.0159
18498SOL    HW156072   0.868   7.992   4.597  0.0159  0.1135  0.1747
18498SOL    HW256073   0.950   7.881   4.536  1.2459  0.9102  0.3568
18499SOL     OW56074   8.428   3.026   7.256 -0.2629  0.1742  0.5759
18499SOL    HW156075   8.393   3.106   7.217  0.4002  1.0357  1.6824
18499SOL    HW256076   8.411   3.035   7.350  0.4770 -0.6299  0.8086
18500SOL     OW56077   3.786   6.441   5.724 -0.3440  0.1216 -0.2341
18500SOL    HW156078   3.748   6.401   5.646  1.0194 -0.9221 -0.4091
18500SOL    HW256079   3.740   6.524   5.734 -2.9984 -1.2582 -0.1227
18501SOL     OW56080   1.284   2.440   2.608 -0.6360  0.1224  0.6838
18501SOL    HW156081   1.199   2.461   2.570  0.0074  1.0467 -0.3081
18501SOL    HW256082   1.292   2.345   2.597 -1.4579  0.0542  0.6099
18502SOL     OW56083   2.549   3.467   0.640  0.3446  0.1467 -0.1822
18502SOL    HW156084   2.566   3.399   0.705 -1.1817  0.2338  0.3503
18502SOL    HW256085   2.633   3.480   0.596  0.8163 -1.6280  0.1251
18503SOL     OW56086   0.856   5.064   1.693 -0.3245 -0.6452  0.9608
18503SOL    HW156087   0.862   4.970   1.677  1.0025 -0.4090  0.0155
18503SOL    HW256088   0.932   5.084   1.748 -1.0995 -0.2593  1.9276
18504SOL     OW56089   4.222   9.600   7.643 -0.0248 -0.1997  0.4554
18504SOL    HW156090   4.142   9.576   7.597  0.5737 -1.2966 -0.0452
18504SOL    HW256091   4.204   9.582   7.736 -1.0546  1.5311  0.6350
18505SOL     OW56092   5.756   5.664   7.530  0.1421 -0.4709 -0.1077
18505SOL    HW156093   5.766   5.710   7.446  2.9929 -0.9468 -0.1437
18505SOL    HW256094   5.724   5.577   7.506 -0.0448 -0.2669 -0.6105
18506SOL     OW56095   5.021   8.249   2.978 -0.0320  0.3359 -0.1896
18506SOL    HW156096   5.052   8.220   3.063  0.8784  1.6385 -0.0351
18506SOL    HW256097   4.963   8.323   2.997 -2.5265 -1.4319 -0.5384
18507SOL     OW56098   8.290   5.178   0.274 -0.0326 -0.0294  0.2746
18507SOL    HW156099   8.344   5.102   0.295  0.7829  0.1948 -0.9518
18507SOL    HW256100   8.271   5.218   0.359 -0.1457 -1.3755  0.8958
18508SOL     OW56101   5.170   1.654   1.914 -0.6165  0.4958  0.1314
18508SOL    HW156102   5.156   1.604   1.994  1.0382 -0.3377 -0.0450
18508SOL    HW256103   5.262   1.681   1.919 -0.6308  0.8737 -1.2396
18509SOL     OW56104   1.366   1.252   9.089 -0.5786  0.7501 -0.1536
18509SOL    HW156105   1.351   1.246   8.995 -0.8855 -0.2876 -0.0500
18509SOL    HW256106   1.326   1.172   9.125  0.0595  0.8423  0.7871
18510SOL     OW56107   2.692   9.588   2.623 -0.4049 -0.9231  0.1486
18510SOL    HW156108   2.694   9.496   2.597 -1.7979 -0.9234 -0.0621
18510SOL    HW256109   2.696   9.636   2.540  1.9574 -0.6992  0.3136
18511SOL     OW56110   5.755   2.173   3.455  0.5334 -0.0250 -0.3664
18511SOL    HW156111   5.844   2.146   3.434  0.8956 -0.4136  1.5185
18511SOL    HW256112   5.762   2.217   3.540 -1.1650 -0.8352  0.2530
18512SOL     OW56113   4.994   3.674   4.918 -0.3447 -0.0224 -0.1540
18512SOL    HW156114   5.061   3.681   4.850  1.5858 -1.0465  1.5150
18512SOL    HW256115   4.973   3.764   4.941  0.5761  0.3292 -0.6291
18513SOL     OW56116   5.924   8.697   8.901  0.5861  0.2351 -0.0799
18513SOL    HW156117   5.861   8.702   8.973  1.3291 -0.5063  0.6380
18513SOL    HW256118   5.879   8.738   8.828 -0.8519 -0.5369  0.3328
18514SOL     OW56119   2.261   5.696   6.334 -0.3269  0.3564  0.4248
18514SOL    HW156120   2.232   5.736   6.416  0.8443  0.6161  0.7421
18514SOL    HW256121   2.226   5.753   6.265  0.4283  1.3585  0.8400
18515SOL     OW56122   2.101   0.505   1.765 -0.5074  0.2955 -0.3576
18515SOL    HW156123   2.018   0.460   1.752 -1.3311  1.4367  0.7381
18515SOL    HW256124   2.143   0.458   1.837 -0.8599  0.6103  0.0509
18516SOL     OW56125   6.812   9.044   8.204 -0.6133  0.3742 -0.3161
18516SOL    HW156126   6.838   8.997   8.124 -0.4103 -2.0994  1.0924
18516SOL    HW256127   6.864   9.004   8.273 -1.9861  1.2827  1.3177
18517SOL     OW56128   6.583   6.123   0.772  0.0641  0.2403 -0.0989
18517SOL    HW156129   6.613   6.033   0.786 -1.3449 -0.3697 -0.8125
18517SOL    HW256130   6.616   6.145   0.685  0.6654  0.5371  0.1985
18518SOL     OW56131   4.062   7.683   0.497  0.1853 -0.2944  0.1921
18518SOL    HW156132   4.148   7.657   0.464  0.5336  0.1230  0.7506
18518SOL    HW256133   4.050   7.772   0.464 -0.9830 -1.0768 -1.6779
18519SOL     OW56134   5.689   8.679   3.438  0.2517  0.1127 -0.2734
18519SOL    HW156135   5.646   8.668   3.524 -1.5896  0.5457 -1.0749
18519SOL    HW256136   5.628   8.638   3.376  2.2278 -1.4641 -1.2722
18520SOL     OW56137   3.207   6.584   7.030  0.5297  0.0967 -0.2479
18520SOL    HW156138   3.219   6.678   7.042  1.8545  0.1126 -1.3949
18520SOL    HW256139   3.126   6.576   6.978  0.2083  0.5739  0.1763
18521SOL     OW56140   0.615   8.998   6.152 -0.3286  0.2515 -0.4156
18521SOL    HW156141   0.681   8.939   6.116  0.3520  1.6247 -1.4801
18521SOL    HW256142   0.547   8.939   6.186 -0.0233 -1.1714 -2.0933
18522SOL     OW56143   6.450   0.125   9.269 -0.0441  0.7666 -0.3268
18522SOL    HW156144   6.487   0.203   9.309  0.6289  0.4622 -0.3425
18522SOL    HW256145   6.358   0.147   9.253 -0.5964  0.5724  2.2438
18523SOL     OW56146   5.599   5.311   3.770 -0.1062  0.0885  0.2628
18523SOL    HW156147   5.581   5.317   3.676 -1.5145 -0.5460  0.4678
18523SOL    HW256148   5.529   5.255   3.804  0.2059  0.5641  1.7446
18524SOL     OW56149   4.801   6.155   2.482  0.0235  0.0125 -0.4774
18524SOL    HW156150   4.747   6.140   2.405 -0.2191  0.3190 -0.3691
18524SOL    HW256151   4.741   6.146   2.556  0.1423  0.2405 -0.3491
18525SOL     OW56152   7.097   7.405   0.396  0.2313 -0.2658 -0.6259
18525SOL    HW156153   7.092   7.408   0.300 -0.3817  1.4389 -0.5787
18525SOL    HW256154   7.080   7.495   0.423 -1.6301 -1.0836  1.1636
18526SOL     OW56155   4.267   7.383   3.748 -0.3129 -0.9960  0.1325
18526SOL    HW156156   4.353   7.396   3.708  0.2817 -1.5126  1.1972
18526SOL    HW256157   4.204   7.403   3.678  0.6459  0.2768 -0.4064
18527SOL     OW56158   1.309   6.428   4.064  0.7511  0.2338 -0.1305
18527SOL    HW156159   1.381   6.484   4.036  2.4010 -0.7946  1.8181
18527SOL    HW256160   1.271   6.473   4.140 -0.4781  0.5810 -0.9136
18528SOL     OW56161   6.748   6.598   1.390  0.3807  0.0553 -0.2772
18528SOL    HW156162   6.711   6.510   1.384 -1.3793  0.8550 -2.4193
18528SOL    HW256163   6.673   6.656   1.387  1.6130  1.6966 -1.0485
18529SOL     OW56164   7.425   7.579   2.008  0.3164  0.4362 -0.7448
18529SOL    HW156165   7.406   7.658   1.958  0.9917  1.7460  0.9796
18529SOL    HW256166   7.345   7.562   2.057  0.1634 -0.0009 -1.1296
18530SOL     OW56167   5.044   6.164   4.592  0.2797  0.0447 -0.8482
18530SOL    HW156168   5.064   6.075   4.562  0.3938 -0.3146  0.2493
18530SOL    HW256169   5.003   6.206   4.516  1.4432 -0.5035 -1.8319
18531SOL     OW56170   0.551   3.315   0.573  0.3426 -0.0173 -0.2681
18531SOL    HW156171   0.595   3.366   0.505  0.0662 -1.2364 -1.3964
18531SOL    HW256172   0.463   3.301   0.538 -0.3116  0.6322  1.0407
18532SOL     OW56173   1.154   9.547   2.409 -0.5776  0.2741 -0.4769
18532SOL    HW156174   1.077   9.496   2.434  0.6337 -1.6374 -0.4238
18532SOL    HW256175   1.223   9.482   2.399  1.1939  1.9820  0.0349
18533SOL     OW56176   9.733   2.748   0.370  0.1106 -0.5241  0.1114
18533SOL    HW156177   9.708   2.753   0.462  2.7214 -1.3461  0.9522
18533SOL    HW256178   9.694   2.826   0.331  0.0262  0.5729  2.2193
18534SOL     OW56179   3.433   8.217   5.076 -0.2826  0.3049  0.2289
18534SOL    HW156180   3.432   8.312   5.088 -0.5252  0.4077 -0.5498
18534SOL    HW256181   3.375   8.202   5.002  2.1278 -0.1278 -1.6974
18535SOL     OW56182   5.049   2.971   0.875  0.3313  0.4364  0.0635
18535SOL    HW156183   5.046   2.905   0.943  0.8333 -0.0678 -0.3950
18535SOL    HW256184   5.127   3.023   0.895  1.8437 -1.1360 -1.3900
18536SOL     OW56185   5.098   1.352   2.659 -0.3561  0.2819  0.1375
18536SOL    HW156186   5.132   1.410   2.727  1.0412 -0.7468  0.3675
18536SOL    HW256187   5.126   1.265   2.686 -1.3336 -0.3521 -0.8436
18537SOL     OW56188   5.837   2.911   8.593 -0.8011  0.0752  0.1922
18537SOL    HW156189   5.780   2.928   8.518 -0.5386 -1.0018 -0.2772
18537SOL    HW256190   5.852   2.816   8.591  0.2627  0.2072  0.8524
18538SOL     OW56191   4.002   4.034   1.393  0.0559 -0.6106 -0.2548
18538SOL    HW156192   3.964   4.013   1.308 -3.1403  0.2404  0.8435
18538SOL    HW256193   3.956   4.113   1.421  2.4165  0.2904  1.4672
18539SOL     OW56194   1.616   7.376   8.784  0.1755  0.0743  0.4057
18539SOL    HW156195   1.679   7.435   8.743  0.8772  0.3267  1.7731
18539SOL    HW256196   1.559   7.433   8.834 -0.3523 -0.2586  0.1895
18540SOL     OW56197   9.480   8.992   1.647  0.3393  0.2316  0.3087
18540SOL    HW156198   9.447   8.926   1.708 -0.9806  0.7518  0.1950
18540SOL    HW256199   9.455   9.076   1.686 -1.4349  0.5604 -1.3634
18541SOL     OW56200   9.154   2.203   2.070  0.5789  0.0557  1.2068
18541SOL    HW156201   9.201   2.181   1.990  0.3993  0.4681  0.9878
18541SOL    HW256202   9.063   2.182   2.051  0.1606  2.2896  0.4812
18542SOL     OW56203   0.308   5.277   6.374  0.1499  0.0108  0.0856
18542SOL    HW156204   0.252   5.328   6.315 -0.2035  1.4765  1.6239
18542SOL    HW256205   0.328   5.198   6.324 -2.8789 -0.3673 -0.7613
18543SOL     OW56206   0.284   5.352   3.128  0.1146  0.0031 -0.5691
18543SOL    HW156207   0.258   5.444   3.127 -1.5492 -0.4214  0.0520
18543SOL    HW256208   0.337   5.344   3.207 -2.0371 -0.0776  0.9841
18544SOL     OW56209   2.717   5.618   7.760 -0.0735  0.2239  0.1046
18544SOL    HW156210   2.743   5.708   7.776  0.3816  0.2253 -0.6263
18544SOL    HW256211   2.792   5.578   7.717 -1.4805  0.4340 -2.7773
18545SOL     OW56212   6.465   5.620   0.004  0.0125  0.3352  0.3821
18545SOL    HW156213   6.472   5.684   0.075  1.7052  0.6976 -0.0701
18545SOL    HW256214   6.480   5.536   0.047  1.0804  0.5578  0.4819
18546SOL     OW56215   0.816   5.568   2.423  0.1074 -0.2781  0.4060
18546SOL    HW156216   0.871   5.519   2.484 -0.7212 -0.3080  1.1454
18546SOL    HW256217   0.854   5.549   2.337  0.7170 -0.9967  0.8144
18547SOL     OW56218   5.631   0.078   5.879 -0.3811 -0.5135 -0.2882
18547SOL    HW156219   5.636   0.158   5.931 -2.5302  0.4863 -1.4597
18547SOL    HW256220   5.701   0.023   5.913 -1.0640  0.4049  3.0176
18548SOL     OW56221   4.262   4.802   9.544 -0.1615 -0.0799 -0.2097
18548SOL    HW156222   4.181   4.767   9.509 -0.2181 -0.3601  0.1991
18548SOL    HW256223   4.264   4.774   9.635  0.1247  0.3960 -0.0619
18549SOL     OW56224   1.256   5.469   0.378 -0.7246  0.6550  0.0484
18549SOL    HW156225   1.284   5.559   0.396 -0.8019  0.6196  0.3610
18549SOL    HW256226   1.226   5.436   0.463  0.1068  0.0463  0.1165
18550SOL     OW56227   7.494   4.772   9.568 -0.6836 -0.0908 -0.1933
18550SOL    HW156228   7.504   4.802   9.659 -1.1536 -1.6790  0.4358
18550SOL    HW256229   7.473   4.851   9.518  1.5232  1.1414  0.7166
18551SOL     OW56230   9.030   9.964   2.258  0.4166 -0.0429 -0.6015
18551SOL    HW156231   8.982   9.892   2.216  1.9175  0.4386 -3.3872
18551SOL    HW256232   8.965  10.032   2.270 -0.7102 -1.2812  0.7255
18552SOL     OW56233   1.173   2.003   5.698  0.0426  0.6346 -0.0279
18552SOL    HW156234   1.156   2.095   5.682 -0.9288  0.2838 -1.1697
18552SOL    HW256235   1.131   1.958   5.625  1.3702 -0.6470 -0.0492
18553SOL     OW56236   7.943   7.580   1.361  0.4472  0.0910  0.0294
18553SOL    HW156237   8.000   7.576   1.284  1.3387 -0.9686  0.7077
18553SOL    HW256238   7.941   7.672   1.385  0.6562  0.3486 -0.8918
18554SOL     OW56239   5.947   1.447   3.337 -0.0097 -0.0164 -0.2967
18554SOL    HW156240   5.861   1.455   3.296 -0.4894 -0.9688  0.4996
18554SOL    HW256241   5.937   1.490   3.422  0.3347 -0.0453 -0.2411
18555SOL     OW56242   5.063   6.684   1.881 -0.2304  0.3209  0.2328
18555SOL    HW156243   5.086   6.723   1.797  1.4743 -2.2750 -0.6286
18555SOL    HW256244   5.033   6.596   1.859 -0.2256 -0.2626  2.3119
18556SOL     OW56245   8.292   1.642   7.220  0.0862 -0.5277  0.4882
18556SOL    HW156246   8.271   1.672   7.309  0.8353 -0.7942  0.7583
18556SOL    HW256247   8.245   1.703   7.163 -1.6580 -1.2652  1.0702
18557SOL     OW56248   2.083   0.995   0.027  0.0422 -0.0625 -0.2570
18557SOL    HW156249   2.074   1.023   0.118  0.3110  0.7993 -0.4792
18557SOL    HW256250   1.999   1.017  -0.013 -0.3494 -1.1292 -0.0583
18558SOL     OW56251   5.191   3.628   7.320 -0.3084 -0.1564  0.1138
18558SOL    HW156252   5.211   3.535   7.307  2.1528  0.2397  0.5660
18558SOL    HW256253   5.150   3.632   7.407 -0.9419 -0.8620 -0.1420
18559SOL     OW56254   9.867   1.046   7.622  0.6491 -0.4738  0.1991
18559SOL    HW156255   9.845   1.131   7.586 -0.8917 -0.6554  0.6403
18559SOL    HW256256   9.962   1.048   7.634  0.6622  1.0574 -0.0649
18560SOL     OW56257   8.586   5.828   1.348  0.4208  0.3203  0.4092
18560SOL    HW156258   8.674   5.817   1.313  0.2796  3.0534 -1.1444
18560SOL    HW256259   8.540   5.879   1.281 -2.4985 -1.3372  0.9915
18561SOL     OW56260   3.327   0.198   8.328 -0.8696 -0.3326  0.6442
18561SOL    HW156261   3.399   0.147   8.292  0.5815  1.9774  0.0422
18561SOL    HW256262   3.342   0.199   8.423  0.0349  0.3013  0.5025
18562SOL     OW56263   5.740   0.327   9.287  0.0220 -0.1691 -0.3378
18562SOL    HW156264   5.685   0.320   9.365 -0.8295  1.1492 -0.7654
18562SOL    HW256265   5.822   0.283   9.310 -1.5370 -3.1442 -0.0354
18563SOL     OW56266   0.661   4.226   0.357 -0.3641  0.1983  0.2024
18563SOL    HW156267   0.653   4.282   0.434  1.1569 -1.9413  2.0911
18563SOL    HW256268   0.733   4.166   0.379 -1.2366 -1.8483 -2.0475
18564SOL     OW56269   7.531   4.963   3.027  0.4457  0.1027  0.0286
18564SOL    HW156270   7.547   4.972   3.121 -0.5916 -1.8818  0.4442
18564SOL    HW256271   7.448   5.009   3.013 -0.3669 -1.1851  0.4705
18565SOL     OW56272   7.371   5.280   3.201 -0.2647 -0.1536  0.3032
18565SOL    HW156273   7.343   5.234   3.122  1.2723 -0.0627 -0.3259
18565SOL    HW256274   7.443   5.336   3.172  0.8027 -0.6413  1.8919
18566SOL     OW56275   4.144   7.884   5.611  0.1983  0.7043  0.3703
18566SOL    HW156276   4.124   7.971   5.575 -0.4437  0.5436  0.3267
18566SOL    HW256277   4.108   7.886   5.699 -1.2013 -0.0285 -0.1509
18567SOL     OW56278   5.187   5.724   8.162  0.0937 -0.2955 -0.4609
18567SOL    HW156279   5.103   5.731   8.118  0.3366  1.3789 -0.7423
18567SOL    HW256280   5.166   5.696   8.251 -0.8961  1.1394 -0.2075
18568SOL     OW56281   4.948   6.647   2.337 -0.4121  0.5195  0.3969
18568SOL    HW156282   4.856   6.645   2.309  0.3822 -0.6361 -2.4692
18568SOL    HW256283   4.959   6.568   2.390 -0.6804 -0.3817 -0.8403
18569SOL     OW56284   1.563   9.917   2.542 -0.0703  0.2738 -0.2388
18569SOL    HW156285   1.485   9.913   2.486 -0.0545  1.4356 -0.3574
18569SOL    HW256286   1.533   9.885   2.627 -0.4991  0.0533 -0.4668
18570SOL     OW56287   9.893   9.915   8.662  0.3694  0.2623  0.2107
18570SOL    HW156288   9.813   9.958   8.692 -0.4243 -0.1085 -1.2555
18570SOL    HW256289   9.948   9.986   8.631 -0.2069  0.3923 -0.5579
18571SOL     OW56290   2.563   9.387   1.041  0.4412 -0.7745  0.6984
18571SOL    HW156291   2.481   9.415   1.081  0.1111 -1.5119  0.5612
18571SOL    HW256292   2.570   9.438   0.960 -0.0053 -0.8887  0.5887
18572SOL     OW56293   9.356   7.852   4.023 -0.1415  0.4581 -0.3422
18572SOL    HW156294   9.340   7.887   3.936 -1.3360 -0.8945 -0.6898
18572SOL    HW256295   9.269   7.843   4.062  0.2647 -0.4635  0.3845
18573SOL     OW56296   6.341   9.277   2.270 -0.4321 -0.3150 -0.6764
18573SOL    HW156297   6.320   9.247   2.358 -0.4603 -0.8651 -0.8686
18573SOL    HW256298   6.322   9.202   2.214 -0.8876  0.1907 -1.2101
18574SOL     OW56299   7.998   9.862   6.248  0.2033 -0.2539  0.5102
18574SOL    HW156300   7.989   9.931   6.314 -1.3501 -0.5935  0.6843
18574SOL    HW256301   8.077   9.815   6.273  0.3071  0.3765  1.4064
18575SOL     OW56302   4.931   4.254   2.781 -0.3015 -0.3588  0.2335
18575SOL    HW156303   4.959   4.193   2.849 -1.9034 -0.8457  0.5046
18575SOL    HW256304   4.934   4.203   2.700  0.6953 -0.0585  0.0711
18576SOL     OW56305   7.592   8.959   3.161 -0.0411 -0.2188  0.4559
18576SOL    HW156306   7.530   8.904   3.112 -1.2828 -0.1044  1.8018
18576SOL    HW256307   7.602   8.913   3.245  0.2714  0.7090  0.9361
18577SOL     OW56308   3.409   7.767   8.418  0.1264  0.0795 -0.5665
18577SOL    HW156309   3.414   7.752   8.513  0.6557  1.1296 -0.4033
18577SOL    HW256310   3.499   7.788   8.393 -0.0085 -0.2109 -1.3089
18578SOL     OW56311   3.100   9.606   4.904  0.1098 -0.2470  0.8489
18578SOL    HW156312   3.093   9.534   4.841 -1.7142 -0.3175  1.0607
18578SOL    HW256313   3.162   9.575   4.970  1.1141 -0.6645 -0.2665
18579SOL     OW56314   5.275   3.747   4.314 -0.5333 -0.2493  0.3814
18579SOL    HW156315   5.183   3.765   4.294 -0.1413  0.7126 -0.6106
18579SOL    HW256316   5.307   3.698   4.239 -0.1085 -0.1946  0.5242
18580SOL     OW56317   9.606   0.771   4.333  0.1831 -0.5191 -0.6685
18580SOL    HW156318   9.635   0.712   4.403  0.7009 -0.5538 -0.9039
18580SOL    HW256319   9.557   0.715   4.273 -0.9536 -0.3331  0.0677
18581SOL     OW56320   0.793   2.490   3.548  0.2255  0.8333  0.1209
18581SOL    HW156321   0.750   2.527   3.470  1.3355  1.3532 -0.2620
18581SOL    HW256322   0.853   2.558   3.577  3.2536 -1.0020 -1.3226
18582SOL     OW56323   1.518   8.006   4.452  0.7528 -0.4890  0.5195
18582SOL    HW156324   1.512   8.088   4.404  0.1617 -0.9289 -0.1801
18582SOL    HW256325   1.566   7.947   4.394 -0.3518 -1.1586  0.2519
18583SOL     OW56326   2.994   1.905   2.321 -0.2148 -0.0148 -0.1685
18583SOL    HW156327   2.990   1.975   2.255  0.6704 -0.3112 -0.5524
18583SOL    HW256328   3.079   1.917   2.363 -0.7844  0.1918  0.9701
18584SOL     OW56329   9.359   8.402   5.531 -0.4138  0.1734  0.3663
18584SOL    HW156330   9.282   8.365   5.574  0.5874 -0.2118  1.9207
18584SOL    HW256331   9.345   8.497   5.536 -2.1590  0.1303 -2.0738
18585SOL     OW56332   0.051   3.804   8.130 -0.1962  0.2095  0.0894
18585SOL    HW156333   0.004   3.721   8.133  0.9258 -0.4745 -0.5450
18585SOL    HW256334   0.115   3.793   8.060 -1.5208  2.4286 -1.6174
18586SOL     OW56335   9.796   4.114   7.160 -0.0649 -0.7258 -0.5427
18586SOL    HW156336   9.708   4.151   7.155  0.3847  0.6421  0.8097
18586SOL    HW256337   9.795   4.039   7.101 -2.3320 -1.1465 -0.0339
18587SOL     OW56338   0.493   8.862   8.697  0.5504 -0.2899 -0.7317
18587SOL    HW156339   0.464   8.917   8.770  0.5563 -0.4018 -0.6437
18587SOL    HW256340   0.420   8.802   8.682  0.1774  0.3278 -1.4238
18588SOL     OW56341   9.530   5.587   0.789 -0.3744  0.3423 -0.5307
18588SOL    HW156342   9.486   5.502   0.786 -0.7426  0.4329  1.1789
18588SOL    HW256343   9.622   5.567   0.806 -0.3432  0.2670 -0.7836
18589SOL     OW56344   1.511   2.711   9.901 -0.5758  0.0480  0.0800
18589SOL    HW156345   1.533   2.754   9.983  0.5485 -0.8084  0.2434
18589SOL    HW256346   1.567   2.754   9.836 -0.3598 -0.3075  0.0298
18590SOL     OW56347   5.419   1.061   1.825  0.2783  0.1271 -0.0944
18590SOL    HW156348   5.324   1.044   1.827 -0.3119  1.7180 -4.1491
18590SOL    HW256349   5.438   1.104   1.908 -3.1857  2.2632 -0.2064
18591SOL     OW56350   2.533   6.120   3.198 -0.1845  1.2121 -0.1393
18591SOL    HW156351   2.590   6.136   3.122 -0.9835 -1.3711 -1.3997
18591SOL    HW256352   2.551   6.029   3.222 -1.1584  1.4902  1.7560
18592SOL     OW56353   8.472   9.453   0.842 -0.5749  0.2145 -0.5229
18592SOL    HW156354   8.529   9.517   0.801 -0.2367  1.3337  1.5546
18592SOL    HW256355   8.387   9.497   0.849 -0.4601  0.2962  0.5059
18593SOL     OW56356   6.831   2.691   6.558  0.4348  0.1130  0.8289
18593SOL    HW156357   6.824   2.738   6.475  0.6959  0.3706  0.9530
18593SOL    HW256358   6.925   2.686   6.576  0.3719  0.2131  1.1983
18594SOL     OW56359   9.299   3.530   9.606 -0.1326 -0.1884  0.6053
18594SOL    HW156360   9.326   3.586   9.678  1.4266 -0.6833  0.4448
18594SOL    HW256361   9.372   3.470   9.593  0.0956  0.5221 -2.0261
18595SOL     OW56362   6.322   5.580   1.508 -0.2067  0.5144  0.4204
18595SOL    HW156363   6.366   5.503   1.472 -0.4375 -0.5265  2.2142
18595SOL    HW256364   6.256   5.603   1.444 -0.4614 -1.1095  0.0794
18596SOL     OW56365   7.153   3.389   8.096 -0.0169 -0.4581  0.0726
18596SOL    HW156366   7.138   3.356   8.007 -0.7023 -0.1411  0.0636
18596SOL    HW256367   7.233   3.345   8.125  1.0560  0.5238 -1.2429
18597SOL     OW56368   6.735   8.221   7.800 -0.5328  0.0279  0.1039
18597SOL    HW156369   6.773   8.306   7.825  0.2249 -0.4265  0.5294
18597SOL    HW256370   6.642   8.239   7.789 -0.2033  1.2260 -1.1510
18598SOL     OW56371   9.613   4.714   9.849  0.2414  0.0690 -0.3372
18598SOL    HW156372   9.520   4.706   9.869  0.3304 -1.4654 -0.3920
18598SOL    HW256373   9.624   4.805   9.822 -1.4028  0.0641 -1.1556
18599SOL     OW56374   5.281   0.127   3.936  0.1654  0.4110  0.1959
18599SOL    HW156375   5.243   0.151   3.851 -1.2877  0.6215  0.8822
18599SOL    HW256376   5.237   0.184   3.999  0.5642 -0.3802  1.2155
18600SOL     OW56377   2.473   8.944   2.977 -0.6198  0.4230  0.0828
18600SOL    HW156378   2.378   8.938   2.964 -0.4911  0.4985 -1.0059
18600SOL    HW256379   2.492   9.037   2.973 -0.2179  0.2934 -2.1140
18601SOL     OW56380   8.041   0.221   8.945  0.6283  0.0749  0.6471
18601SOL    HW156381   8.038   0.233   9.039  1.3999  1.8280  0.4868
18601SOL    HW256382   8.001   0.300   8.909  0.2014 -0.6323 -0.5058
18602SOL     OW56383   0.153   6.575   4.909  0.0551  0.2646  0.2819
18602SOL    HW156384   0.081   6.512   4.906  0.8300 -0.7632  2.1395
18602SOL    HW256385   0.152   6.608   4.999  1.3061  0.9544  0.0567
18603SOL     OW56386   8.376   1.946   9.569 -0.2193  0.4166  0.0632
18603SOL    HW156387   8.324   1.925   9.646 -0.0881 -0.0947  0.0127
18603SOL    HW256388   8.349   1.883   9.502  1.7148 -1.0680  0.5793
18604SOL     OW56389   9.221   5.924   2.798  0.2512  0.3794 -0.3678
18604SOL    HW156390   9.132   5.945   2.826  0.1831 -0.9123  0.5000
18604SOL    HW256391   9.213   5.839   2.754  1.0045  0.4043 -0.5692
18605SOL     OW56392   5.470   3.992   0.299 -0.4143 -0.5684 -0.5280
18605SOL    HW156393   5.458   3.933   0.374  1.1155 -2.2025 -1.4620
18605SOL    HW256394   5.550   4.040   0.320 -1.7554  1.3855  0.3068
18606SOL     OW56395   2.019   6.283   7.324  0.5205  0.3175 -0.2329
18606SOL    HW156396   2.034   6.195   7.359 -0.8599 -0.0751 -0.6124
18606SOL    HW256397   2.047   6.278   7.233  3.6620  1.2166  0.5484
18607SOL     OW56398   2.308   5.848   4.451  0.0023 -0.2375  0.3962
18607SOL    HW156399   2.336   5.788   4.382  0.3228  1.9237 -1.4909
18607SOL    HW256400   2.363   5.826   4.526  2.1422 -0.4553 -1.1307
18608SOL     OW56401   4.543   9.069   6.972  0.0794  0.2375 -0.5751
18608SOL    HW156402   4.488   8.996   6.998  0.0444  0.7711  0.9816
18608SOL    HW256403   4.482   9.135   6.939  0.0676 -0.2028 -1.4809
18609SOL     OW56404   7.819   5.530   0.167 -0.3954 -0.5332  0.0121
18609SOL    HW156405   7.836   5.440   0.193 -1.4956 -0.2233  1.9373
18609SOL    HW256406   7.853   5.536   0.077 -0.0923 -2.7713 -0.0639
18610SOL     OW56407   1.977   3.855   4.530 -0.4770  0.5474 -0.4207
18610SOL    HW156408   1.905   3.852   4.468  0.1791 -1.1765 -1.1365
18610SOL    HW256409   2.014   3.767   4.530  0.0184  0.6837  1.8708
18611SOL     OW56410   3.045   8.995   7.261 -0.2290  0.2768 -0.2501
18611SOL    HW156411   2.977   8.933   7.234 -2.3179  1.8917  0.9641
18611SOL    HW256412   3.009   9.038   7.339  2.9284  0.0660  1.4795
18612SOL     OW56413   6.437   6.595   0.417  0.4560 -0.0793 -0.3821
18612SOL    HW156414   6.529   6.598   0.390 -0.1472  1.2417 -2.5015
18612SOL    HW256415   6.408   6.507   0.392  0.9055 -0.1851 -0.5410
18613SOL     OW56416   5.449   7.673   6.419 -0.1657 -0.7221 -0.8276
18613SOL    HW156417   5.542   7.690   6.434 -0.2093 -0.8812 -0.3615
18613SOL    HW256418   5.410   7.669   6.507 -0.7346 -0.0176 -1.0358
18614SOL     OW56419   4.316   0.308   4.122 -0.3672  0.5680 -0.1409
18614SOL    HW156420   4.411   0.318   4.114 -0.2429  0.4464  1.0281
18614SOL    HW256421   4.293   0.355   4.202 -1.2533  0.3583 -0.2588
18615SOL     OW56422   1.424   4.302   0.044 -0.2632 -0.3743  0.4227
18615SOL    HW156423   1.427   4.346  -0.041  0.5998  0.2899  0.7736
18615SOL    HW256424   1.388   4.215   0.025 -1.0588  0.1260 -0.4472
18616SOL     OW56425   8.513   1.296   6.584 -0.0275  0.3084  1.0028
18616SOL    HW156426   8.484   1.281   6.674  0.4238  0.1116  1.1168
18616SOL    HW256427   8.594   1.245   6.576  0.8049  1.5790  0.9805
18617SOL     OW56428   5.292   9.499   0.226 -0.5213 -0.2935 -0.1358
18617SOL    HW156429   5.331   9.586   0.221  0.7272 -0.7704  0.9028
18617SOL    HW256430   5.293   9.466   0.136  0.5544  0.1109 -0.2794
18618SOL     OW56431   1.629   1.989   9.809 -0.1927 -0.0667 -0.8232
18618SOL    HW156432   1.637   1.905   9.854  0.9486 -0.0025 -0.8773
18618SOL    HW256433   1.554   2.031   9.850 -1.4568 -1.5380 -1.5288
18619SOL     OW56434   8.753   3.121   4.013 -0.5683  0.3099  0.3115
18619SOL    HW156435   8.691   3.194   4.014 -0.6204  0.3800 -1.8370
18619SOL    HW256436   8.698   3.043   4.001 -0.3388  0.2463 -0.3833
18620SOL     OW56437   2.932   0.617   8.148 -0.0971  0.1921 -0.0026
18620SOL    HW156438   2.879   0.611   8.228  1.5712 -0.9034  1.0718
18620SOL    HW256439   3.011   0.662   8.175  0.0299  0.8258 -1.3393
18621SOL     OW56440   5.678   7.047   2.439  0.3326  0.0025  0.3314
18621SOL    HW156441   5.675   7.113   2.508 -1.8787  0.3366 -0.0029
18621SOL    HW256442   5.683   7.098   2.358  1.0207 -0.3341  0.1561
18622SOL     OW56443   5.192   1.490   4.137 -0.2517  0.2228 -0.4794
18622SOL    HW156444   5.233   1.573   4.111  2.5899 -0.8876  0.0858
18622SOL    HW256445   5.245   1.460   4.211 -1.5737 -1.8371 -0.2990
18623SOL     OW56446   6.859   6.693   5.238  0.5310 -0.3705  0.8257
18623SOL    HW156447   6.889   6.687   5.148 -2.0185 -1.5284 -0.0629
18623SOL    HW256448   6.921   6.640   5.288  1.5158 -0.3992 -0.3965
18624SOL     OW56449   6.383   7.223   7.132 -0.0523 -0.1169 -0.8865
18624SOL    HW156450   6.322   7.196   7.063 -0.8508  0.1245 -0.2847
18624SOL    HW256451   6.386   7.148   7.192 -0.2269  0.1030 -0.6014
18625SOL     OW56452   7.739   5.235   5.928 -0.4141 -0.3951 -0.1763
18625SOL    HW156453   7.683   5.224   6.005  0.6111  1.2148  0.8762
18625SOL    HW256454   7.708   5.316   5.888  0.8016  0.2536  0.1434
18626SOL     OW56455   4.729   4.168   6.925 -0.0670 -0.4799 -0.4371
18626SOL    HW156456   4.665   4.238   6.914 -0.6078 -1.0603 -1.0642
18626SOL    HW256457   4.760   4.176   7.015  0.6493  1.2170 -0.7945
18627SOL     OW56458   1.417   3.184   4.574  0.5122  0.3745 -0.0356
18627SOL    HW156459   1.484   3.116   4.579 -1.3211 -1.5236  0.2999
18627SOL    HW256460   1.396   3.203   4.666  0.7626  1.1727 -0.1332
18628SOL     OW56461   0.207   3.957   6.648 -0.1012  0.0268 -0.0458
18628SOL    HW156462   0.205   4.049   6.673  1.1785  0.7584 -2.3399
18628SOL    HW256463   0.135   3.948   6.585 -0.6439 -0.7266  0.6626
18629SOL     OW56464   1.640   4.473   7.093 -0.4913  0.4637  0.4948
18629SOL    HW156465   1.661   4.550   7.040  1.7839 -0.8233 -0.6211
18629SOL    HW256466   1.708   4.471   7.160  0.8244 -1.6478 -0.7786
18630SOL     OW56467   2.098   9.387   5.893 -0.2059  0.6605 -0.2256
18630SOL    HW156468   2.005   9.372   5.903 -0.0850  0.2007  0.2212
18630SOL    HW256469   2.132   9.306   5.855  0.3323 -0.0018  1.5501
18631SOL     OW56470   0.496   5.369   8.731  0.4540  0.3873  0.2517
18631SOL    HW156471   0.509   5.276   8.711  2.1218  0.6761 -0.1807
18631SOL    HW256472   0.441   5.369   8.809 -0.6620 -0.9192 -0.4870
18632SOL     OW56473   6.540   3.248   4.354  0.0722  0.3973 -0.2161
18632SOL    HW156474   6.577   3.199   4.280 -0.6319 -1.5607  0.6630
18632SOL    HW256475   6.576   3.205   4.432 -0.4578  1.3917  0.6146
18633SOL     OW56476   8.228   8.510   5.647  0.1191 -0.0654 -0.6340
18633SOL    HW156477   8.134   8.504   5.664 -0.1457 -1.0642 -2.2448
18633SOL    HW256478   8.242   8.603   5.625 -0.7834 -0.1979 -1.8581
18634SOL     OW56479   1.850   0.271   3.268  0.0504 -0.2260  0.2514
18634SOL    HW156480   1.806   0.221   3.199 -1.6089  0.4420  0.7693
18634SOL    HW256481   1.897   0.340   3.220 -0.1126 -0.4673 -0.2682
18635SOL     OW56482   8.977   9.441   6.711 -0.3243  0.0333 -0.0250
18635SOL    HW156483   8.909   9.432   6.778  1.3201  1.1088  1.9016
18635SOL    HW256484   9.002   9.351   6.690 -0.5716 -0.3308  1.1376
18636SOL     OW56485   7.894   7.618   0.486  0.3133  0.0740  0.5303
18636SOL    HW156486   7.941   7.588   0.564  2.5205  0.0586 -0.6963
18636SOL    HW256487   7.803   7.593   0.501  0.8836 -1.0134  2.5461
18637SOL     OW56488   4.575   5.702   4.443  0.3353  0.5036 -0.0651
18637SOL    HW156489   4.653   5.681   4.494  0.0687  0.7022  0.4210
18637SOL    HW256490   4.540   5.782   4.483 -0.3253  0.2102 -0.0476
18638SOL     OW56491   7.866   6.262   7.228  0.4966 -0.5746 -0.5125
18638SOL    HW156492   7.892   6.273   7.136 -0.3917  2.5798 -0.5073
18638SOL    HW256493   7.845   6.351   7.257 -1.7158 -1.8012  2.0200
18639SOL     OW56494   5.366   8.786   0.395 -0.5434 -0.2521  0.1511
18639SOL    HW156495   5.435   8.725   0.368  0.9302  1.4075 -0.0277
18639SOL    HW256496   5.331   8.821   0.314 -1.4888 -0.9342  0.2494
18640SOL     OW56497   0.891   5.308   4.387  0.3028 -0.3181 -0.6223
18640SOL    HW156498   0.939   5.331   4.466 -0.0083 -0.5808 -0.3548
18640SOL    HW256499   0.958   5.300   4.320  0.4395  1.1946 -0.6923
18641SOL     OW56500   9.914   1.760   6.548  0.1022 -0.1302  0.0940
18641SOL    HW156501   9.915   1.853   6.570 -0.1453  0.0604 -0.6790
18641SOL    HW256502  10.005   1.739   6.528  0.1067  0.0155 -0.0327
18642SOL     OW56503   2.303   9.217   2.904  0.2302 -0.3453  0.0180
18642SOL    HW156504   2.245   9.287   2.875  1.0306  0.1960 -0.3181
18642SOL    HW256505   2.388   9.259   2.916  1.0280 -1.4586 -1.3170
18643SOL     OW56506   8.722   9.565   3.999  0.1901 -0.0865  0.1312
18643SOL    HW156507   8.637   9.607   4.010 -0.6975 -0.3471 -3.9773
18643SOL    HW256508   8.782   9.637   3.977  0.7285 -0.0791  1.5334
18644SOL     OW56509   7.023   1.889   3.230 -0.3275 -0.1440 -0.0215
18644SOL    HW156510   7.087   1.960   3.235 -1.5678  1.0491 -0.3560
18644SOL    HW256511   6.941   1.932   3.206 -0.8644 -1.8527 -1.5628
18645SOL     OW56512   6.671   2.767   3.208  0.1430  0.3047 -0.0294
18645SOL    HW156513   6.647   2.682   3.245  1.8247 -0.0471  0.3215
18645SOL    HW256514   6.616   2.830   3.256 -1.3457 -0.5730 -0.5074
18646SOL     OW56515   0.865   6.093   1.621  0.4014 -0.4042  0.2794
18646SOL    HW156516   0.913   6.108   1.539  2.3274  1.4484  1.6374
18646SOL    HW256517   0.920   6.033   1.671 -0.6673 -1.3673  0.3395
18647SOL     OW56518   8.001   1.757   4.538 -0.0521 -0.0997  0.4856
18647SOL    HW156519   8.013   1.788   4.628 -0.0339 -1.0941  0.8321
18647SOL    HW256520   7.937   1.818   4.500  0.9052  1.1127  0.7497
18648SOL     OW56521   2.260   1.690   0.626  0.2754  0.1474 -0.2294
18648SOL    HW156522   2.188   1.698   0.688  0.4662  2.0395 -0.1682
18648SOL    HW256523   2.333   1.655   0.678  0.2244  1.0307  0.4739
18649SOL     OW56524   7.673   5.781   6.492 -0.5330  0.0852 -0.1070
18649SOL    HW156525   7.619   5.755   6.567 -0.5336 -1.0865 -0.4870
18649SOL    HW256526   7.742   5.836   6.529 -2.0572  1.7740  0.3692
18650SOL     OW56527   2.543   0.421   8.734 -0.1158  0.5515 -0.1236
18650SOL    HW156528   2.520   0.427   8.827  1.2080  1.0966  0.1927
18650SOL    HW256529   2.514   0.504   8.697 -0.6066  0.3509 -0.1957
18651SOL     OW56530   8.964   0.462   0.103 -0.5590 -0.3450 -0.0452
18651SOL    HW156531   8.928   0.521   0.170  0.5605  0.2427  0.0737
18651SOL    HW256532   8.889   0.412   0.072 -0.9791 -1.4231  2.4266
18652SOL     OW56533   7.132   4.295   3.947 -0.4770 -0.0937  0.1741
18652SOL    HW156534   7.179   4.222   3.988 -1.1404 -0.6787 -0.0965
18652SOL    HW256535   7.098   4.259   3.865  2.0007  1.4000 -1.6670
18653SOL     OW56536   1.481   9.150   5.686  0.5324 -0.7796 -0.2401
18653SOL    HW156537   1.482   9.245   5.685 -2.3081 -0.6436 -2.8807
18653SOL    HW256538   1.479   9.127   5.779  0.1422  1.7607  0.4408
18654SOL     OW56539   1.204   4.990   4.306 -0.5390  0.3170 -0.2033
18654SOL    HW156540   1.127   4.943   4.339 -1.3852  2.0182  0.3647
18654SOL    HW256541   1.276   4.962   4.362 -1.1218  0.0574  0.4218
18655SOL     OW56542   5.500   6.600   9.189 -0.6296 -0.3852 -0.1368
18655SOL    HW156543   5.542   6.514   9.190 -0.9566 -0.5670 -0.9778
18655SOL    HW256544   5.406   6.580   9.192 -0.7086 -0.0601 -0.3858
18656SOL     OW56545   9.312   3.163   6.078 -0.0553 -0.0465  0.6413
18656SOL    HW156546   9.305   3.185   5.985 -3.6384 -1.3683  0.4172
18656SOL    HW256547   9.305   3.247   6.123 -2.4887  0.3702 -0.3342
18657SOL     OW56548   9.817   1.622   7.607 -0.8663 -0.4500  0.3064
18657SOL    HW156549   9.756   1.692   7.586 -0.0578  0.3987  0.7390
18657SOL    HW256550   9.880   1.662   7.667  0.9111 -0.9226 -1.1751
18658SOL     OW56551   6.573   2.513   2.345 -0.0468 -0.6478 -0.0106
18658SOL    HW156552   6.590   2.586   2.286  0.5109 -0.7755 -0.0094
18658SOL    HW256553   6.486   2.531   2.381  0.1874  0.1348  0.1786
18659SOL     OW56554   2.469   8.194   6.617 -0.3348  0.1418 -0.3252
18659SOL    HW156555   2.539   8.257   6.604 -0.6515  0.2406 -1.8114
18659SOL    HW256556   2.490   8.122   6.557 -1.0409 -0.2117 -0.1626
18660SOL     OW56557   1.132   1.873   1.915  0.2274  0.2351 -0.3359
18660SOL    HW156558   1.113   1.783   1.944 -0.6109  0.3091 -0.6177
18660SOL    HW256559   1.046   1.913   1.904  0.5916  0.9890 -0.4968
18661SOL     OW56560   5.644   3.449   4.033 -0.3727  0.6703  0.0457
18661SOL    HW156561   5.674   3.534   4.065 -0.3758  0.3136  1.0318
18661SOL    HW256562   5.594   3.412   4.105 -1.3681  0.3265 -0.7970
18662SOL     OW56563   6.280   8.462   1.065  0.7078  0.7337 -0.1679
18662SOL    HW156564   6.354   8.470   1.004  1.4462 -0.1548  0.5663
18662SOL    HW256565   6.202   8.474   1.010  1.3799  1.3733 -1.0181
18663SOL     OW56566   3.406   1.169   0.043 -0.4541  0.1267  0.3375
18663SOL    HW156567   3.400   1.088   0.094  0.3298 -0.8400 -1.0289
18663SOL    HW256568   3.466   1.224   0.092 -0.4842 -0.3759  0.9610
18664SOL     OW56569   2.510   3.052   4.722 -0.4499  0.4049 -0.1195
18664SOL    HW156570   2.421   3.046   4.758 -0.4884  0.4806 -0.2013
18664SOL    HW256571   2.497   3.068   4.629 -0.3502  0.1815 -0.1721
18665SOL     OW56572   1.419   4.599   3.099 -0.3485 -0.0915  0.0334
18665SOL    HW156573   1.390   4.668   3.160 -1.8559 -1.0823  0.5015
18665SOL    HW256574   1.495   4.561   3.141 -0.8810 -0.2178  0.9221
18666SOL     OW56575   8.631   8.591   5.976 -0.2026  0.3527 -0.1064
18666SOL    HW156576   8.550   8.552   5.944  1.0202 -0.2519 -2.6818
18666SOL    HW256577   8.612   8.685   5.982 -1.5413  0.0388  0.9052
18667SOL     OW56578   4.205   9.077   4.149 -0.1452 -0.6046  0.5177
18667SOL    HW156579   4.251   9.087   4.066  0.8443 -1.2280  0.9711
18667SOL    HW256580   4.129   9.023   4.127  0.6539 -1.6322  0.1804
18668SOL     OW56581   9.274   1.078   0.329 -0.1547  0.1703 -0.0754
18668SOL    HW156582   9.238   1.115   0.247  0.0511 -0.2877 -0.3754
18668SOL    HW256583   9.338   1.013   0.300  0.7006  0.7555  0.4583
18669SOL     OW56584   5.791   4.266   7.025 -0.3679  0.3535  0.1351
18669SOL    HW156585   5.785   4.211   6.947  1.2369  0.6551 -0.2302
18669SOL    HW256586   5.761   4.209   7.096  1.0896 -0.9646 -0.2607
18670SOL     OW56587   8.782   4.733   0.977 -0.4225  0.1321 -0.1332
18670SOL    HW156588   8.785   4.828   0.988  0.1266 -0.0236  1.2604
18670SOL    HW256589   8.724   4.719   0.902 -0.7263  1.5537 -0.1876
18671SOL     OW56590   0.996   8.708   2.327  0.4014 -0.2930  0.1026
18671SOL    HW156591   1.039   8.741   2.248  0.4439  2.0507  1.0317
18671SOL    HW256592   1.068   8.688   2.387  0.3243 -0.1200  0.2559
18672SOL     OW56593   4.339   4.955   8.968 -0.1988 -0.3957 -0.3633
18672SOL    HW156594   4.362   4.928   9.056 -3.1532 -0.7046  0.4227
18672SOL    HW256595   4.249   4.988   8.975 -0.9521 -1.4112 -3.4052
18673SOL     OW56596   3.180   7.145   8.968  0.2462  0.3676 -0.1294
18673SOL    HW156597   3.142   7.229   8.993 -1.6799 -0.2925 -0.7164
18673SOL    HW256598   3.169   7.089   9.045  0.3076  0.2555 -0.2004
18674SOL     OW56599   2.731   6.863   4.827  0.0040 -0.3675  0.2922
18674SOL    HW156600   2.802   6.887   4.767  0.1149 -2.3714 -0.4452
18674SOL    HW256601   2.768   6.794   4.882 -0.9197 -0.3775  0.9181
18675SOL     OW56602   7.838   2.146   0.380 -0.7968  0.0738  0.3148
18675SOL    HW156603   7.889   2.174   0.304  1.2008 -2.1077  0.7333
18675SOL    HW256604   7.795   2.065   0.353 -0.5400 -0.4122  1.2980
18676SOL     OW56605   4.917   6.004   2.925  0.0540 -0.1257  0.0366
18676SOL    HW156606   4.896   5.926   2.874  1.4548 -1.0626  0.8380
18676SOL    HW256607   4.894   5.982   3.015 -0.1047  0.6071  0.1855
18677SOL     OW56608   9.866   8.530   0.277 -0.0379 -0.2518 -0.1781
18677SOL    HW156609   9.937   8.492   0.225  0.2795  2.7142 -2.2094
18677SOL    HW256610   9.786   8.508   0.228 -0.1542 -0.6510  0.1878
18678SOL     OW56611   2.634   7.823   9.159  0.0469  0.0286 -0.6818
18678SOL    HW156612   2.583   7.749   9.126 -0.7540  0.1640  0.2052
18678SOL    HW256613   2.607   7.898   9.107 -1.7755  0.4024  0.6901
18679SOL     OW56614   7.310   5.552   1.363  0.5036 -0.3054  0.0021
18679SOL    HW156615   7.335   5.640   1.391  0.5631 -0.4334  0.3528
18679SOL    HW256616   7.319   5.498   1.441 -1.5086 -0.2344  0.3110
18680SOL     OW56617   3.420   1.818   0.427  0.3656  0.6635 -0.4983
18680SOL    HW156618   3.395   1.838   0.517  3.0597  2.7155 -0.0834
18680SOL    HW256619   3.369   1.879   0.373 -0.2209  0.4011 -0.2370
18681SOL     OW56620   1.776   6.230   2.510 -0.4620 -0.2964 -0.0928
18681SOL    HW156621   1.747   6.315   2.543  1.0823 -0.0289  0.6691
18681SOL    HW256622   1.869   6.241   2.492 -0.3756 -1.6424 -0.6343
18682SOL     OW56623   8.562   3.949   2.173 -0.2442 -0.0324  0.3764
18682SOL    HW156624   8.573   3.981   2.083  0.4049 -0.1001  0.4317
18682SOL    HW256625   8.569   3.854   2.166 -0.9785 -0.0973  0.3912
18683SOL     OW56626   8.976   8.194   9.013 -0.2532  0.6466  0.2527
18683SOL    HW156627   8.983   8.244   9.094 -1.6738 -0.1020  0.8724
18683SOL    HW256628   8.917   8.122   9.034  1.7268 -1.3323 -0.6122
18684SOL     OW56629   4.245   9.159   9.264  0.0693  0.3776  0.1389
18684SOL    HW156630   4.325   9.111   9.240  0.0924  0.0817  0.7886
18684SOL    HW256631   4.174   9.105   9.229  0.0398 -0.7235  1.7620
18685SOL     OW56632   1.452   1.469   1.457 -0.1999 -0.3838 -0.1679
18685SOL    HW156633   1.438   1.562   1.477 -0.8153 -0.5883  0.3807
18685SOL    HW256634   1.364   1.434   1.443 -0.1142 -1.2431  1.2845
18686SOL     OW56635   8.178   7.642   3.262 -0.1882 -0.2345 -0.6203
18686SOL    HW156636   8.087   7.650   3.231 -0.8338 -0.5360  1.1141
18686SOL    HW256637   8.177   7.568   3.322  1.9196 -2.3011 -2.8872
18687SOL     OW56638   3.198   4.708   0.900  0.2319  0.1520 -0.5461
18687SOL    HW156639   3.289   4.718   0.870  0.8774 -0.2220  1.1716
18687SOL    HW256640   3.189   4.772   0.970 -0.2079 -1.1302  0.6055
18688SOL     OW56641   0.503   7.269   9.799 -0.1154  0.6564  1.0778
18688SOL    HW156642   0.427   7.227   9.838  0.0532  0.0919  0.8159
18688SOL    HW256643   0.558   7.292   9.873  0.5229 -1.0354  1.1800
18689SOL     OW56644   0.502   1.776   2.827  0.0169  0.1748  0.1614
18689SOL    HW156645   0.589   1.768   2.867  0.2110  2.3231  0.2916
18689SOL    HW256646   0.443   1.786   2.902 -0.3708 -1.1724  0.0678
18690SOL     OW56647   0.863   1.301   2.704 -0.1452  0.4772  0.2508
18690SOL    HW156648   0.949   1.273   2.672 -0.2942 -0.8415  0.9424
18690SOL    HW256649   0.807   1.299   2.626 -0.4957 -2.6636  0.4722
18691SOL     OW56650   8.074   7.364   7.716  0.4816 -0.0836  0.1336
18691SOL    HW156651   8.090   7.296   7.781 -2.5573 -1.0203  0.0250
18691SOL    HW256652   8.065   7.316   7.633  0.5446  0.7107 -0.3403
18692SOL     OW56653   0.194   4.559   7.693 -0.1573 -0.3832  0.0913
18692SOL    HW156654   0.178   4.482   7.749 -0.3965 -0.2311  0.2344
18692SOL    HW256655   0.180   4.527   7.604  0.1839 -0.6173  0.1182
18693SOL     OW56656   1.119   9.032   8.372 -0.7085 -0.1276 -0.0603
18693SOL    HW156657   1.135   9.078   8.289 -1.5132  2.0584  0.9328
18693SOL    HW256658   1.026   9.011   8.370  0.0372 -4.1689 -1.5887
18694SOL     OW56659   1.912   6.063   5.075  0.1784 -0.3129  0.3925
18694SOL    HW156660   1.875   6.118   5.145  1.6439 -0.9763  1.7537
18694SOL    HW256661   1.860   5.983   5.077  0.3849 -0.4412  0.9385
18695SOL     OW56662   9.361   6.866   8.068 -0.0266 -0.3403  0.2918
18695SOL    HW156663   9.431   6.910   8.116 -1.4290  0.0164  2.1223
18695SOL    HW256664   9.330   6.798   8.127 -0.4153 -1.3077 -0.9883
18696SOL     OW56665   3.813   2.535   3.351  0.0027 -0.1404 -0.1566
18696SOL    HW156666   3.906   2.557   3.355 -0.1673  0.6275 -0.1869
18696SOL    HW256667   3.780   2.554   3.440 -0.2737  0.3205 -0.3533
18697SOL     OW56668   4.241   8.593   4.279 -0.4543  0.2603  0.3947
18697SOL    HW156669   4.231   8.637   4.195  1.1825 -0.4526 -0.1979
18697SOL    HW256670   4.310   8.529   4.265 -1.0736 -0.7998  1.9229
18698SOL     OW56671   4.545   5.995   8.015  0.6961 -0.3611  0.1848
18698SOL    HW156672   4.537   6.001   7.920  1.7823  1.3887  0.1713
18698SOL    HW256673   4.533   5.902   8.034  2.9069 -1.1715 -1.8986
18699SOL     OW56674   2.809   8.537   5.047  0.9533 -0.0987 -0.2496
18699SOL    HW156675   2.733   8.500   5.002 -0.1710  0.5844  1.0025
18699SOL    HW256676   2.820   8.624   5.008  2.0403 -0.7319 -1.4431
18700SOL     OW56677   9.424   6.549   5.952 -0.1821 -0.0258 -0.4227
18700SOL    HW156678   9.506   6.585   5.918 -0.2261  0.6289  0.1490
18700SOL    HW256679   9.362   6.560   5.880  0.0021  0.3230 -0.5319
18701SOL     OW56680   3.624   6.450   9.405 -0.3946  0.1435 -0.2503
18701SOL    HW156681   3.662   6.537   9.392 -0.8425  0.4500  0.4266
18701SOL    HW256682   3.582   6.430   9.322 -0.1047  0.4816 -0.4811
18702SOL     OW56683   1.923   9.472   6.790 -0.1108 -0.0089  0.3989
18702SOL    HW156684   1.861   9.414   6.833  0.5679  0.6612  2.3971
18702SOL    HW256685   1.876   9.556   6.783 -0.5505 -0.3519 -1.0920
18703SOL     OW56686   2.175   6.508   3.184 -0.4257 -0.3868  0.0705
18703SOL    HW156687   2.091   6.490   3.142 -0.9503  1.0969  0.4511
18703SOL    HW256688   2.225   6.426   3.172 -1.9962 -1.3875  0.0849
18704SOL     OW56689   1.985   0.110   8.438 -0.0374 -0.5172 -0.3821
18704SOL    HW156690   1.941   0.140   8.358 -0.5775 -0.3883 -0.0459
18704SOL    HW256691   1.984   0.015   8.432 -0.1134 -0.5076 -0.5141
18705SOL     OW56692   3.560   3.023   8.506  0.2294 -0.2057 -0.1760
18705SOL    HW156693   3.635   3.038   8.563 -0.7726  3.8765  0.3447
18705SOL    HW256694   3.495   2.981   8.563  0.7506 -0.2157  0.4287
18706SOL     OW56695   6.811   6.322   2.909  0.8176  0.2372 -0.1257
18706SOL    HW156696   6.794   6.399   2.854  1.4184  0.7844  0.4317
18706SOL    HW256697   6.744   6.326   2.978  0.1844 -0.3420 -0.6954
18707SOL     OW56698   8.733   2.596   6.459  0.4696  0.4385  0.3809
18707SOL    HW156699   8.729   2.518   6.515  0.9395  0.8107  0.9327
18707SOL    HW256700   8.763   2.666   6.516  0.7890  0.8654 -0.2930
18708SOL     OW56701   2.498   2.018   3.933 -0.1380  0.2989 -0.1676
18708SOL    HW156702   2.439   2.056   3.998 -0.3100  0.3750 -0.3632
18708SOL    HW256703   2.440   1.990   3.862 -0.1128 -1.1645  0.3592
18709SOL     OW56704   8.116   2.131   7.309 -0.0913  0.0939  0.5128
18709SOL    HW156705   8.042   2.104   7.256  0.0870  0.4738  0.0604
18709SOL    HW256706   8.085   2.207   7.358  0.7663  2.0512 -1.7515
18710SOL     OW56707   8.891   9.492   7.530  0.0439  0.0969  0.5989
18710SOL    HW156708   8.984   9.511   7.545  0.1598 -0.3001  0.4042
18710SOL    HW256709   8.891   9.416   7.472 -0.4040 -0.0966  0.8432
18711SOL     OW56710   9.078   1.199   5.599 -0.1642  0.2787 -0.3751
18711SOL    HW156711   9.035   1.284   5.602  0.7138  0.7203  0.4019
18711SOL    HW256712   9.082   1.171   5.691  0.8885  0.1070 -0.4545
18712SOL     OW56713   6.422   1.187   8.993 -0.3600 -0.9114  0.1566
18712SOL    HW156714   6.352   1.250   9.005 -1.3894 -2.0947  0.6420
18712SOL    HW256715   6.441   1.188   8.899 -1.5525 -1.0942 -0.0989
18713SOL     OW56716   9.655   5.636   2.683  0.4813 -0.2280  0.2463
18713SOL    HW156717   9.561   5.625   2.671  0.4601  0.3870 -0.1945
18713SOL    HW256718   9.663   5.687   2.764  0.5455 -2.3790  1.6954
18714SOL     OW56719   6.559   9.180   8.391  0.5068  0.3462 -0.2155
18714SOL    HW156720   6.518   9.155   8.308 -0.0449  1.3930 -0.2748
18714SOL    HW256721   6.641   9.223   8.366  0.3403  0.6619 -0.2209
18715SOL     OW56722   1.845   2.623   2.028 -0.2150  0.0002 -0.2374
18715SOL    HW156723   1.849   2.614   1.933  1.3128  1.8153 -0.4031
18715SOL    HW256724   1.808   2.710   2.043  1.3454  0.5310  0.7569
18716SOL     OW56725   0.943   8.455   9.698 -0.0795 -0.4283  0.1705
18716SOL    HW156726   0.970   8.368   9.668  0.7871 -0.9942  2.3678
18716SOL    HW256727   1.025   8.504   9.705 -0.4626  0.2626 -0.1640
18717SOL     OW56728   7.386   6.177   6.031  0.1924 -0.1509  0.3368
18717SOL    HW156729   7.341   6.176   5.947  0.5622 -1.6912  0.1172
18717SOL    HW256730   7.351   6.100   6.077 -0.2053  0.8125  1.7098
18718SOL     OW56731   6.311   4.957   9.931  0.4388  0.2115 -1.0686
18718SOL    HW156732   6.292   4.874   9.887  2.0710 -0.5746 -0.4227
18718SOL    HW256733   6.257   4.955  10.010 -0.0027  0.0564 -1.3739
18719SOL     OW56734   5.208   6.568   8.736  0.3429 -0.3911 -0.4085
18719SOL    HW156735   5.135   6.596   8.790  0.3389 -1.0755 -0.0450
18719SOL    HW256736   5.222   6.477   8.760  1.9088 -0.0244  0.2158
18720SOL     OW56737   6.214   9.710   6.089 -0.6409 -0.5990 -0.0601
18720SOL    HW156738   6.180   9.699   6.178 -0.1767 -0.9016  0.0834
18720SOL    HW256739   6.191   9.800   6.066  0.0837 -0.1992  0.7375
18721SOL     OW56740   2.796   6.392   9.196  0.7714 -0.1515  0.4322
18721SOL    HW156741   2.834   6.480   9.188  2.3722 -0.7882  0.6087
18721SOL    HW256742   2.870   6.336   9.222 -0.3189 -1.4641  0.8507
18722SOL     OW56743   5.963   9.689   7.292  0.5044  0.1873  0.3799
18722SOL    HW156744   6.044   9.668   7.340  0.1893 -0.9683  0.4279
18722SOL    HW256745   5.932   9.770   7.333 -0.0364 -1.0279  2.5481
18723SOL     OW56746   2.801   3.118   3.053  0.8347  0.2889 -0.2618
18723SOL    HW156747   2.763   3.119   3.141 -1.0335 -0.0804 -1.0067
18723SOL    HW256748   2.887   3.158   3.063  1.0844 -0.6631  1.9002
18724SOL     OW56749   0.480   2.413   8.924 -0.4136 -0.3005  0.4941
18724SOL    HW156750   0.466   2.406   8.830  0.4928  0.0711  0.3155
18724SOL    HW256751   0.450   2.500   8.947  1.0649  0.3180  0.1958
18725SOL     OW56752   4.832   9.504   1.458  0.1754 -0.0582  0.2382
18725SOL    HW156753   4.821   9.421   1.504 -0.2817 -0.8847 -1.3032
18725SOL    HW256754   4.877   9.481   1.377  0.7175  1.3166  0.1143
18726SOL     OW56755   1.698   4.003   3.928 -0.0812 -0.1477 -0.2190
18726SOL    HW156756   1.753   3.975   3.854 -1.8326 -1.8046 -0.9847
18726SOL    HW256757   1.726   4.093   3.946  0.2502  0.4143 -3.0762
18727SOL     OW56758   8.896   4.391   4.172 -0.2665 -0.0030  0.0674
18727SOL    HW156759   8.870   4.424   4.086 -1.1417 -0.7085  0.0489
18727SOL    HW256760   8.830   4.325   4.194  0.6916 -0.7856  0.6944
18728SOL     OW56761   1.225   0.153   0.096  0.1281 -0.3347 -0.1461
18728SOL    HW156762   1.321   0.155   0.094  0.1133  1.6204 -0.8496
18728SOL    HW256763   1.200   0.237   0.133 -1.3414 -1.0796  0.6387
18729SOL     OW56764   1.039   9.367   8.466 -0.1504  0.6538 -0.5431
18729SOL    HW156765   0.952   9.326   8.473  0.5854 -1.2045 -1.5095
18729SOL    HW256766   1.031   9.428   8.393 -0.1336 -1.0913 -2.0826
18730SOL     OW56767   1.195   1.125   1.673 -0.2488  0.0916  0.3378
18730SOL    HW156768   1.244   1.043   1.681 -0.9227 -0.2800  0.8247
18730SOL    HW256769   1.207   1.168   1.757  3.8249  2.7102 -1.3145
18731SOL     OW56770   7.273   2.223   8.159  0.1437  0.0038  0.2770
18731SOL    HW156771   7.204   2.252   8.101  0.5767 -1.0973 -0.8357
18731SOL    HW256772   7.228   2.171   8.226 -0.1944 -0.0283  0.0261
18732SOL     OW56773   9.754   7.840   5.679 -0.6209  0.4246 -0.1095
18732SOL    HW156774   9.845   7.862   5.701 -0.4117 -0.4237 -0.0852
18732SOL    HW256775   9.719   7.803   5.760 -0.0808 -2.0051 -0.9179
18733SOL     OW56776   4.987   7.565   5.856  0.1937  0.5750 -0.1324
18733SOL    HW156777   4.999   7.575   5.762 -0.4555  2.7595 -0.0470
18733SOL    HW256778   5.074   7.578   5.893  0.4401 -0.2404 -0.4179
18734SOL     OW56779   5.732   5.315   3.127 -0.3293 -0.8158  0.3576
18734SOL    HW156780   5.710   5.408   3.123  1.8960 -0.2484  0.2627
18734SOL    HW256781   5.757   5.300   3.218  0.6242 -0.9856  0.0772
18735SOL     OW56782   6.380   1.068   4.337 -0.0152 -0.0431  0.0782
18735SOL    HW156783   6.446   1.001   4.355  2.9250  2.1949 -1.3076
18735SOL    HW256784   6.334   1.036   4.260  0.7780 -0.8707 -0.0730
18736SOL     OW56785   2.563   5.955   6.530 -0.3423  0.5327  1.0638
18736SOL    HW156786   2.619   5.984   6.601 -0.7919  1.0483  1.2201
18736SOL    HW256787   2.598   5.999   6.452  0.2459 -0.1570  0.9354
18737SOL     OW56788   9.072   1.780   5.707 -0.0804  0.0183  0.5296
18737SOL    HW156789   8.983   1.780   5.741 -1.1163 -1.6136 -1.8415
18737SOL    HW256790   9.081   1.864   5.663 -0.3874  0.2625  0.9279
18738SOL     OW56791   3.041   3.642   2.447  0.4031 -0.4535  0.3843
18738SOL    HW156792   3.119   3.623   2.500 -0.8041 -4.7259  1.0013
18738SOL    HW256793   2.968   3.634   2.508 -0.7494  4.6444  0.1127
18739SOL     OW56794   9.696   9.295   5.879 -0.4431  0.3492 -0.2348
18739SOL    HW156795   9.653   9.235   5.940 -0.0752 -0.2972 -0.5987
18739SOL    HW256796   9.630   9.362   5.860 -1.2129 -0.5011 -0.6193
18740SOL     OW56797   9.336   3.559   4.863 -0.6928  0.3430 -0.4269
18740SOL    HW156798   9.381   3.588   4.784  2.2995  0.5813  1.1983
18740SOL    HW256799   9.363   3.622   4.930 -1.7283 -0.8130  1.1447
18741SOL     OW56800   5.450   9.811   7.016 -0.2686  0.2801  0.1151
18741SOL    HW156801   5.383   9.761   6.970 -1.4681  1.1712  0.8144
18741SOL    HW256802   5.520   9.748   7.034 -0.6858 -0.5475 -1.0843
18742SOL     OW56803   1.299   0.884   4.239 -0.0626  0.2181 -0.0677
18742SOL    HW156804   1.221   0.870   4.293 -0.5936 -0.3655 -0.9689
18742SOL    HW256805   1.354   0.807   4.255  1.0527  1.3057  1.7111
18743SOL     OW56806   0.331   8.618   0.137  0.3378  0.1939 -0.1736
18743SOL    HW156807   0.286   8.570   0.067  1.5248  0.2285 -1.0029
18743SOL    HW256808   0.319   8.564   0.215  0.8411 -1.0022 -0.8867
18744SOL     OW56809   8.892   9.190   9.214  0.1950 -0.0001  0.2745
18744SOL    HW156810   8.822   9.255   9.224  1.8930  1.8174  0.9584
18744SOL    HW256811   8.918   9.197   9.122 -0.0239 -0.1369  0.2026
18745SOL     OW56812   2.117   5.739   3.114  0.1079  0.3599 -0.3957
18745SOL    HW156813   2.182   5.792   3.159  1.6221 -2.3069  0.8182
18745SOL    HW256814   2.167   5.692   3.047 -0.9155 -0.3049 -0.7134
18746SOL     OW56815   0.689   4.113   7.290 -1.0192 -0.3492 -0.2953
18746SOL    HW156816   0.711   4.206   7.290 -1.6169 -0.1989 -0.8038
18746SOL    HW256817   0.611   4.106   7.345 -2.2932 -0.1957 -2.0062
18747SOL     OW56818   7.213   9.044   4.520 -0.0194  0.0829 -0.2116
18747SOL    HW156819   7.141   9.051   4.457 -0.1066 -0.6751 -0.2122
18747SOL    HW256820   7.182   9.090   4.597 -0.0854  0.6489 -0.5673
18748SOL     OW56821   3.563   4.378   7.242  0.1022 -0.3119 -0.5922
18748SOL    HW156822   3.597   4.466   7.225  0.7587 -0.3676  0.3797
18748SOL    HW256823   3.486   4.392   7.297  0.1627 -0.3416 -0.5002
18749SOL     OW56824   9.769   6.794   1.262 -0.0809 -0.1952  0.1860
18749SOL    HW156825   9.777   6.767   1.171  1.5507 -1.5173  0.6760
18749SOL    HW256826   9.783   6.889   1.260 -2.5842  0.2435 -1.1677
18750SOL     OW56827   2.491   5.312   4.242 -0.2234 -0.0924  0.7379
18750SOL    HW156828   2.509   5.237   4.186 -0.0238  1.2683 -1.1120
18750SOL    HW256829   2.427   5.281   4.305 -0.1815 -1.7901 -0.0135
18751SOL     OW56830   9.714   5.893   7.038  0.0443  0.5001  0.2512
18751SOL    HW156831   9.639   5.840   7.064 -0.3980  1.1449  0.3185
18751SOL    HW256832   9.779   5.879   7.106  0.1297 -0.3529 -0.0021
18752SOL     OW56833   4.549   3.429   6.782  0.5974  0.4975 -0.0718
18752SOL    HW156834   4.483   3.480   6.829 -1.2629 -0.5540 -1.4557
18752SOL    HW256835   4.578   3.364   6.846 -1.1312 -0.2438  0.0039
18753SOL     OW56836   4.123   0.825   5.799 -0.4023 -0.2098  0.1553
18753SOL    HW156837   4.128   0.896   5.735 -1.0894  0.1227  0.4577
18753SOL    HW256838   4.038   0.783   5.783 -0.1723 -0.7144  0.2373
18754SOL     OW56839   1.523   7.248   3.362 -0.1062 -0.2317  0.4387
18754SOL    HW156840   1.468   7.219   3.289  0.1640  2.1282 -0.7918
18754SOL    HW256841   1.524   7.173   3.422 -2.6258 -1.2494 -0.6383
18755SOL     OW56842   0.868   9.736   1.081  0.0272 -0.1705 -0.4265
18755SOL    HW156843   0.819   9.714   1.002  0.0774 -1.9685 -0.0112
18755SOL    HW256844   0.960   9.727   1.055  0.0460 -0.6036 -0.2209
18756SOL     OW56845   4.366   1.756   0.796 -0.3072 -0.3848 -0.2261
18756SOL    HW156846   4.438   1.707   0.758  4.1583  3.4894  2.1725
18756SOL    HW256847   4.346   1.824   0.732  0.2006  0.1840  0.2026
18757SOL     OW56848   7.686   6.465   4.114  0.2685 -0.3200 -0.3226
18757SOL    HW156849   7.602   6.488   4.074  0.5442  0.3634 -0.5205
18757SOL    HW256850   7.679   6.371   4.132 -1.0283 -0.0413  0.8222
18758SOL     OW56851   1.407   4.371   6.621  0.6947 -0.0173 -0.2520
18758SOL    HW156852   1.498   4.390   6.644  1.0469 -1.6205 -0.2514
18758SOL    HW256853   1.403   4.385   6.527  0.1386  3.0128  0.1024
18759SOL     OW56854   0.206   9.431   7.996 -0.2999  0.4728  0.3946
18759SOL    HW156855   0.240   9.416   8.084 -0.2848  0.1036  0.3248
18759SOL    HW256856   0.281   9.465   7.946  0.0479 -0.5653  0.1763
18760SOL     OW56857   6.348   4.046   9.748  0.7066  0.0725 -0.2029
18760SOL    HW156858   6.394   4.030   9.830  0.6103  1.2072  0.0920
18760SOL    HW256859   6.260   4.013   9.763 -0.3957  3.3152  1.4571
18761SOL     OW56860   0.958   4.711   2.514 -0.0882  0.3872  0.8101
18761SOL    HW156861   0.944   4.793   2.466  2.0673 -0.5572 -1.6635
18761SOL    HW256862   1.049   4.717   2.544 -0.6850 -0.0758  2.8477
18762SOL     OW56863   0.122   7.059   1.187 -0.0360  0.0079 -0.2921
18762SOL    HW156864   0.076   7.136   1.221  2.2697  1.8318 -1.0069
18762SOL    HW256865   0.098   6.988   1.247  0.0379  1.9357  2.1874
18763SOL     OW56866   8.749   3.977   4.671 -0.2839 -0.5718  0.3926
18763SOL    HW156867   8.696   4.001   4.748  2.3894  0.4702  2.0423
18763SOL    HW256868   8.783   3.890   4.693  1.4653  0.2386  0.9939
18764SOL     OW56869   3.221   5.936   4.320  0.4316 -0.3668  0.3333
18764SOL    HW156870   3.248   5.932   4.412 -0.0011 -0.7015  0.4501
18764SOL    HW256871   3.125   5.937   4.324  0.3967 -1.1474 -0.1418
18765SOL     OW56872   9.382   9.929   2.504  0.2476  0.0643 -0.0987
18765SOL    HW156873   9.457   9.963   2.554  0.8277 -0.9566 -0.2482
18765SOL    HW256874   9.365   9.842   2.542 -0.2409 -0.1156 -0.7131
18766SOL     OW56875   2.430   7.699   6.825 -0.2161 -0.2544 -0.2142
18766SOL    HW156876   2.349   7.749   6.817  0.0323  0.1712 -0.1251
18766SOL    HW256877   2.471   7.732   6.906  0.6519  0.4433 -0.9136
18767SOL     OW56878   0.114   9.234   0.289  0.0649  0.2323  0.1670
18767SOL    HW156879   0.105   9.269   0.201 -1.9880  0.2843  0.3395
18767SOL    HW256880   0.186   9.172   0.283 -1.5618 -1.6079 -2.1927
18768SOL     OW56881   3.837   3.813   7.524  0.0055 -0.3589 -0.3993
18768SOL    HW156882   3.917   3.762   7.510 -0.4721 -1.6882  1.3680
18768SOL    HW256883   3.868   3.899   7.552  0.8216 -0.7164 -0.1669
18769SOL     OW56884   4.351   2.648   7.775 -0.8037  0.2391  0.5743
18769SOL    HW156885   4.285   2.683   7.836 -1.1472  0.9334 -0.1821
18769SOL    HW256886   4.413   2.720   7.763 -1.5398  0.6422 -1.0259
18770SOL     OW56887   7.118   7.932   8.799 -0.0228  0.6526  0.3879
18770SOL    HW156888   7.126   7.900   8.709  0.5996 -1.2243  1.0717
18770SOL    HW256889   7.205   7.966   8.820  0.7955 -1.7473  1.2502
18771SOL     OW56890   8.216   4.173   5.623 -0.1111 -0.2865  0.1313
18771SOL    HW156891   8.144   4.211   5.673 -1.1177 -0.4954 -1.1169
18771SOL    HW256892   8.293   4.223   5.651 -1.1543  1.7196 -0.3839
18772SOL     OW56893   8.629   5.178   5.783 -0.2328 -0.3613  0.2807
18772SOL    HW156894   8.635   5.213   5.694  2.5749 -0.0399  0.5039
18772SOL    HW256895   8.658   5.250   5.839 -1.9686 -0.5579  1.5149
18773SOL     OW56896   9.052   8.501   0.612  0.0783  0.3105 -0.5579
18773SOL    HW156897   9.095   8.510   0.527  1.4654  1.3051  0.2188
18773SOL    HW256898   8.959   8.499   0.591  0.4283 -1.4063 -2.2583
18774SOL     OW56899   4.285   0.960   9.078 -0.1939 -0.5297  0.1111
18774SOL    HW156900   4.256   0.944   9.168  2.1678  1.6622  1.3912
18774SOL    HW256901   4.375   0.992   9.087 -0.5627  1.7940 -2.8554
18775SOL     OW56902   6.012   8.549   6.695 -0.2394  0.0154 -0.0407
18775SOL    HW156903   5.986   8.543   6.603 -0.8377 -1.0896  0.1780
18775SOL    HW256904   6.051   8.464   6.715 -1.7210 -0.4321  1.1706
18776SOL     OW56905   3.392   2.089   4.980  0.7077  0.8184  0.3743
18776SOL    HW156906   3.302   2.115   4.998  0.8328  0.9241  0.8819
18776SOL    HW256907   3.396   1.997   5.006  1.0808  1.1701  1.6452
18777SOL     OW56908   7.863   9.063   5.371  0.4211 -0.2228 -0.6638
18777SOL    HW156909   7.850   9.048   5.278  1.2961 -0.6755 -0.7216
18777SOL    HW256910   7.861   9.159   5.381 -0.1406 -0.1882 -1.0648
18778SOL     OW56911   7.158   9.655   2.104 -0.0832 -0.6512  0.7085
18778SOL    HW156912   7.122   9.585   2.049  0.1319 -1.3534  1.4311
18778SOL    HW256913   7.214   9.705   2.045 -1.6808  0.0477 -0.2731
18779SOL     OW56914   3.846   4.023   6.413 -0.1567  0.0294  0.1584
18779SOL    HW156915   3.820   4.032   6.321  2.7606  0.5268 -0.7096
18779SOL    HW256916   3.911   4.092   6.427  0.1382 -0.6026  2.3559
18780SOL     OW56917   6.745   8.151   2.547  0.9867 -0.1402 -0.3345
18780SOL    HW156918   6.746   8.204   2.467  1.7138  0.9795  0.3915
18780SOL    HW256919   6.713   8.065   2.518 -0.0932  0.6346 -1.5667
18781SOL     OW56920   6.956   5.442   7.772  0.5716  0.2311 -0.0969
18781SOL    HW156921   6.864   5.467   7.781  0.3251 -0.1343 -1.3862
18781SOL    HW256922   6.993   5.509   7.715  0.8668 -0.1599 -0.3650
18782SOL     OW56923   9.075   8.215   8.625  0.5507 -0.5452 -0.2864
18782SOL    HW156924   9.103   8.196   8.535 -0.0394  1.3929 -0.9326
18782SOL    HW256925   9.144   8.177   8.679  2.4160  0.6177 -1.6794
18783SOL     OW56926   8.425   9.606   8.081  0.3498  0.6258 -0.3362
18783SOL    HW156927   8.441   9.652   7.999 -0.2631  1.2435 -0.1192
18783SOL    HW256928   8.511   9.599   8.123  0.3448  2.3435  0.0250
18784SOL     OW56929   7.515   9.725   5.453  0.2665 -0.1661 -0.2266
18784SOL    HW156930   7.448   9.683   5.508 -0.0394 -0.3285 -0.7177
18784SOL    HW256931   7.488   9.817   5.449 -0.1185 -0.2962 -0.6979
18785SOL     OW56932   6.869   4.722   1.354 -0.0125  0.0606  0.3344
18785SOL    HW156933   6.886   4.781   1.428 -0.1173  0.3404  0.1383
18785SOL    HW256934   6.780   4.691   1.367  0.2193 -0.4615  0.7141
18786SOL     OW56935   9.259   3.573   6.422 -0.2093 -0.0415 -0.3983
18786SOL    HW156936   9.256   3.555   6.516  0.1870 -0.0366 -0.3836
18786SOL    HW256937   9.303   3.658   6.415 -1.0375  0.3921 -0.5379
18787SOL     OW56938   3.102   4.314   0.527  0.3463 -0.5305 -0.4529
18787SOL    HW156939   3.128   4.252   0.459  0.0486 -0.0762 -0.9961
18787SOL    HW256940   3.091   4.397   0.480  0.7586 -0.0673  0.2628
18788SOL     OW56941   0.497   9.657   0.718 -0.3222 -0.3931 -0.7959
18788SOL    HW156942   0.537   9.581   0.676 -0.2306  0.0832 -1.5884
18788SOL    HW256943   0.407   9.659   0.685 -0.6233 -0.7240 -0.0088
18789SOL     OW56944   2.548   9.689   6.584  0.3707 -0.4101 -0.1113
18789SOL    HW156945   2.637   9.721   6.567  2.1383 -4.5706 -0.0980
18789SOL    HW256946   2.539   9.690   6.679  1.4983 -2.1291  0.0750
18790SOL     OW56947   9.711   6.254   2.538 -0.0419 -0.7297 -0.1779
18790SOL    HW156948   9.805   6.262   2.554  0.4190 -1.1436 -2.3715
18790SOL    HW256949   9.688   6.334   2.489 -1.0515 -0.1863  1.1226
18791SOL     OW56950   5.336   3.463   8.985  0.5217 -0.1625 -0.0180
18791SOL    HW156951   5.424   3.482   8.952  0.2971  0.5592 -0.2258
18791SOL    HW256952   5.309   3.544   9.029 -0.4089 -0.0389 -0.7872
18792SOL     OW56953   2.227   2.884   4.392 -0.0999 -0.0877  0.5908
18792SOL    HW156954   2.157   2.923   4.444 -0.0777 -1.2564  1.5561
18792SOL    HW256955   2.212   2.789   4.400  1.5224 -0.3590  0.7262
18793SOL     OW56956   4.496   3.366   1.147  0.2285 -0.2524  0.3242
18793SOL    HW156957   4.544   3.376   1.229  1.1960  0.1403 -0.2706
18793SOL    HW256958   4.532   3.287   1.108  1.2188  0.6398 -0.6436
18794SOL     OW56959   2.899   6.378   6.054 -0.1186  0.0396  0.0524
18794SOL    HW156960   2.923   6.327   6.132 -0.4993 -0.3120 -0.0581
18794SOL    HW256961   2.837   6.322   6.007 -3.1128  1.8473  1.5416
18795SOL     OW56962   8.949   5.637   6.573  0.2662 -0.0436 -0.3291
18795SOL    HW156963   8.892   5.707   6.606  0.5206 -0.5695  1.3431
18795SOL    HW256964   8.899   5.557   6.588  0.1687 -0.2711 -1.7951
18796SOL     OW56965   3.117   7.701   0.039  0.1981 -0.1705  0.0215
18796SOL    HW156966   3.205   7.708   0.075 -0.0511 -0.3045  0.6643
18796SOL    HW256967   3.120   7.753  -0.042  0.5463  0.8238  0.6531
18797SOL     OW56968   2.592   0.187   1.248 -0.0002 -0.1938  0.1127
18797SOL    HW156969   2.502   0.163   1.226  0.5403 -2.5789  0.1740
18797SOL    HW256970   2.584   0.264   1.304 -2.0338 -0.6635  0.5325
18798SOL     OW56971   2.864   5.371   6.815  0.3337 -0.4737 -0.0390
18798SOL    HW156972   2.861   5.294   6.872  1.6953  0.5412  1.4903
18798SOL    HW256973   2.782   5.417   6.833 -0.0717 -1.0840 -0.2875
18799SOL     OW56974   5.481   9.251   1.161 -0.2168  0.4935  0.1173
18799SOL    HW156975   5.473   9.170   1.112 -0.7917  0.0370  0.9446
18799SOL    HW256976   5.417   9.310   1.121 -0.3988  0.2581  0.0611
18800SOL     OW56977   8.460   0.619   5.534  0.8215 -0.1271 -0.6640
18800SOL    HW156978   8.444   0.710   5.509 -0.3197  0.1037  0.7934
18800SOL    HW256979   8.539   0.623   5.589 -0.9635  0.5160  2.0329
18801SOL     OW56980   8.583   9.201   7.472 -0.1061 -0.1548 -0.5218
18801SOL    HW156981   8.507   9.253   7.445 -0.1864 -0.2618 -0.5047
18801SOL    HW256982   8.657   9.238   7.425  0.1327  1.0699  0.7641
18802SOL     OW56983   4.675   2.517   4.937 -0.0718  0.4525 -0.6999
18802SOL    HW156984   4.591   2.538   4.979  0.7115  0.5267  0.8740
18802SOL    HW256985   4.652   2.503   4.845 -1.6729  1.3721 -0.4845
18803SOL     OW56986   5.758   1.774   8.245  0.3656 -0.1247 -0.0248
18803SOL    HW156987   5.679   1.806   8.201  0.2404  0.9680  0.9654
18803SOL    HW256988   5.739   1.682   8.264 -0.5736  0.0701  0.0141
18804SOL     OW56989   0.982   6.110   6.493 -0.2182 -0.3679  0.4012
18804SOL    HW156990   1.017   6.087   6.579  0.4701  1.2700  0.6133
18804SOL    HW256991   1.059   6.122   6.437 -0.5912 -0.1808 -0.0914
18805SOL     OW56992   8.116   9.885   7.573 -0.2922 -0.5367  0.5345
18805SOL    HW156993   8.139   9.976   7.596  0.4121 -0.3361 -0.8258
18805SOL    HW256994   8.201   9.844   7.554 -0.7830 -0.6581 -1.6361
18806SOL     OW56995   9.830   6.753   3.846 -0.6520  0.1677 -0.4737
18806SOL    HW156996   9.822   6.812   3.921 -0.1345  0.0696 -0.3328
18806SOL    HW256997   9.904   6.788   3.796  0.0395 -0.6767 -0.0814
18807SOL     OW56998   9.560   3.323   9.523 -0.0950  0.2948  0.3161
18807SOL    HW156999   9.526   3.249   9.474 -0.1774  0.3091  0.3520
18807SOL    HW257000   9.590   3.285   9.606  3.2970 -0.3641 -1.0368
18808SOL     OW57001   9.933   6.766   3.529 -0.2659  0.1796  0.4490
18808SOL    HW157002   9.957   6.674   3.543  0.7026  0.1615 -1.1146
18808SOL    HW257003   9.998   6.815   3.579 -0.6038  0.0534  1.0384
18809SOL     OW57004   1.940   8.696   9.167 -0.6033  0.9223  0.1896
18809SOL    HW157005   1.958   8.672   9.258  0.4886 -0.6961 -0.4027
18809SOL    HW257006   2.005   8.762   9.146 -0.3524  0.7334  0.3652
18810SOL     OW57007   7.685   6.372   6.345 -0.2498 -0.7215 -0.3734
18810SOL    HW157008   7.675   6.357   6.439 -1.2855 -0.7113 -0.4695
18810SOL    HW257009   7.639   6.298   6.305 -0.5723 -0.2528 -0.8696
18811SOL     OW57010   2.770   6.645   1.419  0.0931  0.4290  0.7228
18811SOL    HW157011   2.755   6.650   1.324 -2.6775 -2.1345  0.8662
18811SOL    HW257012   2.843   6.584   1.429 -0.2801 -0.1125  0.2308
18812SOL     OW57013   7.001   9.371   8.394 -0.3657  0.1737 -0.0177
18812SOL    HW157014   7.010   9.279   8.418 -0.3507  0.0744 -0.3955
18812SOL    HW257015   7.077   9.414   8.432 -0.7063  0.1438  0.7050
18813SOL     OW57016   9.707   6.195   0.946 -0.2547 -0.1393  0.3038
18813SOL    HW157017   9.665   6.250   1.012 -1.0260  2.6777 -2.2674
18813SOL    HW257018   9.800   6.200   0.965 -0.4844  0.3623  1.3613
18814SOL     OW57019   8.105   3.388   2.655  0.4686  0.4303 -0.2295
18814SOL    HW157020   8.171   3.355   2.716 -0.6597 -1.3004  0.0915
18814SOL    HW257021   8.089   3.316   2.595 -1.4234  0.6741 -0.0639
18815SOL     OW57022   9.319   5.773   5.708 -0.1796  0.0384  0.0480
18815SOL    HW157023   9.237   5.816   5.684  1.4707  3.2024 -0.5088
18815SOL    HW257024   9.340   5.808   5.794  1.7795  1.3652 -0.8928
18816SOL     OW57025   0.340   5.359   8.939  0.3790  0.7305  0.0406
18816SOL    HW157026   0.254   5.335   8.975 -0.3801  0.0531 -2.0152
18816SOL    HW257027   0.387   5.398   9.012 -1.2574  0.0567  1.5408
18817SOL     OW57028   9.271   9.880   9.460  0.2202 -0.3489  0.2279
18817SOL    HW157029   9.266   9.790   9.494  1.8538 -0.0680  1.3395
18817SOL    HW257030   9.313   9.929   9.530 -1.1223  1.4337 -0.1572
18818SOL     OW57031   3.386   9.320   6.790 -0.8198 -0.1346 -0.1385
18818SOL    HW157032   3.344   9.253   6.736 -1.3118  1.6085 -2.0244
18818SOL    HW257033   3.314   9.377   6.817 -0.1493  0.8176 -0.3279
18819SOL     OW57034   9.495   4.501   8.780  0.0073 -0.0066  0.3069
18819SOL    HW157035   9.557   4.572   8.766 -0.5017  0.7198  1.4705
18819SOL    HW257036   9.422   4.520   8.721 -0.9472  1.5173  1.8848
18820SOL     OW57037   7.562   1.233   5.794  0.0320  0.3316 -0.0219
18820SOL    HW157038   7.518   1.148   5.782  0.3343  0.2646 -0.6848
18820SOL    HW257039   7.648   1.221   5.753 -0.1815  1.1714 -0.7356
18821SOL     OW57040   3.028   5.806   6.865  0.0876 -0.5204 -0.1106
18821SOL    HW157041   3.051   5.794   6.772  0.5602 -1.3571  0.1004
18821SOL    HW257042   3.024   5.717   6.900  0.1554 -0.2021  0.7270
18822SOL     OW57043   1.265   7.621   1.477  0.1179  0.1750  0.1329
18822SOL    HW157044   1.351   7.663   1.483 -0.6773  1.6116  2.7024
18822SOL    HW257045   1.217   7.674   1.415  0.7296 -0.0179 -0.5229
18823SOL     OW57046   9.873   2.415   4.822 -0.0075 -0.0716  0.4776
18823SOL    HW157047   9.912   2.330   4.842  0.5361  0.3239  1.1413
18823SOL    HW257048   9.879   2.464   4.903  0.3939  0.8762 -0.1032
18824SOL     OW57049   8.028   9.784   5.187  0.1120 -0.1876 -0.1762
18824SOL    HW157050   8.006   9.691   5.181 -0.8580  0.1142 -2.6957
18824SOL    HW257051   7.995   9.811   5.273  0.8773 -2.2408  0.8298
18825SOL     OW57052   5.488   1.294   3.053 -0.0189 -0.0622 -0.2137
18825SOL    HW157053   5.412   1.303   3.110 -1.3402 -2.3582 -1.4434
18825SOL    HW257054   5.492   1.376   3.005 -1.6101  0.2009  0.0501
18826SOL     OW57055   7.735   3.814   8.738 -0.0637 -0.4060  0.5045
18826SOL    HW157056   7.768   3.815   8.828  0.2737 -0.6965  0.3852
18826SOL    HW257057   7.729   3.906   8.715 -2.2624 -0.2283  1.5771
18827SOL     OW57058   1.610   2.854   0.151 -0.6038  0.2056  0.2742
18827SOL    HW157059   1.686   2.908   0.128  0.0693 -0.4760  0.8376
18827SOL    HW257060   1.534   2.905   0.123  0.0743  0.7063 -0.7098
18828SOL     OW57061   6.957   0.646   3.458 -0.3629 -0.1718 -0.0217
18828SOL    HW157062   6.953   0.565   3.510 -0.3747 -0.6038 -0.6828
18828SOL    HW257063   6.973   0.616   3.369  1.3540  0.6382 -0.0333
18829SOL     OW57064   8.720   0.446   8.871 -0.0167  0.1885  0.5361
18829SOL    HW157065   8.768   0.501   8.809  1.5323  0.5339  1.9947
18829SOL    HW257066   8.642   0.496   8.892  0.4417  0.9764  0.3977
18830SOL     OW57067   4.921   0.184   0.232 -0.2371 -0.4546  0.2828
18830SOL    HW157068   4.844   0.129   0.217 -0.2487 -0.2365 -0.5067
18830SOL    HW257069   4.888   0.273   0.228  0.1569 -0.3441 -0.7205
18831SOL     OW57070   3.137   2.870   3.161  0.0050  0.0727  0.4252
18831SOL    HW157071   3.048   2.860   3.127  0.0407  0.9885  0.0457
18831SOL    HW257072   3.170   2.780   3.168 -1.9245 -0.5572  3.2998
18832SOL     OW57073   8.706   6.967   7.206 -0.2325 -0.2145 -0.2600
18832SOL    HW157074   8.659   7.021   7.143 -0.4894 -0.9926 -0.7569
18832SOL    HW257075   8.790   6.948   7.164  0.5963  1.2451  0.6630
18833SOL     OW57076   8.246   6.871   3.743  0.2775  0.4557  0.1934
18833SOL    HW157077   8.255   6.945   3.803 -2.4998 -0.1599  1.5218
18833SOL    HW257078   8.197   6.907   3.669 -1.1363  0.0136  0.8713
18834SOL     OW57079   0.144   6.439   1.064  0.0448  0.0415  0.1062
18834SOL    HW157080   0.209   6.393   1.118 -1.8969 -1.7010  1.1085
18834SOL    HW257081   0.163   6.532   1.078  4.2687 -0.2164 -2.1411
18835SOL     OW57082   4.548   4.017   3.808 -0.1037  0.2357  0.1058
18835SOL    HW157083   4.600   4.098   3.815 -0.5821  0.5800 -0.2863
18835SOL    HW257084   4.521   3.998   3.898 -0.8851  1.1100  0.0729
18836SOL     OW57085   1.280   3.418   6.018  0.1544 -0.1643  0.0094
18836SOL    HW157086   1.356   3.461   5.981 -0.3899  1.4498  0.6902
18836SOL    HW257087   1.205   3.461   5.977 -0.4071 -0.2539  0.9149
18837SOL     OW57088   8.797   3.926   5.807  0.1902  0.2575  0.4847
18837SOL    HW157089   8.878   3.897   5.766  0.0235  0.7005 -0.1694
18837SOL    HW257090   8.750   3.845   5.826  0.7093  0.0042  0.7301
18838SOL     OW57091   9.957   9.224   2.456 -0.4015 -0.1314  0.7485
18838SOL    HW157092   9.952   9.265   2.369 -0.9426  0.7192  1.1570
18838SOL    HW257093   9.929   9.134   2.442 -0.3272 -0.0464  0.0119
18839SOL     OW57094   1.641   0.279   9.296 -0.3353 -0.0707  0.1609
18839SOL    HW157095   1.726   0.277   9.251  0.2743  0.7457  1.2322
18839SOL    HW257096   1.584   0.330   9.239 -0.0013 -0.2892 -0.3782
18840SOL     OW57097   8.992   9.398   0.768  0.5710 -0.2979  0.6626
18840SOL    HW157098   8.954   9.337   0.705 -1.2659 -0.0814  1.4939
18840SOL    HW257099   8.942   9.384   0.848 -0.4899  2.7905  0.6790
18841SOL     OW57100   9.312   2.001   5.238 -1.0108 -0.2806  0.4416
18841SOL    HW157101   9.307   2.061   5.313  1.5130  0.5367  0.0606
18841SOL    HW257102   9.368   2.047   5.175 -2.1154 -1.4542 -1.4795
18842SOL     OW57103   4.952   0.805   5.229 -0.1756 -0.1159  0.1135
18842SOL    HW157104   5.032   0.856   5.239 -0.0693 -0.0768 -0.8356
18842SOL    HW257105   4.931   0.775   5.318  0.0903  1.0602  0.5868
18843SOL     OW57106   3.321   0.806   4.985  0.0698 -0.0795  0.4346
18843SOL    HW157107   3.412   0.783   5.005 -0.0942 -1.3049 -0.1308
18843SOL    HW257108   3.286   0.728   4.941 -0.8904  0.8406 -0.4733
18844SOL     OW57109   8.300   7.510   3.023 -0.0538 -0.4577  0.7566
18844SOL    HW157110   8.294   7.590   3.074  3.1661  0.1400  0.4094
18844SOL    HW257111   8.345   7.448   3.080 -0.7142 -1.3671  0.3131
18845SOL     OW57112   9.964   6.839   9.648  0.2187 -0.1461  0.2430
18845SOL    HW157113   9.972   6.886   9.732  1.6402  2.3062 -1.1267
18845SOL    HW257114   9.966   6.747   9.672 -0.5353  0.4488  2.9814
18846SOL     OW57115   7.314   6.803   6.306  0.4681  0.4872 -0.1601
18846SOL    HW157116   7.223   6.779   6.288  0.8419 -0.6324 -0.6344
18846SOL    HW257117   7.350   6.726   6.351  0.9902  1.2036  0.6783
18847SOL     OW57118   6.840   1.555   4.934 -0.3233  0.0594  0.0945
18847SOL    HW157119   6.876   1.498   5.002 -2.1065 -1.0863  0.1439
18847SOL    HW257120   6.778   1.612   4.980 -0.9321 -0.1572 -0.4406
18848SOL     OW57121   3.689   8.585   5.819  0.3336  0.2570  0.1051
18848SOL    HW157122   3.758   8.520   5.834  0.2379 -0.3663 -1.8556
18848SOL    HW257123   3.620   8.560   5.880  0.7720 -0.7997  0.1984
18849SOL     OW57124   2.538   7.958   5.966 -0.3606  1.2511 -0.5322
18849SOL    HW157125   2.529   8.052   5.981  1.6360  1.1045  2.1795
18849SOL    HW257126   2.551   7.920   6.052 -0.2835 -1.4429 -1.6226
18850SOL     OW57127   3.417   4.919   4.444 -0.1934  0.6237  0.2917
18850SOL    HW157128   3.488   4.981   4.427 -1.0664  1.8403  0.9753
18850SOL    HW257129   3.359   4.927   4.369 -0.7338  1.2639  0.7671
18851SOL     OW57130   7.371   4.201   6.100  0.3260  0.2421 -0.3781
18851SOL    HW157131   7.375   4.139   6.172  0.8860 -1.0821 -1.5097
18851SOL    HW257132   7.287   4.246   6.111 -0.4586 -1.2738  0.0145
18852SOL     OW57133   1.842   6.192   1.392 -0.3142 -0.5542  0.0403
18852SOL    HW157134   1.847   6.281   1.425 -0.0726 -0.0727 -1.2207
18852SOL    HW257135   1.873   6.137   1.464 -1.8147  0.2234  1.3477
18853SOL     OW57136   7.533   6.336   1.993 -0.7462  0.1080  0.0088
18853SOL    HW157137   7.574   6.300   1.914  0.4374 -0.5320  0.8799
18853SOL    HW257138   7.515   6.427   1.971 -0.0844  0.0407 -0.8725
18854SOL     OW57139   1.919   9.158   9.412 -0.0879 -0.5150  0.1530
18854SOL    HW157140   1.944   9.135   9.322  0.7590 -1.8806  0.6982
18854SOL    HW257141   1.978   9.229   9.436 -0.4046 -0.0591 -0.4122
18855SOL     OW57142   5.614   0.681   8.416 -0.1020  0.1493  0.2232
18855SOL    HW157143   5.584   0.696   8.506 -1.1021 -1.5930  0.2158
18855SOL    HW257144   5.627   0.586   8.410  1.1787  0.3677 -1.1128
18856SOL     OW57145   3.839   9.288   7.664 -0.3066 -0.4085  0.2739
18856SOL    HW157146   3.878   9.204   7.640 -0.1822 -0.4104  0.4826
18856SOL    HW257147   3.910   9.336   7.707 -1.3866 -1.8035  4.0429
18857SOL     OW57148   1.639   8.642   9.398 -0.1000  0.0185  0.6360
18857SOL    HW157149   1.679   8.729   9.402  0.4475 -0.1928 -0.0147
18857SOL    HW257150   1.678   8.594   9.471 -1.7967  0.8605  2.1805
18858SOL     OW57151   0.276   3.905   7.761  0.5978 -0.7977  0.2488
18858SOL    HW157152   0.368   3.931   7.757  0.0265  1.3934 -0.1201
18858SOL    HW257153   0.228   3.981   7.728 -1.3678 -1.8392  0.5355
18859SOL     OW57154   1.222   2.481   7.222 -0.1684 -0.4667  0.2432
18859SOL    HW157155   1.221   2.481   7.318  2.0752  1.8933  0.3658
18859SOL    HW257156   1.163   2.552   7.197 -0.4289 -0.8072 -0.1417
18860SOL     OW57157   4.965   8.192   5.657  0.4110 -0.1461 -0.1689
18860SOL    HW157158   4.992   8.136   5.584  1.2148 -0.6942  0.5310
18860SOL    HW257159   4.939   8.274   5.616  1.2072 -0.3180 -1.0516
18861SOL     OW57160   2.533   2.969   5.800 -0.1809  0.1379  0.1700
18861SOL    HW157161   2.543   3.063   5.816 -0.2828  0.0018  1.1126
18861SOL    HW257162   2.438   2.956   5.794 -0.1352  0.2297 -0.8944
18862SOL     OW57163   2.501   1.962   6.828  0.3026  0.2881  0.3633
18862SOL    HW157164   2.503   2.031   6.895 -2.4446  0.0570  0.7949
18862SOL    HW257165   2.451   1.891   6.868 -1.2617  0.0483 -1.8197
18863SOL     OW57166   3.116   4.305   6.502  0.1861  0.1936 -0.0993
18863SOL    HW157167   3.164   4.226   6.478 -1.0396 -0.2925 -1.0542
18863SOL    HW257168   3.183   4.366   6.534  1.6543  0.0539 -2.6811
18864SOL     OW57169   6.752   9.799   7.665  0.4389 -0.4071 -0.2435
18864SOL    HW157170   6.786   9.710   7.669  0.3785 -0.5222 -1.5925
18864SOL    HW257171   6.802   9.841   7.594 -0.4330  0.2159 -0.5149
18865SOL     OW57172   2.272   2.624   1.728 -0.3122 -0.0870  0.1257
18865SOL    HW157173   2.222   2.606   1.808  0.8458 -0.1652  0.8714
18865SOL    HW257174   2.290   2.718   1.731 -2.3714  0.4045 -1.3545
18866SOL     OW57175   3.453   3.392   7.662 -0.4484  0.2157 -0.1960
18866SOL    HW157176   3.372   3.436   7.634  0.4646  1.3477 -1.2226
18866SOL    HW257177   3.522   3.437   7.612  0.6068 -2.1705 -1.0123
18867SOL     OW57178   1.773   9.541   2.829 -0.3493  0.4962  0.1961
18867SOL    HW157179   1.714   9.472   2.801 -0.8782  0.7557  0.6467
18867SOL    HW257180   1.778   9.531   2.924  1.5816 -0.5103  0.0364
18868SOL     OW57181   5.948   2.098   5.838  0.4814 -0.2911 -0.3556
18868SOL    HW157182   5.989   2.135   5.916 -0.3757  0.0537 -0.0646
18868SOL    HW257183   6.012   2.034   5.806  1.5577  0.7320 -0.3114
18869SOL     OW57184   4.183   1.993   2.429 -0.9170  0.2373  0.7906
18869SOL    HW157185   4.188   2.079   2.471 -0.6402  0.9326 -0.5831
18869SOL    HW257186   4.251   1.996   2.361 -1.9550 -0.4733 -0.3176
18870SOL     OW57187   4.540   3.338   7.838  0.1238  0.5697  0.0689
18870SOL    HW157188   4.482   3.382   7.775  1.1727  3.4099  0.9661
18870SOL    HW257189   4.627   3.371   7.817  1.3765 -2.7116 -0.4729
18871SOL     OW57190   5.202   0.296   5.146  0.7264 -0.4882  0.1577
18871SOL    HW157191   5.182   0.216   5.195 -0.9830 -0.4791 -0.4503
18871SOL    HW257192   5.118   0.342   5.141  0.3838 -1.2001 -4.0492
18872SOL     OW57193   9.819   2.000   6.937  0.0951 -0.4433 -0.3684
18872SOL    HW157194   9.813   1.963   7.026  0.2203  0.4393  0.0173
18872SOL    HW257195   9.810   2.094   6.950 -2.5113 -0.4414 -1.5464
18873SOL     OW57196   2.132   7.585   6.697 -0.8099  0.0937 -0.0890
18873SOL    HW157197   2.059   7.532   6.728 -1.3079  0.2988 -0.8752
18873SOL    HW257198   2.134   7.661   6.755 -1.6606  0.4230 -0.4733
18874SOL     OW57199   0.225   5.063   7.130  0.0688 -0.5158  0.4201
18874SOL    HW157200   0.185   5.009   7.198  1.6147 -0.4771  1.4012
18874SOL    HW257201   0.289   5.006   7.088  1.2571  0.3447  1.0261
18875SOL     OW57202   4.691   7.838   3.245 -0.4532  0.5041  0.7093
18875SOL    HW157203   4.609   7.859   3.200 -0.6478  0.0225  0.8317
18875SOL    HW257204   4.756   7.838   3.175 -0.7638 -0.2924  0.4141
18876SOL     OW57205   4.026   6.924   8.034  0.1796  0.0550 -0.3061
18876SOL    HW157206   4.099   6.972   8.075  0.9476 -0.5609 -0.9252
18876SOL    HW257207   3.978   6.991   7.985 -0.3446  0.6785  0.9941
18877SOL     OW57208   2.614   1.754   6.687  0.2925  0.3390  0.0908
18877SOL    HW157209   2.569   1.836   6.708  1.1214  0.8572 -0.1234
18877SOL    HW257210   2.589   1.734   6.597  0.2287  0.4441  0.0858
18878SOL     OW57211   2.554   0.361   1.958 -0.2183  0.0196 -0.7200
18878SOL    HW157212   2.624   0.327   1.903  0.5269 -0.6462  0.6017
18878SOL    HW257213   2.544   0.452   1.931  0.0805 -0.3081 -1.9783
18879SOL     OW57214   0.976   1.587   0.579 -0.0844  0.6998 -0.3546
18879SOL    HW157215   0.959   1.678   0.602 -0.3347  0.2241  1.5754
18879SOL    HW257216   0.907   1.564   0.517  1.5165  2.5106 -2.9622
18880SOL     OW57217   1.672   4.725   6.206 -0.4403 -0.2578  0.0371
18880SOL    HW157218   1.680   4.636   6.172 -2.4907 -1.2083  1.7622
18880SOL    HW257219   1.762   4.755   6.217  0.3033 -1.0750 -2.9583
18881SOL     OW57220   1.317   7.255   3.152 -0.2004  0.2494 -0.0498
18881SOL    HW157221   1.326   7.229   3.060  1.4922 -0.0997  0.1857
18881SOL    HW257222   1.231   7.221   3.178  0.2705 -1.6834 -0.8615
18882SOL     OW57223   2.156   9.225   1.649  0.4826  0.0285  0.1063
18882SOL    HW157224   2.192   9.141   1.620 -0.3655 -0.3593  0.1423
18882SOL    HW257225   2.216   9.254   1.718 -0.1325 -1.4113  1.3197
18883SOL     OW57226   0.357   6.014   3.980 -0.7629 -0.3915 -0.4073
18883SOL    HW157227   0.364   6.109   3.987 -0.2297 -0.4713  0.2689
18883SOL    HW257228   0.280   5.999   3.926 -1.7149  0.3917  0.7004
18884SOL     OW57229   1.677   8.688   0.806  0.1612  0.4828 -0.0803
18884SOL    HW157230   1.652   8.770   0.763  0.4584  0.3531 -0.5144
18884SOL    HW257231   1.674   8.623   0.736  1.6102  0.4453 -0.1316
18885SOL     OW57232   6.367   6.871   8.270 -0.6393 -0.0506  0.4925
18885SOL    HW157233   6.346   6.786   8.231  0.0687  0.3874 -0.9271
18885SOL    HW257234   6.436   6.906   8.214 -2.3142  2.3444 -0.2115
18886SOL     OW57235   7.808   8.472   1.610  0.1059 -0.2276  0.1068
18886SOL    HW157236   7.781   8.388   1.573 -0.5778  0.2194 -0.4390
18886SOL    HW257237   7.726   8.521   1.619  0.5016  0.3862  0.3925
18887SOL     OW57238   8.462   3.730   7.932  0.4491 -0.4995 -0.8124
18887SOL    HW157239   8.408   3.778   7.869 -0.4087 -1.2942 -0.6993
18887SOL    HW257240   8.446   3.773   8.016  1.6606  0.6186 -1.1158
18888SOL     OW57241   8.241   0.196   7.061  0.0343 -0.2913 -0.3436
18888SOL    HW157242   8.252   0.265   6.995  0.8635 -0.0807 -0.0030
18888SOL    HW257243   8.330   0.178   7.091 -0.3425 -0.2978  0.8064
18889SOL     OW57244   9.732   6.177   4.461  0.3821  0.2139  0.0934
18889SOL    HW157245   9.735   6.145   4.551 -0.5439 -0.2112 -0.0182
18889SOL    HW257246   9.781   6.111   4.411 -0.4421 -0.3842  0.0563
18890SOL     OW57247   7.439   9.373   8.463  0.4585 -0.6888  0.6703
18890SOL    HW157248   7.403   9.452   8.424  0.6766 -0.1419  1.5507
18890SOL    HW257249   7.395   9.366   8.548 -1.5763 -2.9865 -0.4227
18891SOL     OW57250   4.176   7.395   5.118  0.4439 -0.5713 -0.1346
18891SOL    HW157251   4.153   7.380   5.210 -0.9171 -1.0593 -0.5377
18891SOL    HW257252   4.271   7.408   5.119  0.5623 -1.3897  1.2398
18892SOL     OW57253   7.009   5.582   9.959 -0.0395 -0.6038 -0.4689
18892SOL    HW157254   7.035   5.530   9.883  0.8465  0.8711 -1.2262
18892SOL    HW257255   7.090   5.622   9.990 -0.4721 -0.7775  0.9468
18893SOL     OW57256   9.528   5.298   1.613 -0.3450  0.1989 -0.1264
18893SOL    HW157257   9.461   5.363   1.595 -1.5331 -0.3707  1.8989
18893SOL    HW257258   9.592   5.344   1.668 -0.4386  0.0561  0.1058
18894SOL     OW57259   0.147   7.398   7.132  0.2284  0.0222 -0.7579
18894SOL    HW157260   0.155   7.337   7.206  1.6917  1.7945  0.6733
18894SOL    HW257261   0.057   7.389   7.103  0.4102 -2.9002 -0.7507
18895SOL     OW57262   4.751   2.271   7.553  0.0353 -0.1071 -0.2731
18895SOL    HW157263   4.808   2.298   7.481  2.7416  0.8565  2.0537
18895SOL    HW257264   4.769   2.178   7.565 -0.7898 -0.3914 -1.0650
18896SOL     OW57265   8.323   0.386   2.561 -0.4811 -0.5265  0.0702
18896SOL    HW157266   8.371   0.419   2.486 -0.1731  1.3907  1.0333
18896SOL    HW257267   8.237   0.428   2.555 -1.0424 -1.6547 -0.0746
18897SOL     OW57268   1.191   9.841   7.057 -0.6303  0.3689  0.3605
18897SOL    HW157269   1.120   9.790   7.095  1.3297 -1.7189  1.4276
18897SOL    HW257270   1.259   9.777   7.036  0.9511  2.2571 -0.6700
18898SOL     OW57271   6.621   8.511   7.431 -0.2446  0.1710 -0.3955
18898SOL    HW157272   6.645   8.420   7.442  0.3794  0.4698  0.8447
18898SOL    HW257273   6.635   8.528   7.338  0.6421 -0.7136 -0.4363
18899SOL     OW57274   9.366   7.436   4.051  0.1326  0.5897 -0.0702
18899SOL    HW157275   9.396   7.466   4.137  1.3271 -0.6111 -0.0331
18899SOL    HW257276   9.447   7.424   4.000 -0.6069  3.1793 -2.0692
18900SOL     OW57277   0.221   3.893   9.800  0.5266  0.3671  0.1820
18900SOL    HW157278   0.229   3.972   9.853  1.4501  0.1513  0.3817
18900SOL    HW257279   0.278   3.908   9.725 -0.3577  0.4449 -0.5004
18901SOL     OW57280   4.658   1.965   9.046 -0.0491  0.1083  0.2147
18901SOL    HW157281   4.710   2.007   9.114 -0.1980  1.6562 -0.5894
18901SOL    HW257282   4.685   1.873   9.048  2.8097  0.8523 -0.2554
18902SOL     OW57283   1.834   0.380   6.422  0.4013 -0.4008  0.1909
18902SOL    HW157284   1.918   0.335   6.407  0.9857  1.0126 -1.0720
18902SOL    HW257285   1.858   0.469   6.446 -0.7542 -0.4802  1.8180
18903SOL     OW57286   3.301   5.765   6.256  0.4544 -0.5788  0.3996
18903SOL    HW157287   3.358   5.812   6.316 -1.1604 -0.5683  1.9967
18903SOL    HW257288   3.316   5.672   6.275 -0.5087 -0.5656  1.3018
18904SOL     OW57289   1.953   2.627   8.497 -0.0309  0.0700 -0.2008
18904SOL    HW157290   1.969   2.569   8.571 -0.0406 -0.0089 -0.2605
18904SOL    HW257291   1.901   2.575   8.436 -0.1148  0.1704 -0.2155
18905SOL     OW57292   9.457   3.549   0.700 -0.2137 -0.6922 -0.2398
18905SOL    HW157293   9.543   3.591   0.687 -0.2475 -0.7679 -0.7234
18905SOL    HW257294   9.426   3.531   0.611 -1.4655  0.8154 -0.1378
18906SOL     OW57295   2.210   0.905   9.102  0.0394 -0.0969  0.0283
18906SOL    HW157296   2.270   0.838   9.135  1.0499  0.2406 -1.0492
18906SOL    HW257297   2.145   0.857   9.051 -1.0312 -0.5310  1.7094
18907SOL     OW57298   3.991   8.111   4.318  0.2590 -0.7756 -0.0498
18907SOL    HW157299   4.008   8.068   4.402 -1.1733 -0.7676  0.2653
18907SOL    HW257300   3.990   8.204   4.338 -1.0950 -0.8081  0.1582
18908SOL     OW57301   1.843   1.213   3.152  0.2535 -0.1139  0.2492
18908SOL    HW157302   1.884   1.139   3.107  0.4408 -0.0125  0.2516
18908SOL    HW257303   1.867   1.289   3.099  1.9104  0.2403  1.4256
18909SOL     OW57304   8.431   6.028   9.525 -0.0750  0.3349 -0.4464
18909SOL    HW157305   8.518   6.064   9.540 -0.1157  0.2974 -0.0902
18909SOL    HW257306   8.425   6.014   9.431  0.7759 -0.8408 -0.3480
18910SOL     OW57307   5.371   7.646   8.217 -1.0493  0.3677  0.7168
18910SOL    HW157308   5.411   7.560   8.229  1.0321  1.4599  2.2024
18910SOL    HW257309   5.281   7.627   8.193 -0.4636 -2.2258  0.2551
18911SOL     OW57310   8.692   2.536   2.681 -0.1137 -0.0117 -0.2737
18911SOL    HW157311   8.636   2.506   2.753 -0.5494 -1.4995 -1.1825
18911SOL    HW257312   8.694   2.631   2.691  0.6276 -0.2227  2.2579
18912SOL     OW57313   5.181   9.250   1.857  0.1823  0.1692 -0.3903
18912SOL    HW157314   5.207   9.199   1.781 -1.5102 -0.9016 -0.2933
18912SOL    HW257315   5.160   9.186   1.924  1.9637  1.0914  1.1583
18913SOL     OW57316   3.492   9.163   6.312  0.3929 -0.1330  0.1808
18913SOL    HW157317   3.444   9.080   6.310  0.3767 -0.1208 -1.5730
18913SOL    HW257318   3.490   9.190   6.404 -1.9953 -0.7035  0.3612
18914SOL     OW57319   2.520   4.069   5.353  0.2912  0.6364  0.4732
18914SOL    HW157320   2.448   4.060   5.291  0.0091 -1.1678  0.9918
18914SOL    HW257321   2.506   4.154   5.395 -0.3672  1.2008 -0.8543
18915SOL     OW57322   3.010   6.187   9.225 -0.1883 -0.1497 -0.3258
18915SOL    HW157323   2.929   6.162   9.269  0.5742 -0.5417  0.9209
18915SOL    HW257324   3.065   6.109   9.232  1.5450  1.1409  1.9362
18916SOL     OW57325   5.404   3.221   6.452  0.0154 -0.2437 -0.4353
18916SOL    HW157326   5.458   3.143   6.464 -0.3943 -0.5018 -0.2387
18916SOL    HW257327   5.384   3.250   6.541 -1.5203 -1.0970 -0.4743
18917SOL     OW57328   6.266   6.943   0.718  0.1270 -0.4079  0.0653
18917SOL    HW157329   6.221   6.974   0.639  0.9261 -0.9086 -0.6135
18917SOL    HW257330   6.197   6.906   0.772 -0.2607 -1.4757 -1.1031
18918SOL     OW57331   8.978   8.040   2.759  0.2736 -0.0044 -0.2183
18918SOL    HW157332   8.994   8.111   2.696  0.1787 -0.0297 -0.2715
18918SOL    HW257333   8.940   7.970   2.706 -0.7196  0.3249  0.0316
18919SOL     OW57334   2.413   7.624   8.732 -0.1971 -0.9063 -0.4664
18919SOL    HW157335   2.488   7.568   8.752  0.9623  0.7930  0.2033
18919SOL    HW257336   2.339   7.581   8.775  0.6489 -1.8972  0.0566
18920SOL     OW57337   3.746   1.337   9.136 -0.4847 -0.1811 -0.2943
18920SOL    HW157338   3.780   1.391   9.065  0.2731  0.6375  0.6613
18920SOL    HW257339   3.825   1.300   9.177 -0.7280  1.1132  1.4657
18921SOL     OW57340   7.589   4.873   2.398 -0.1670 -0.3949  0.2801
18921SOL    HW157341   7.644   4.798   2.374 -0.0753 -0.3795  0.4441
18921SOL    HW257342   7.505   4.856   2.355  0.4895  0.4276 -1.4329
18922SOL     OW57343   4.033   7.232   6.987  0.0591 -0.1518  0.5354
18922SOL    HW157344   4.015   7.315   7.031  0.8357 -0.0667  0.7134
18922SOL    HW257345   4.078   7.257   6.907  0.6130 -0.4108  0.7582
18923SOL     OW57346   9.341   4.073   2.392 -0.2040 -0.1063  0.5104
18923SOL    HW157347   9.408   4.026   2.341  0.9226 -0.0230  1.8657
18923SOL    HW257348   9.322   4.015   2.465 -1.1555  0.1692  0.4846
18924SOL     OW57349   0.236   5.555   2.749  0.0742 -0.4386 -0.2037
18924SOL    HW157350   0.176   5.530   2.819 -0.0068  0.4827  0.0755
18924SOL    HW257351   0.230   5.651   2.746 -0.3251 -0.4855 -1.8305
18925SOL     OW57352   0.793   2.119   6.965 -0.4899  0.0342  0.5333
18925SOL    HW157353   0.745   2.067   7.030  1.0847 -1.0171  0.9015
18925SOL    HW257354   0.841   2.183   7.016  1.2439 -1.1857  0.5437
18926SOL     OW57355   7.495   0.185   3.043 -0.6802  0.3542 -0.2956
18926SOL    HW157356   7.510   0.227   3.128 -1.5814 -0.7893  0.4547
18926SOL    HW257357   7.557   0.112   3.040 -1.8099 -0.6592  0.1624
18927SOL     OW57358   4.355   6.607   8.842  0.0327  0.5509  0.0441
18927SOL    HW157359   4.333   6.537   8.904  0.4712 -3.0093 -3.4007
18927SOL    HW257360   4.446   6.630   8.864 -0.1693  0.2083  1.3418
18928SOL     OW57361   8.936   4.138   7.550 -0.2759 -0.0854 -0.1035
18928SOL    HW157362   9.002   4.121   7.616  0.2905  2.0633 -0.0309
18928SOL    HW257363   8.895   4.220   7.578 -0.4568  0.5394 -2.0419
18929SOL     OW57364   8.960   4.976   1.115 -0.0582 -0.9218  0.1463
18929SOL    HW157365   8.864   4.984   1.118  0.1170  2.6120  0.7672
18929SOL    HW257366   8.991   5.031   1.187  2.4550 -0.3359 -1.2583
18930SOL     OW57367   7.268   7.953   9.337 -0.3557 -0.5297 -0.3730
18930SOL    HW157368   7.251   7.910   9.253 -1.4819 -0.1684 -0.3455
18930SOL    HW257369   7.359   7.930   9.357 -0.6525 -2.1882 -0.7669
18931SOL     OW57370   7.636   1.889   3.387 -0.4954 -0.0483  0.3094
18931SOL    HW157371   7.594   1.953   3.328 -0.4921 -1.7824 -1.6866
18931SOL    HW257372   7.605   1.913   3.474 -1.4142  1.9544 -0.4998
18932SOL     OW57373   1.075   1.021   3.944 -0.0142 -0.2999  0.2396
18932SOL    HW157374   1.052   1.019   4.037 -2.0809  2.4574 -0.0732
18932SOL    HW257375   1.138   1.093   3.937  0.5937 -0.8873 -0.4173
18933SOL     OW57376   1.119   4.114   9.716  0.2775 -0.1315  0.0987
18933SOL    HW157377   1.097   4.195   9.761 -0.2203  0.3150 -0.9290
18933SOL    HW257378   1.157   4.141   9.633  0.7113 -0.9534  0.0091
18934SOL     OW57379   8.400   6.915   1.711 -0.6255  0.3737 -0.4342
18934SOL    HW157380   8.420   6.975   1.782 -0.5211 -0.4215  0.2326
18934SOL    HW257381   8.314   6.880   1.732  0.2102 -1.3266  0.3786
18935SOL     OW57382   2.330   6.340   6.088 -0.3006 -0.0580  0.1459
18935SOL    HW157383   2.385   6.358   6.165  0.8957  0.2938 -0.7499
18935SOL    HW257384   2.393   6.332   6.016 -1.4909  1.8509 -1.2047
18936SOL     OW57385   8.013   9.380   1.136 -0.2621  0.1671  0.0244
18936SOL    HW157386   8.020   9.468   1.099 -1.8690  0.2309 -0.1875
18936SOL    HW257387   7.962   9.392   1.217  1.9344 -0.1852  1.5495
18937SOL     OW57388   6.461   0.575   1.240  0.1553 -0.3583 -0.2833
18937SOL    HW157389   6.552   0.572   1.269 -0.4544  0.3359  1.8950
18937SOL    HW257390   6.411   0.537   1.312 -1.3547 -0.0530 -1.1101
18938SOL     OW57391   0.654   4.087   8.391  0.1380 -0.2025  0.6536
18938SOL    HW157392   0.583   4.144   8.360  1.7707  1.0138 -1.0691
18938SOL    HW257393   0.717   4.147   8.431  1.3916 -0.9117 -0.2060
18939SOL     OW57394   7.188   5.460   3.288 -0.4198  0.4784 -0.2653
18939SOL    HW157395   7.239   5.383   3.266 -1.8669 -0.4165 -0.6581
18939SOL    HW257396   7.253   5.527   3.309  0.8827 -0.6221 -0.6351
18940SOL     OW57397   6.033   4.114   1.237  0.0342  0.0792 -0.2241
18940SOL    HW157398   6.061   4.051   1.304  0.5011 -0.4423 -0.8992
18940SOL    HW257399   6.112   4.131   1.186  0.5787  3.1238  1.4075
18941SOL     OW57400   5.002   9.900   7.280 -0.8029 -0.3191 -0.1574
18941SOL    HW157401   4.915   9.926   7.310 -0.8095  0.6268 -0.9586
18941SOL    HW257402   5.023   9.962   7.211  0.8157 -0.0859  0.5082
18942SOL     OW57403   6.003   9.684   9.153 -0.3334 -0.3255 -0.1112
18942SOL    HW157404   6.029   9.608   9.101  0.0097  0.3003 -0.8692
18942SOL    HW257405   6.036   9.759   9.104 -0.2021  0.2896  0.9019
18943SOL     OW57406   5.269   0.294   2.076  0.3340  0.0780  0.7156
18943SOL    HW157407   5.218   0.367   2.041  0.4602 -0.0379  0.2852
18943SOL    HW257408   5.261   0.303   2.171  2.8044  2.4837  0.8559
18944SOL     OW57409   6.690   5.486   7.755 -0.1568  0.0748 -0.1262
18944SOL    HW157410   6.667   5.393   7.755 -0.4240  0.1295 -1.0582
18944SOL    HW257411   6.609   5.531   7.779 -0.0236  0.0711  0.3411
18945SOL     OW57412   7.731   2.956   3.693  0.1165 -0.4854 -0.1424
18945SOL    HW157413   7.699   2.984   3.779 -1.0549  1.0183 -1.0134
18945SOL    HW257414   7.660   2.902   3.658  0.4232 -0.7731 -0.3276
18946SOL     OW57415   9.677   9.868   0.123 -0.6483  0.2588 -0.0127
18946SOL    HW157416   9.692   9.962   0.139  0.2300  0.0050  0.7146
18946SOL    HW257417   9.583   9.861   0.111 -0.8618  1.0707  1.0672
18947SOL     OW57418   1.501   2.014   1.398 -0.4041 -0.2857  0.4031
18947SOL    HW157419   1.506   2.079   1.469  2.5587 -0.7997  0.8266
18947SOL    HW257420   1.534   2.061   1.321  0.9896 -1.0011  0.5317
18948SOL     OW57421   9.762   7.030   2.845 -0.2189 -0.2572  0.0070
18948SOL    HW157422   9.727   6.956   2.795 -0.3029 -0.0923 -0.1767
18948SOL    HW257423   9.692   7.094   2.844 -0.0998 -0.1268  0.0669
18949SOL     OW57424   2.831   0.524   3.274  0.5840  0.6169 -0.3157
18949SOL    HW157425   2.843   0.575   3.194 -1.8610  1.8449 -0.0003
18949SOL    HW257426   2.767   0.456   3.251  0.8401  0.1682  0.2555
18950SOL     OW57427   2.942   9.359   5.246 -0.0902  0.1501  0.2420
18950SOL    HW157428   2.849   9.345   5.233 -0.4965 -0.1293  2.8350
18950SOL    HW257429   2.955   9.453   5.231  0.3131 -0.4253 -5.0234
18951SOL     OW57430   6.603   5.322   0.199  0.1818  1.0964 -0.1865
18951SOL    HW157431   6.584   5.328   0.293 -0.8779 -2.9533  0.0608
18951SOL    HW257432   6.519   5.297   0.160  1.6448 -2.6657 -1.3061
18952SOL     OW57433   5.441   6.188   3.769 -0.0350 -0.3155  0.8369
18952SOL    HW157434   5.468   6.274   3.736  3.0158 -0.7294  1.9558
18952SOL    HW257435   5.430   6.202   3.863  0.0061 -1.0253  0.9476
18953SOL     OW57436   7.106   9.329   6.518 -0.0997  0.7903 -0.7014
18953SOL    HW157437   7.069   9.265   6.579  0.8332 -0.5325 -1.4775
18953SOL    HW257438   7.193   9.348   6.553 -0.9228  2.8576  0.3692
18954SOL     OW57439   9.703   1.856   0.361  0.1858  0.3275  0.5802
18954SOL    HW157440   9.655   1.861   0.279  0.7305 -1.2237  0.1428
18954SOL    HW257441   9.745   1.942   0.370  0.4009  0.3906 -0.9250
18955SOL     OW57442   0.355   9.772   2.797 -0.7383 -0.1146 -0.0070
18955SOL    HW157443   0.326   9.790   2.887  0.0113 -0.2233  0.2596
18955SOL    HW257444   0.349   9.857   2.753 -2.6784 -0.3639 -0.3248
18956SOL     OW57445   7.113   1.018   6.695  0.3258  0.1095  0.2683
18956SOL    HW157446   7.088   0.926   6.704  3.3486 -0.7715  0.7849
18956SOL    HW257447   7.087   1.058   6.778  1.3075 -0.9376  1.1211
18957SOL     OW57448   8.249   7.026   4.574 -0.3298 -0.2309 -0.0090
18957SOL    HW157449   8.228   6.942   4.614  0.5504  0.1654  1.3593
18957SOL    HW257450   8.183   7.037   4.505 -1.2251 -1.4423  0.6115
18958SOL     OW57451   8.657   2.675   5.359  0.5835  0.3734 -0.1379
18958SOL    HW157452   8.604   2.755   5.363 -0.6595 -0.4573  3.3070
18958SOL    HW257453   8.593   2.604   5.366  1.9354 -0.7580  1.3889
18959SOL     OW57454   9.032   4.428   3.419  0.0550 -0.1689  0.4333
18959SOL    HW157455   9.120   4.395   3.401  0.1537 -0.4386  1.3985
18959SOL    HW257456   8.993   4.437   3.332  1.3007  0.7380 -0.0744
18960SOL     OW57457   0.021   6.151   6.222  0.0279  0.0783  0.1830
18960SOL    HW157458   0.003   6.065   6.261  0.6766 -0.4019 -0.5667
18960SOL    HW257459   0.028   6.134   6.128  1.5107  0.7207  0.1605
18961SOL     OW57460   4.961   1.925   6.476  0.2951 -0.2965 -0.6137
18961SOL    HW157461   5.047   1.941   6.436  0.5597 -1.0398 -0.3504
18961SOL    HW257462   4.911   1.880   6.408 -0.1354  0.7472 -1.0174
18962SOL     OW57463   4.814   0.752   8.821 -0.0150 -0.4274 -0.3162
18962SOL    HW157464   4.760   0.684   8.862 -4.2536  1.9947 -1.2568
18962SOL    HW257465   4.832   0.814   8.892 -0.1521 -0.2870 -0.4036
18963SOL     OW57466   7.920   9.487   1.384 -0.2719 -0.8418 -0.5149
18963SOL    HW157467   7.852   9.470   1.319  0.1386  1.2105 -1.5813
18963SOL    HW257468   7.875   9.535   1.454 -0.6019 -2.5831  0.5231
18964SOL     OW57469   2.465   6.737   2.180 -0.0376  0.0686  0.2412
18964SOL    HW157470   2.447   6.665   2.240 -0.7855  1.0877  1.2791
18964SOL    HW257471   2.558   6.756   2.191  0.0387 -0.3724  0.3575
18965SOL     OW57472   9.755   1.484   5.043 -0.4345 -0.0692  0.2462
18965SOL    HW157473   9.785   1.488   4.952 -3.0618  1.3601 -0.6700
18965SOL    HW257474   9.788   1.564   5.083  2.1465 -1.4711  1.1492
18966SOL     OW57475   6.762   8.544   1.577 -0.0072 -0.4537 -0.3789
18966SOL    HW157476   6.771   8.557   1.671 -1.1290 -2.3074  0.0511
18966SOL    HW257477   6.672   8.514   1.566 -0.4540  1.3102 -2.2816
18967SOL     OW57478   7.594   4.968   6.455 -0.1516 -0.3828 -0.0767
18967SOL    HW157479   7.648   4.941   6.381 -1.0338 -2.2346 -0.1103
18967SOL    HW257480   7.646   5.035   6.499  0.7032  0.2766 -1.9512
18968SOL     OW57481   0.872   4.576   0.413 -0.1692  0.4010  0.4111
18968SOL    HW157482   0.869   4.487   0.446 -0.7174 -0.0636 -0.8219
18968SOL    HW257483   0.785   4.612   0.433 -0.0619  0.5484  0.6143
18969SOL     OW57484   7.179   3.602   5.030  0.4922  0.2099 -0.2889
18969SOL    HW157485   7.228   3.585   5.111 -0.3770  1.2065  0.4551
18969SOL    HW257486   7.238   3.657   4.978  1.2862 -0.8933 -0.6091
18970SOL     OW57487   5.477   4.992   6.847  0.2036 -0.3812  0.4837
18970SOL    HW157488   5.528   4.966   6.771  1.3535 -1.3285  1.5386
18970SOL    HW257489   5.386   4.989   6.817  0.5883 -1.4312 -0.6533
18971SOL     OW57490   6.811   4.226   3.696 -0.0018  0.3618  0.0690
18971SOL    HW157491   6.718   4.213   3.676  0.4146  1.2300 -2.7979
18971SOL    HW257492   6.833   4.152   3.753 -1.9765 -1.0518 -0.8668
18972SOL     OW57493   1.120   2.354   7.767  0.0612 -0.0744 -0.0825
18972SOL    HW157494   1.206   2.317   7.788  0.4271  1.0566  0.5274
18972SOL    HW257495   1.131   2.388   7.678 -0.0365 -0.7393 -0.3485
18973SOL     OW57496   8.263   3.998   2.480  0.0855 -0.0360  0.3038
18973SOL    HW157497   8.298   3.909   2.477 -1.3930 -0.6161 -2.8289
18973SOL    HW257498   8.336   4.053   2.451  0.3885 -0.4185  0.3268
18974SOL     OW57499   1.210   4.450   1.219 -0.2156  0.5449 -0.5573
18974SOL    HW157500   1.197   4.539   1.252  1.0866  0.9366 -1.0454
18974SOL    HW257501   1.234   4.462   1.127  1.0348 -0.2385 -0.3511
18975SOL     OW57502   1.186   2.940   4.848  0.2864 -0.3185  0.1462
18975SOL    HW157503   1.163   3.003   4.779 -0.8595 -0.3324  0.4985
18975SOL    HW257504   1.282   2.938   4.847  0.3195  0.6974 -0.5334
18976SOL     OW57505   7.933   4.025   1.429 -0.2456  0.4679  0.0103
18976SOL    HW157506   7.929   4.017   1.333  0.5619 -1.8961  0.1118
18976SOL    HW257507   8.014   4.073   1.445  0.8631 -1.1371 -0.4896
18977SOL     OW57508   3.724   2.864   7.898  0.7334  0.2919  0.3047
18977SOL    HW157509   3.749   2.785   7.946 -0.9105 -0.0446  0.6697
18977SOL    HW257510   3.698   2.926   7.965 -1.3411 -0.0908 -0.0810
18978SOL     OW57511   3.646   3.249   6.296  0.1630 -0.0816  0.0456
18978SOL    HW157512   3.637   3.271   6.389 -2.9919  0.3871 -0.2667
18978SOL    HW257513   3.610   3.160   6.289 -0.2594  0.1461 -0.8000
18979SOL     OW57514   8.403   4.963   1.973  0.2335  0.4645  0.2243
18979SOL    HW157515   8.482   4.964   1.919 -0.4145 -1.0672 -0.8274
18979SOL    HW257516   8.331   4.977   1.912 -0.3614  1.3354  1.0970
18980SOL     OW57517   6.687   2.528   5.038  0.3620 -0.2625 -0.3343
18980SOL    HW157518   6.612   2.493   4.991 -0.1782  0.2667  0.1230
18980SOL    HW257519   6.706   2.612   4.995 -0.0126  0.1317  0.2525
18981SOL     OW57520   2.861   7.035   5.597 -0.3310 -0.3173 -0.6318
18981SOL    HW157521   2.892   6.968   5.536 -0.4069  0.7698 -1.9136
18981SOL    HW257522   2.940   7.066   5.641  0.0535  0.4070 -1.7820
18982SOL     OW57523   6.513   0.880   2.767  0.2781 -0.3168  0.0805
18982SOL    HW157524   6.436   0.932   2.789  0.6468 -0.2091  1.1687
18982SOL    HW257525   6.497   0.849   2.678  0.1533  1.8622 -0.7175
18983SOL     OW57526   5.288   4.406   2.878  0.6771  0.2225 -0.1029
18983SOL    HW157527   5.212   4.436   2.828  0.6814  0.5430  0.0830
18983SOL    HW257528   5.359   4.405   2.814  0.3976 -0.6345 -0.4194
18984SOL     OW57529   3.293   0.467   1.765  0.0611  0.0025 -0.0142
18984SOL    HW157530   3.370   0.524   1.754  1.4886 -2.0025 -0.8922
18984SOL    HW257531   3.306   0.397   1.702 -1.1392 -1.8306  1.6664
18985SOL     OW57532   0.055   2.736   8.931 -0.3598 -0.6671 -0.1506
18985SOL    HW157533   0.046   2.689   8.849  3.3908  0.5934 -1.4748
18985SOL    HW257534   0.031   2.826   8.910 -0.5187 -0.5519  0.4833
18986SOL     OW57535   8.044   7.154   7.457  0.2938  0.1460  0.3457
18986SOL    HW157536   8.014   7.130   7.369 -0.7258  0.5702  0.5727
18986SOL    HW257537   8.140   7.144   7.452  0.2002 -0.4964 -0.6063
18987SOL     OW57538   4.061   5.115   6.985 -0.0651 -0.1604  0.8826
18987SOL    HW157539   4.104   5.174   7.048 -0.5537  0.4541  0.6505
18987SOL    HW257540   4.111   5.126   6.904 -0.7037  0.6432  0.5792
18988SOL     OW57541   5.877   7.998   7.532  0.0949 -0.1837  0.4821
18988SOL    HW157542   5.804   8.023   7.476 -0.7452  0.6218  1.8807
18988SOL    HW257543   5.909   7.916   7.494  0.7673  1.2225 -2.2422
18989SOL     OW57544   1.259   4.951   1.003  0.0658  0.3187  0.2093
18989SOL    HW157545   1.184   5.011   1.001  0.7467  1.1788  0.0035
18989SOL    HW257546   1.333   5.006   1.028  0.6136 -0.5514  0.5529
18990SOL     OW57547   7.802   1.906   4.403 -0.4405 -0.4460 -0.3825
18990SOL    HW157548   7.782   1.978   4.344  2.1712 -1.1841 -2.3530
18990SOL    HW257549   7.804   1.828   4.348 -1.0644 -1.7099  1.2913
18991SOL     OW57550   8.488   2.122   4.083 -0.3162  0.9662  0.5506
18991SOL    HW157551   8.399   2.090   4.077  0.2704 -0.7759  0.6138
18991SOL    HW257552   8.513   2.109   4.174  1.5169 -3.1160 -0.3258
18992SOL     OW57553   3.285   0.022   9.796  0.2010 -0.0706 -0.1907
18992SOL    HW157554   3.261   0.063   9.714  0.1689 -2.2364 -1.3304
18992SOL    HW257555   3.211  -0.034   9.819 -1.3304  2.9422  3.1786
18993SOL     OW57556   1.400   7.733   4.322 -0.1661 -0.0850 -0.6336
18993SOL    HW157557   1.490   7.729   4.292  0.4516 -0.7563  1.1829
18993SOL    HW257558   1.404   7.707   4.414 -2.1393  0.3894 -0.3665
18994SOL     OW57559   6.184   0.095   0.615 -0.3155  0.1398  0.3109
18994SOL    HW157560   6.197   0.105   0.710  1.5439 -1.5160  0.2855
18994SOL    HW257561   6.222   0.010   0.594 -2.2196 -0.3141 -1.6867
18995SOL     OW57562   0.603   5.509   9.642  0.1132 -0.0889  0.2427
18995SOL    HW157563   0.677   5.558   9.606 -0.3285  1.8670  1.8433
18995SOL    HW257564   0.561   5.469   9.565  0.7507  1.7019 -1.0932
18996SOL     OW57565   8.070   1.346   1.472  0.4787 -0.2781  0.0381
18996SOL    HW157566   8.137   1.278   1.473  1.1512  0.3738  0.3459
18996SOL    HW257567   8.109   1.418   1.422 -0.5888 -0.4697 -1.1249
18997SOL     OW57568   9.184   2.406   6.201 -0.1558  0.1990  0.1462
18997SOL    HW157569   9.205   2.451   6.120  0.6218  1.1346  0.8455
18997SOL    HW257570   9.260   2.350   6.218  0.0863  0.6864  0.6913
18998SOL     OW57571   5.036   9.481   4.237  0.0448 -0.4400  0.8091
18998SOL    HW157572   5.039   9.577   4.236 -2.2450 -0.3002  1.2672
18998SOL    HW257573   5.112   9.455   4.288  0.0716  1.2039  1.6758
18999SOL     OW57574   6.126   4.555   5.362 -0.4551 -0.5868 -0.1226
18999SOL    HW157575   6.081   4.481   5.401 -1.2867  0.0411  0.1544
18999SOL    HW257576   6.158   4.606   5.436 -1.7101  0.4107 -0.2166
19000SOL     OW57577   5.201   8.248   9.400 -0.4337 -0.1023 -0.0586
19000SOL    HW157578   5.168   8.167   9.361 -0.2292 -0.1205 -0.1962
19000SOL    HW257579   5.249   8.291   9.329 -1.3986  0.6317 -0.2868
19001SOL     OW57580   4.362   4.886   6.655  0.3083 -0.0656 -0.3884
19001SOL    HW157581   4.387   4.890   6.747  0.3087  0.2720 -0.4022
19001SOL    HW257582   4.433   4.838   6.613 -1.0075 -2.8086  0.2350
19002SOL     OW57583   6.644   9.062   1.962  0.2636  0.3936  0.4944
19002SOL    HW157584   6.719   9.055   1.904 -1.1320 -1.1680 -1.2568
19002SOL    HW257585   6.603   9.145   1.940  2.3707  2.2122  2.7759
19003SOL     OW57586   2.378   4.605   6.818  0.7207  0.2457 -0.0604
19003SOL    HW157587   2.405   4.539   6.754  1.7406  0.5461  0.0457
19003SOL    HW257588   2.459   4.650   6.841 -0.1597  2.8139 -1.5397
19004SOL     OW57589   0.732   4.942   2.658 -0.0138 -0.7597  0.1312
19004SOL    HW157590   0.731   4.927   2.752 -0.6293 -2.2103 -0.0773
19004SOL    HW257591   0.817   4.984   2.641 -0.2081  0.2045  1.4001
19005SOL     OW57592   8.056   0.846   6.919  0.6199 -0.0992 -0.3763
19005SOL    HW157593   8.019   0.880   7.000 -0.5282 -0.9659 -0.5048
19005SOL    HW257594   8.003   0.885   6.850  0.7788 -0.3316 -0.6349
19006SOL     OW57595   5.875   3.597   6.037 -0.0429  0.0141  0.0551
19006SOL    HW157596   5.910   3.512   6.011 -0.1645  0.1192 -0.4659
19006SOL    HW257597   5.840   3.634   5.956  1.7579  1.4122 -0.1316
19007SOL     OW57598   3.644   7.064   8.808  0.9732 -0.3311  0.4096
19007SOL    HW157599   3.616   7.125   8.740 -0.1054 -0.2015  0.9417
19007SOL    HW257600   3.684   6.991   8.761 -0.5617 -0.6637 -0.4163
19008SOL     OW57601   9.771   5.767   8.655  0.0453  0.2468 -0.6169
19008SOL    HW157602   9.730   5.766   8.742 -1.2610  0.1403 -1.2121
19008SOL    HW257603   9.865   5.772   8.673 -0.2214  0.7013  0.7975
19009SOL     OW57604   9.242   8.533   3.725 -0.0840  0.1062  0.1079
19009SOL    HW157605   9.277   8.497   3.644 -1.8067 -1.3364 -0.0693
19009SOL    HW257606   9.318   8.550   3.780  1.0077 -0.4166 -1.2165
19010SOL     OW57607   9.083   5.907   4.897 -0.1839  0.0074 -0.7489
19010SOL    HW157608   9.077   5.914   4.992  2.0565  2.2355 -0.6746
19010SOL    HW257609   9.080   5.998   4.866 -2.8482 -0.7394 -3.0244
19011SOL     OW57610   9.847   2.781   6.389  0.0708  0.4937 -0.3966
19011SOL    HW157611   9.871   2.865   6.429  2.1912 -0.2811  0.0899
19011SOL    HW257612   9.770   2.753   6.439 -1.1406  2.4340 -1.0477
19012SOL     OW57613   0.685   4.010   0.942 -0.6432 -0.4389 -0.5238
19012SOL    HW157614   0.737   3.947   0.892 -0.5816 -0.1108 -0.8811
19012SOL    HW257615   0.595   3.991   0.918 -0.5372  0.8535 -2.1678
19013SOL     OW57616   1.309   3.728   0.650 -0.1309  0.4434 -0.3708
19013SOL    HW157617   1.373   3.663   0.619 -1.3737 -1.4073  0.7714
19013SOL    HW257618   1.327   3.737   0.744 -2.8687 -1.8724  0.5192
19014SOL     OW57619   7.257   9.885   6.528 -0.3156 -0.0662  0.0351
19014SOL    HW157620   7.344   9.918   6.551  0.0622 -0.8842 -0.2080
19014SOL    HW257621   7.226   9.839   6.606 -1.4278  1.9587  0.8783
19015SOL     OW57622   6.853   1.307   7.468 -0.2319  0.0947  0.5082
19015SOL    HW157623   6.827   1.226   7.425 -0.3865 -0.1495  1.0605
19015SOL    HW257624   6.817   1.376   7.412 -2.1902 -0.2363  1.3034
19016SOL     OW57625   8.631   7.914   4.887 -0.2917 -0.1807 -0.3563
19016SOL    HW157626   8.642   7.831   4.934  0.8592  0.7436  1.0893
19016SOL    HW257627   8.716   7.931   4.848 -0.0315  1.0785  0.6991
19017SOL     OW57628   2.117   0.484   0.098 -0.0896  0.9391 -0.3788
19017SOL    HW157629   2.069   0.442   0.027 -0.0381  0.7318 -0.2904
19017SOL    HW257630   2.071   0.567   0.112 -0.1244  0.9615 -0.6248
19018SOL     OW57631   6.517   6.823   5.100 -0.5580 -0.1437  0.7925
19018SOL    HW157632   6.469   6.864   5.028  1.0600 -3.0918 -2.2297
19018SOL    HW257633   6.580   6.890   5.128  0.9703  0.1505 -2.8662
19019SOL     OW57634   8.733   0.679   1.621  0.4485 -0.2611 -0.3369
19019SOL    HW157635   8.825   0.705   1.622  1.2245 -2.6985  2.3133
19019SOL    HW257636   8.724   0.624   1.543  1.5595 -0.9235 -0.0133
19020SOL     OW57637   0.881   9.168   2.238  0.7977  0.5155  0.0376
19020SOL    HW157638   0.799   9.210   2.212  1.2463  0.8818 -0.8499
19020SOL    HW257639   0.865   9.134   2.326 -0.8811 -0.9212 -0.7615
19021SOL     OW57640   7.485   7.381   1.308  0.2374  0.5976 -0.2973
19021SOL    HW157641   7.513   7.464   1.268  0.2932  1.7384  1.9429
19021SOL    HW257642   7.389   7.387   1.311  0.3214  1.8753  2.2682
19022SOL     OW57643   8.336   3.136   8.058  0.1206 -0.5781 -0.2141
19022SOL    HW157644   8.321   3.151   8.151 -0.8983 -0.0604 -0.4403
19022SOL    HW257645   8.429   3.151   8.046  0.2487 -0.5585  0.7043
19023SOL     OW57646   8.039   3.452   1.242 -0.4770  0.0593  0.1638
19023SOL    HW157647   8.130   3.468   1.217 -0.8002  1.5077 -0.1206
19023SOL    HW257648   8.046   3.404   1.325  0.5372  0.4628  0.3275
19024SOL     OW57649   4.041   1.064   7.135 -0.3257  0.0296 -0.6223
19024SOL    HW157650   4.101   0.990   7.127  1.3357  1.0436  1.4633
19024SOL    HW257651   4.094   1.140   7.114 -1.5422  0.7948 -1.0251
19025SOL     OW57652   5.452   1.423   1.207 -0.4973  0.4104 -0.4669
19025SOL    HW157653   5.514   1.494   1.192  0.2153 -0.3914 -1.4053
19025SOL    HW257654   5.385   1.461   1.265  0.2141  1.6373 -0.4311
19026SOL     OW57655   6.261   0.308   9.722 -0.4657 -0.1829  0.5860
19026SOL    HW157656   6.219   0.351   9.647 -1.3000 -0.8982  0.6227
19026SOL    HW257657   6.249   0.369   9.794  0.3182  0.5013  0.1476
19027SOL     OW57658   2.330   7.037   9.037 -0.1274 -0.0958 -0.0891
19027SOL    HW157659   2.409   7.034   9.090  1.0403 -2.2040 -1.8221
19027SOL    HW257660   2.269   6.979   9.082  0.8232 -1.7983 -0.9180
19028SOL     OW57661   3.696   6.161   9.131 -0.1097 -0.5095  0.3711
19028SOL    HW157662   3.662   6.094   9.073  0.8286 -1.3629  0.7779
19028SOL    HW257663   3.623   6.221   9.144 -0.9343 -1.3950 -0.0833
19029SOL     OW57664   9.061   4.773   2.698 -0.0285 -0.1431 -0.0388
19029SOL    HW157665   9.114   4.804   2.772  2.2043  0.5632 -1.8062
19029SOL    HW257666   8.990   4.838   2.691 -1.0585 -0.9263  2.1859
19030SOL     OW57667   3.543   7.843   0.336  0.2719  0.0282  0.1206
19030SOL    HW157668   3.619   7.899   0.321 -0.5450  1.2762  0.4551
19030SOL    HW257669   3.546   7.823   0.429  0.0361  0.3222  0.1927
19031SOL     OW57670   2.059   0.746   5.210 -0.6861 -0.7201 -0.2299
19031SOL    HW157671   2.117   0.766   5.283 -0.8341  0.4587 -0.4274
19031SOL    HW257672   2.117   0.739   5.134 -0.5739 -1.6070 -0.0779
19032SOL     OW57673   1.150   4.444   6.486  0.2379  0.3240 -0.3738
19032SOL    HW157674   1.173   4.351   6.477  0.8702  0.3330  0.8854
19032SOL    HW257675   1.055   4.445   6.480  0.3306 -0.0351 -3.1602
19033SOL     OW57676   1.625   7.718   9.655  0.2315  0.5943  0.6684
19033SOL    HW157677   1.611   7.812   9.645  1.3309  0.6458 -0.7718
19033SOL    HW257678   1.538   7.680   9.647 -0.1518  1.4417  0.6501
19034SOL     OW57679   5.257   7.592   3.600  0.6276 -0.5006 -0.4983
19034SOL    HW157680   5.290   7.544   3.523 -0.0236 -3.4790  0.9238
19034SOL    HW257681   5.328   7.586   3.664  0.7963  1.1482 -0.4798
19035SOL     OW57682   7.130   1.613   9.067  0.7134  0.2739  0.3867
19035SOL    HW157683   7.184   1.599   8.990  0.5244  0.0207  0.2974
19035SOL    HW257684   7.069   1.682   9.042 -1.2736 -1.7702 -0.7151
19036SOL     OW57685   2.044   2.404   5.956 -0.2050 -0.5899 -0.7040
19036SOL    HW157686   1.955   2.412   5.990  0.1882 -1.8654  0.7491
19036SOL    HW257687   2.041   2.445   5.870 -1.8240  0.7215 -0.0700
19037SOL     OW57688   3.346   8.064   6.987 -0.5933 -0.2001 -0.0807
19037SOL    HW157689   3.382   8.127   7.050 -0.1221 -1.0462  0.5228
19037SOL    HW257690   3.312   7.993   7.042 -0.0670 -1.0126 -0.7848
19038SOL     OW57691   0.063   9.418   1.935 -0.0816  0.1115  0.2582
19038SOL    HW157692   0.142   9.465   1.962 -0.9944  1.3904  0.8047
19038SOL    HW257693   0.068   9.417   1.839 -0.9331  3.1131  0.0709
19039SOL     OW57694   0.375   3.584   1.926  0.3326  0.3400  0.5941
19039SOL    HW157695   0.322   3.556   1.851 -1.2300  1.9357  1.0375
19039SOL    HW257696   0.421   3.661   1.895  1.0873 -0.0379  0.7519
19040SOL     OW57697   5.853   0.048   8.204 -0.2212  0.2994 -0.1880
19040SOL    HW157698   5.885   0.136   8.183 -1.1918  0.8007  0.3912
19040SOL    HW257699   5.824   0.055   8.295  1.4719 -1.1309  0.5303
19041SOL     OW57700   4.653   2.038   5.587 -0.1470 -0.3837 -0.3883
19041SOL    HW157701   4.601   2.068   5.512 -1.3470  0.4057  0.7248
19041SOL    HW257702   4.725   2.101   5.593 -0.2415 -0.2460 -0.6594
19042SOL     OW57703   4.909   9.598   1.740  0.2167  0.2696  0.0967
19042SOL    HW157704   4.902   9.559   1.653  0.5964  0.1859  0.1035
19042SOL    HW257705   4.995   9.640   1.741  0.2370  0.2228  0.4508
19043SOL     OW57706   8.164   8.296   6.237  0.0282  0.1719  0.3736
19043SOL    HW157707   8.117   8.372   6.272  0.9413  1.0049 -0.1494
19043SOL    HW257708   8.157   8.230   6.306 -0.4879  0.8486  0.9881
19044SOL     OW57709   0.410   7.060   1.946  0.2508  0.7132 -0.8468
19044SOL    HW157710   0.476   6.995   1.969  0.4759  1.1095 -0.3769
19044SOL    HW257711   0.385   7.038   1.856  0.5468  0.1668 -0.7979
19045SOL     OW57712   2.773   0.229   2.989 -0.3133 -0.0576  0.2375
19045SOL    HW157713   2.732   0.279   3.060 -1.4720 -1.7264  0.8258
19045SOL    HW257714   2.860   0.266   2.981 -1.1268  2.0848  0.5607
19046SOL     OW57715   3.780   5.703   9.505  0.5753 -0.7846  0.0734
19046SOL    HW157716   3.845   5.729   9.570 -1.6111 -1.3626  2.6829
19046SOL    HW257717   3.814   5.621   9.469  2.4997  0.2516 -0.6332
19047SOL     OW57718   8.703   0.635   5.345  0.4121 -0.0870  0.4201
19047SOL    HW157719   8.747   0.676   5.420 -1.9719  1.5045  1.0964
19047SOL    HW257720   8.714   0.697   5.273  0.8493 -0.5696  0.0664
19048SOL     OW57721   1.198   3.710   9.833  0.4321  0.2950 -0.0512
19048SOL    HW157722   1.291   3.692   9.820  0.0541 -3.3123  1.1975
19048SOL    HW257723   1.154   3.659   9.765 -0.6885 -0.2001  1.0160
19049SOL     OW57724   9.983   5.158   4.148  0.3915  0.4697 -0.4678
19049SOL    HW157725   9.975   5.129   4.239 -1.0032 -1.0685 -1.0241
19049SOL    HW257726   9.905   5.123   4.105  0.7719  1.5914 -2.1535
19050SOL     OW57727   3.069   3.000   1.111 -0.2067 -0.1621  0.6841
19050SOL    HW157728   3.142   2.999   1.172  0.3107  1.1192  0.1345
19050SOL    HW257729   3.095   3.065   1.045 -1.1487 -0.8476 -0.3806
19051SOL     OW57730   4.287   8.098   2.477 -0.3271 -0.1534 -0.0756
19051SOL    HW157731   4.194   8.099   2.498 -1.1362 -3.6793 -2.5560
19051SOL    HW257732   4.298   8.165   2.411 -1.0503  0.3799  0.3309
19052SOL     OW57733   8.059   9.392   8.000 -0.0738  0.1706 -0.1414
19052SOL    HW157734   7.984   9.405   8.057 -0.1098 -1.0830  0.1232
19052SOL    HW257735   8.029   9.331   7.933 -0.3380  2.3630 -2.1598
19053SOL     OW57736   7.718   6.202   8.771  0.5647  0.4470  0.9764
19053SOL    HW157737   7.723   6.117   8.814  2.7583  0.4405  0.8037
19053SOL    HW257738   7.662   6.254   8.828 -1.6409 -1.3363  0.5786
19054SOL     OW57739   0.552   3.999   0.580 -0.1799 -0.0096 -0.5552
19054SOL    HW157740   0.641   3.979   0.553 -0.0889  0.6664 -0.7802
19054SOL    HW257741   0.549   3.978   0.673 -0.5754 -2.6505 -1.0850
19055SOL     OW57742   4.534   0.543   4.756 -0.1394  0.0214 -0.2305
19055SOL    HW157743   4.597   0.476   4.783  0.3996  1.0099  1.0751
19055SOL    HW257744   4.462   0.495   4.717 -0.0360 -1.3680  1.2131
19056SOL     OW57745   4.515   8.607   7.455 -0.1470 -0.1098  0.1498
19056SOL    HW157746   4.574   8.548   7.409 -1.1867  0.7425 -2.4673
19056SOL    HW257747   4.463   8.648   7.386 -0.8493  2.3628  1.9914
19057SOL     OW57748   5.428   2.625   8.863 -0.6616  0.1659 -0.1073
19057SOL    HW157749   5.462   2.710   8.890  0.8718 -0.3994 -0.1844
19057SOL    HW257750   5.397   2.585   8.944 -0.2226  0.2837  0.1216
19058SOL     OW57751   6.397   1.018   7.341  0.3834 -0.0564  0.0004
19058SOL    HW157752   6.415   1.102   7.299  0.0150  0.1891  0.3291
19058SOL    HW257753   6.482   0.973   7.344  0.5522  0.2426 -0.3043
19059SOL     OW57754   6.834   7.610   1.875  0.6364 -0.0266 -0.5706
19059SOL    HW157755   6.817   7.644   1.787  1.5131  1.8771 -0.0588
19059SOL    HW257756   6.840   7.688   1.930 -1.4546 -1.2299  1.5297
19060SOL     OW57757   0.701   1.726   4.093  0.5781 -0.5154 -0.1582
19060SOL    HW157758   0.619   1.676   4.097  0.2802 -0.1652 -1.4060
19060SOL    HW257759   0.752   1.693   4.166 -0.8266 -0.4663  0.8916
19061SOL     OW57760   1.183   1.134   2.356 -0.4039 -0.6369 -0.4435
19061SOL    HW157761   1.187   1.045   2.390  1.5070 -0.3966  0.0779
19061SOL    HW257762   1.258   1.141   2.297  0.6613  1.1756  1.0227
19062SOL     OW57763   9.702   4.698   8.096 -0.0277  0.1459  0.4928
19062SOL    HW157764   9.691   4.793   8.089  0.8444  0.1845 -1.0130
19062SOL    HW257765   9.794   4.684   8.073  0.2377 -0.9581  2.1283
19063SOL     OW57766   9.010   3.814   2.503 -0.1722 -0.3212 -0.2911
19063SOL    HW157767   8.979   3.873   2.435 -1.0599 -1.3171 -0.7811
19063SOL    HW257768   8.956   3.835   2.580  0.2788  0.2560 -0.1295
19064SOL     OW57769   2.274   0.358   1.949 -0.4244 -0.4073  0.0444
19064SOL    HW157770   2.230   0.275   1.934  0.2382 -0.6800 -0.4164
19064SOL    HW257771   2.366   0.335   1.962 -0.4384  0.1297  1.2744
19065SOL     OW57772   9.265   4.392   0.655 -0.1547  0.8896 -0.3334
19065SOL    HW157773   9.224   4.414   0.571 -0.0596 -1.5395 -1.1030
19065SOL    HW257774   9.350   4.436   0.653 -0.1791  0.9163 -1.4861
19066SOL     OW57775   0.017   7.011   0.428  0.5345 -0.2350 -0.2720
19066SOL    HW157776   0.028   7.022   0.522  2.2177  1.4166 -0.6228
19066SOL    HW257777  -0.040   7.083   0.401  1.0137  0.0022 -0.6750
19067SOL     OW57778   1.435   6.000   3.423  0.0891 -0.6481  0.3067
19067SOL    HW157779   1.508   5.991   3.362 -0.1677  1.5955 -0.4284
19067SOL    HW257780   1.398   5.912   3.429  0.9205 -1.2084 -1.7755
19068SOL     OW57781   1.177   5.122   9.007  0.5588  0.2997 -0.0067
19068SOL    HW157782   1.112   5.060   8.973  0.7621  0.4569 -0.7015
19068SOL    HW257783   1.220   5.075   9.078  0.0924 -0.0285  0.0599
19069SOL     OW57784   4.339   5.300   0.415 -0.1852 -0.0300 -0.0103
19069SOL    HW157785   4.362   5.335   0.329 -2.4106  0.6367 -0.4044
19069SOL    HW257786   4.357   5.371   0.476  0.5472 -0.1922 -0.0243
19070SOL     OW57787   5.919   0.831   3.767 -0.1080 -0.4977  0.0217
19070SOL    HW157788   6.008   0.846   3.735  0.4335 -2.8129  0.3228
19070SOL    HW257789   5.866   0.829   3.688  0.0292  1.1173 -0.1473
19071SOL     OW57790   1.349   6.326   5.034  0.2487  0.4028 -0.3684
19071SOL    HW157791   1.369   6.253   5.093  0.7241  0.5819 -0.3049
19071SOL    HW257792   1.255   6.339   5.043 -0.1055 -1.1402 -1.4475
19072SOL     OW57793   1.648   4.829   8.718 -0.0780  0.3467 -0.0520
19072SOL    HW157794   1.669   4.758   8.657 -2.1864  0.3783 -0.8992
19072SOL    HW257795   1.677   4.909   8.672 -0.1928  0.2388 -0.3172
19073SOL     OW57796   0.978   1.683   1.365 -0.0913 -0.4543  0.7407
19073SOL    HW157797   0.923   1.658   1.291  0.8462  0.0890 -0.1518
19073SOL    HW257798   1.040   1.746   1.330  0.5659 -0.4038  1.9248
19074SOL     OW57799   4.253   8.312   3.369 -0.3108  0.9243 -0.1804
19074SOL    HW157800   4.258   8.316   3.464  0.9702  0.0743 -0.1887
19074SOL    HW257801   4.330   8.261   3.343 -1.0278  0.5319 -1.6278
19075SOL     OW57802   7.922   6.377   6.185  0.9249 -0.2110  0.6235
19075SOL    HW157803   7.886   6.365   6.097  1.7591  1.0535  0.0765
19075SOL    HW257804   7.857   6.337   6.243  1.0285 -2.3017 -0.6252
19076SOL     OW57805   5.219   6.209   3.176  0.2505  0.1834 -0.4032
19076SOL    HW157806   5.263   6.165   3.103  2.2155  1.6276 -0.1517
19076SOL    HW257807   5.263   6.175   3.254  0.2687  0.9245 -0.0856
19077SOL     OW57808   9.145   6.170   4.843  0.2188 -0.4897  0.3030
19077SOL    HW157809   9.074   6.226   4.811  0.7399  0.0779  0.1131
19077SOL    HW257810   9.165   6.204   4.930 -0.1293 -1.0158  0.5891
19078SOL     OW57811   2.564   0.423   0.672 -0.5003 -0.5177 -0.7260
19078SOL    HW157812   2.478   0.456   0.697 -0.3673 -0.1491 -0.7601
19078SOL    HW257813   2.623   0.455   0.740  0.1385  1.7778 -2.2544
19079SOL     OW57814   4.467   7.993   4.931 -0.0287  0.5664  0.5252
19079SOL    HW157815   4.509   7.909   4.913  0.0757  0.8829 -0.8307
19079SOL    HW257816   4.496   8.017   5.019 -1.6083 -1.7263  1.7594
19080SOL     OW57817   0.069   0.056   8.890 -0.1703  0.0208  0.1020
19080SOL    HW157818   0.048   0.033   8.800 -1.3510  0.6739  0.1834
19080SOL    HW257819   0.127   0.132   8.883 -0.0596 -0.0843 -0.1173
19081SOL     OW57820   9.828   0.875   1.638 -0.8100 -0.0579 -0.7716
19081SOL    HW157821   9.735   0.863   1.616 -0.6811 -0.1119 -1.2987
19081SOL    HW257822   9.862   0.932   1.569 -1.0812  2.3112  0.9580
19082SOL     OW57823   5.539   4.971   4.851  0.1796  0.1990 -0.2805
19082SOL    HW157824   5.604   5.037   4.825  0.9753 -1.0390 -1.5813
19082SOL    HW257825   5.456   5.008   4.823  0.7571  0.0618 -2.3500
19083SOL     OW57826   6.329   6.962   0.144 -0.5336  0.2615 -0.4039
19083SOL    HW157827   6.324   6.867   0.135 -1.3351  0.1461  0.9127
19083SOL    HW257828   6.256   6.995   0.091  0.9076  0.3076 -2.4538
19084SOL     OW57829   9.665   1.337   5.879  0.1833  0.1498  0.6356
19084SOL    HW157830   9.701   1.296   5.957 -1.4814 -2.6908  0.0446
19084SOL    HW257831   9.740   1.353   5.822  0.9562 -2.0050  0.9811
19085SOL     OW57832   8.685   1.635   3.054  1.4778  0.3645  0.5338
19085SOL    HW157833   8.716   1.546   3.040 -2.1251 -0.9921  0.1056
19085SOL    HW257834   8.678   1.672   2.966  0.8475  0.1985  0.5031
19086SOL     OW57835   1.321   8.446   2.855  0.2855  0.1625 -0.5301
19086SOL    HW157836   1.259   8.375   2.870  0.5625 -0.5188 -2.3446
19086SOL    HW257837   1.393   8.405   2.806  0.4042  1.6702 -1.6992
19087SOL     OW57838   9.362   2.930   0.377 -0.7721 -0.2897 -0.1058
19087SOL    HW157839   9.424   3.001   0.395 -0.4997 -0.5076 -0.1813
19087SOL    HW257840   9.365   2.876   0.456 -0.5542 -0.5311 -0.2818
19088SOL     OW57841   6.553   7.293   7.632 -0.2865 -0.2497 -0.4868
19088SOL    HW157842   6.647   7.285   7.651 -0.8633 -3.5191  1.9009
19088SOL    HW257843   6.527   7.374   7.675  1.2054  0.0133 -0.0081
19089SOL     OW57844   6.786   4.285   4.287  0.4518  0.2322  0.0462
19089SOL    HW157845   6.878   4.282   4.260  0.5721 -1.8778  0.5603
19089SOL    HW257846   6.783   4.354   4.353  1.6571  0.3219  0.0386
19090SOL     OW57847   8.812   8.871   0.674 -0.1836  0.1370 -0.1376
19090SOL    HW157848   8.774   8.850   0.759 -0.8579 -0.6521 -0.6199
19090SOL    HW257849   8.773   8.955   0.651  1.7872  1.5715  1.3617
19091SOL     OW57850   5.615   8.978   0.645 -0.6828  0.2360 -0.4262
19091SOL    HW157851   5.627   8.908   0.581 -1.3743  1.7169 -2.2762
19091SOL    HW257852   5.522   8.998   0.641 -0.9903 -0.4316  1.9939
19092SOL     OW57853   9.229   4.953   3.195 -0.0606 -0.1390  0.3614
19092SOL    HW157854   9.316   4.947   3.234 -0.0235 -1.6466  0.1109
19092SOL    HW257855   9.245   4.978   3.104 -0.0596  1.9105  0.8877
19093SOL     OW57856   5.751   3.193   6.701 -0.2467  0.4042  0.0352
19093SOL    HW157857   5.661   3.201   6.668  0.0733 -0.2229 -1.0231
19093SOL    HW257858   5.803   3.244   6.639  0.4046 -1.0396 -0.6410
19094SOL     OW57859   3.154   5.173   7.192 -0.1886 -0.2744 -0.0034
19094SOL    HW157860   3.120   5.084   7.192  1.1978 -0.8179 -0.1493
19094SOL    HW257861   3.169   5.194   7.100 -1.6853  0.6046 -0.0883
19095SOL     OW57862   9.787   4.194   2.826 -0.2686  0.2215  0.6628
19095SOL    HW157863   9.754   4.186   2.736  0.3380  1.2709  0.3250
19095SOL    HW257864   9.723   4.250   2.871 -0.9763 -0.9229  1.1205
19096SOL     OW57865   7.745   7.774   1.518  0.8858 -0.0252 -0.2834
19096SOL    HW157866   7.701   7.844   1.469  1.0949  0.3858  0.1017
19096SOL    HW257867   7.838   7.791   1.504  0.9313 -0.5902 -0.6797
19097SOL     OW57868   6.535   8.781   2.322 -0.3138 -0.3485  0.2289
19097SOL    HW157869   6.579   8.699   2.346 -0.3187 -0.1685  0.8734
19097SOL    HW257870   6.560   8.842   2.391 -2.3487 -0.5106  1.1903
19098SOL     OW57871   0.104   9.937   5.122  0.1923  0.4189  0.7239
19098SOL    HW157872   0.107   9.850   5.083 -0.5908  0.8612 -0.3513
19098SOL    HW257873   0.134   9.924   5.212  0.9769 -0.7970  0.3007
19099SOL     OW57874   3.278   3.132   9.546 -0.5499 -0.0760  0.0368
19099SOL    HW157875   3.206   3.112   9.487  0.0629  0.8005 -1.0408
19099SOL    HW257876   3.357   3.104   9.500 -0.2373 -2.2977  1.7597
19100SOL     OW57877   4.676   4.527   3.425 -0.3195  0.4950 -0.4215
19100SOL    HW157878   4.619   4.451   3.414  0.6636 -0.6224  1.6350
19100SOL    HW257879   4.758   4.501   3.381 -0.2015  0.6131 -0.2720
19101SOL     OW57880   5.452   6.258   7.255  0.3500 -0.2064 -0.1831
19101SOL    HW157881   5.459   6.163   7.257  2.1051 -0.2110  3.6669
19101SOL    HW257882   5.528   6.287   7.203  0.3578 -0.8757 -0.5497
19102SOL     OW57883   8.143   8.610   7.656 -0.3404  0.7758 -0.2129
19102SOL    HW157884   8.092   8.576   7.582  0.4009  3.5799 -2.1972
19102SOL    HW257885   8.226   8.564   7.651 -0.7469  0.0403 -0.3372
19103SOL     OW57886   2.079   4.310   7.693  0.8474 -0.0936  0.2754
19103SOL    HW157887   1.997   4.277   7.730  1.1142  0.5284  1.4697
19103SOL    HW257888   2.147   4.259   7.736  1.1745  0.8090  0.8572
19104SOL     OW57889   5.994   4.368   7.879  0.0021 -0.1639 -0.0868
19104SOL    HW157890   6.020   4.455   7.908  1.7473 -0.9070  0.7170
19104SOL    HW257891   5.913   4.382   7.829  1.6678  2.2524 -2.3349
19105SOL     OW57892   6.497   5.715   7.760  0.0141  0.3987 -0.7139
19105SOL    HW157893   6.519   5.795   7.807 -0.8825  0.6465 -0.6936
19105SOL    HW257894   6.406   5.726   7.735 -0.3838 -0.9636  0.0022
19106SOL     OW57895   4.776   1.632   6.511  0.2593 -0.2454  0.1503
19106SOL    HW157896   4.803   1.682   6.588  1.5350  0.1183 -0.4953
19106SOL    HW257897   4.715   1.689   6.465  0.8408  0.2631  0.0017
19107SOL     OW57898   6.976   7.668   6.638  0.4431 -0.0635 -0.1112
19107SOL    HW157899   6.975   7.637   6.729 -1.4100  1.1135  0.3118
19107SOL    HW257900   6.925   7.602   6.590 -1.2199  0.8884  0.2990
19108SOL     OW57901   1.947   8.269   8.686  0.2581 -0.0225  0.2362
19108SOL    HW157902   1.993   8.344   8.649 -0.2425  1.0282  1.6484
19108SOL    HW257903   1.855   8.294   8.683  0.1682 -0.1246  1.6684
19109SOL     OW57904   6.338   5.269   0.158  0.0474  0.1305  0.5794
19109SOL    HW157905   6.349   5.249   0.065 -0.3251 -2.1831  0.9766
19109SOL    HW257906   6.244   5.282   0.168 -0.1706 -1.4445  0.8996
19110SOL     OW57907   6.062   2.912   2.467 -0.1452  0.0496  0.3018
19110SOL    HW157908   6.121   2.946   2.534 -0.2494  1.3693 -0.2480
19110SOL    HW257909   6.069   2.974   2.395  1.2183 -2.2200 -1.6316
19111SOL     OW57910   1.300   8.880   4.792 -0.4200 -0.1190 -0.4513
19111SOL    HW157911   1.250   8.958   4.815  2.2652  2.1119 -1.6613
19111SOL    HW257912   1.330   8.896   4.703  0.9815 -2.1605 -0.4169
19112SOL     OW57913   6.722   3.356   3.811 -1.1607  0.1725  0.6136
19112SOL    HW157914   6.790   3.311   3.861 -0.9721 -0.4893 -0.2138
19112SOL    HW257915   6.656   3.379   3.876 -1.7527 -2.2104  0.9500
19113SOL     OW57916   7.051   0.295   2.013 -0.2616 -0.9885 -0.4750
19113SOL    HW157917   6.974   0.347   1.992  0.1856  0.4793  1.3511
19113SOL    HW257918   7.029   0.207   1.981 -2.2037 -0.3636 -1.0154
19114SOL     OW57919   7.135   3.023   2.365  0.8332 -0.2512 -0.2959
19114SOL    HW157920   7.082   2.956   2.321  0.2309  0.7717 -1.1858
19114SOL    HW257921   7.127   3.003   2.458  0.8695 -1.5593 -0.5597
19115SOL     OW57922   7.646   3.719   5.646  0.3914  0.1820  0.0734
19115SOL    HW157923   7.614   3.635   5.679 -1.2755  0.5582 -0.4989
19115SOL    HW257924   7.740   3.718   5.664  0.3390 -1.6600  0.3658
19116SOL     OW57925   6.108   9.214   3.977  0.4198  0.1784  0.2766
19116SOL    HW157926   6.176   9.226   4.044  1.1915  1.9861 -0.7692
19116SOL    HW257927   6.132   9.132   3.934  0.2870 -0.6707  1.7304
19117SOL     OW57928   3.092   2.719   1.019 -0.1621 -0.1870 -0.4342
19117SOL    HW157929   3.096   2.809   1.053  1.0543 -0.8841  1.4073
19117SOL    HW257930   3.167   2.713   0.959 -0.6828  0.2115 -1.1513
19118SOL     OW57931   8.684   0.656   5.703 -0.1771  0.3644  0.0768
19118SOL    HW157932   8.722   0.716   5.767 -0.0258  0.4420 -0.0819
19118SOL    HW257933   8.757   0.598   5.679 -0.1104  0.6142 -0.3472
19119SOL     OW57934   2.634   9.059   4.199  0.4721  0.0789 -0.6361
19119SOL    HW157935   2.729   9.070   4.210  0.9045 -1.2728 -2.5158
19119SOL    HW257936   2.601   9.148   4.185  1.2557  0.7007  1.1040
19120SOL     OW57937   0.664   4.269   3.911  0.2106  0.2081  0.5311
19120SOL    HW157938   0.695   4.179   3.904  1.1605  0.5591  0.0797
19120SOL    HW257939   0.656   4.298   3.820  1.3505  1.0501  0.6843
19121SOL     OW57940   5.598   7.916   1.906  0.2832 -0.0261  0.5602
19121SOL    HW157941   5.562   7.940   1.820 -0.0392 -0.9648  0.4210
19121SOL    HW257942   5.605   7.821   1.903  0.1297 -0.0797  1.6353
19122SOL     OW57943   6.625   9.959   5.993 -0.1285  0.1325  0.9478
19122SOL    HW157944   6.571   9.881   6.007 -0.2733 -0.0593 -0.5225
19122SOL    HW257945   6.715   9.926   5.989 -0.2936 -0.2068 -1.0761
19123SOL     OW57946   2.795   2.669   4.383 -0.3509 -0.1337 -0.0836
19123SOL    HW157947   2.731   2.711   4.325  1.1094  0.6263 -1.1981
19123SOL    HW257948   2.807   2.582   4.345 -1.1565 -0.5093  0.4913
19124SOL     OW57949   9.192   9.736   9.960 -0.2509  0.6630 -0.3933
19124SOL    HW157950   9.102   9.741   9.928  0.3639  1.0625 -2.1705
19124SOL    HW257951   9.219   9.646   9.942  0.3301  1.0832 -1.7440
19125SOL     OW57952   5.946   4.929   9.018 -0.0347  0.1158  0.5550
19125SOL    HW157953   5.999   4.940   9.096 -0.6560 -0.6175  1.0979
19125SOL    HW257954   5.860   4.903   9.051  0.3267 -2.7036 -0.4196
19126SOL     OW57955   0.547   7.583   2.679 -0.1276 -0.7667 -0.3271
19126SOL    HW157956   0.474   7.636   2.713 -1.0278 -2.0516 -0.1716
19126SOL    HW257957   0.575   7.530   2.754  1.5272  0.2641 -0.1644
19127SOL     OW57958   5.502   7.005   9.235  0.4616  0.2530  0.3977
19127SOL    HW157959   5.432   6.974   9.291 -2.5348  3.3670 -1.2439
19127SOL    HW257960   5.541   7.078   9.282  2.2373 -0.9929  0.9739
19128SOL     OW57961   1.408   5.366   4.220 -0.4335 -0.1730  0.1007
19128SOL    HW157962   1.439   5.281   4.189  2.3580  0.4311  0.9050
19128SOL    HW257963   1.399   5.356   4.314  0.7789  0.5979  0.3268
19129SOL     OW57964   2.254   4.547   5.624 -0.0657  0.2028 -0.8800
19129SOL    HW157965   2.222   4.483   5.688  0.4769  1.0145  0.2306
19129SOL    HW257966   2.240   4.632   5.666 -1.4212  0.9021 -2.6086
19130SOL     OW57967   0.092   8.894   9.128  0.2045  0.3714 -0.5551
19130SOL    HW157968   0.144   8.815   9.113 -1.9676 -1.3600  0.4660
19130SOL    HW257969   0.086   8.936   9.043  1.2899 -0.6334 -1.1587
19131SOL     OW57970   0.777   7.789   2.354 -0.9055  0.7268  0.2761
19131SOL    HW157971   0.833   7.726   2.400  0.3862  0.3483 -1.6789
19131SOL    HW257972   0.790   7.871   2.401  0.3587  0.3576  0.6284
19132SOL     OW57973   8.365   0.932   0.852 -0.4419 -0.3582 -0.6979
19132SOL    HW157974   8.449   0.886   0.862 -1.0038 -1.3476 -0.3480
19132SOL    HW257975   8.334   0.905   0.765 -0.0834  0.5702 -1.1308
19133SOL     OW57976   4.735   0.151   3.206 -0.3986 -0.8063  0.4463
19133SOL    HW157977   4.747   0.210   3.131 -0.9286  0.8930  1.6284
19133SOL    HW257978   4.801   0.083   3.194  1.1592  0.7560 -0.3275
19134SOL     OW57979   6.039   8.008   0.863  0.1077 -0.4401  0.2892
19134SOL    HW157980   6.084   7.933   0.825  1.0920 -0.1519  0.8451
19134SOL    HW257981   6.022   7.983   0.953 -1.8028 -0.9388 -0.1536
19135SOL     OW57982   4.590   7.042   1.551 -0.1257 -0.6878 -0.4145
19135SOL    HW157983   4.636   7.022   1.632  0.4218  0.8197 -0.3163
19135SOL    HW257984   4.524   6.973   1.543  0.9593 -1.8688  0.3776
19136SOL     OW57985   2.235   4.174   5.295 -0.1554 -0.1350  0.0196
19136SOL    HW157986   2.316   4.219   5.318 -0.5285  0.6602 -0.2195
19136SOL    HW257987   2.224   4.190   5.202 -0.7568  0.0283  0.1150
19137SOL     OW57988   3.871   5.030   0.010  0.5548  0.9837 -0.3082
19137SOL    HW157989   3.870   4.967   0.082 -0.3253  0.5375 -0.7012
19137SOL    HW257990   3.842   4.980  -0.066  1.5266  1.4357 -0.9985
19138SOL     OW57991   3.326   9.064   1.223  0.3127  0.5324  0.4015
19138SOL    HW157992   3.305   9.143   1.272  0.8630  1.5013 -0.8557
19138SOL    HW257993   3.244   9.040   1.180  0.4190  1.1250 -0.1517
19139SOL     OW57994   0.109   5.282   9.053  0.2436  0.1393 -0.1110
19139SOL    HW157995   0.032   5.330   9.025  0.4202 -0.7175 -2.3019
19139SOL    HW257996   0.089   5.252   9.141  0.1183  4.0481  1.3788
19140SOL     OW57997   3.934   8.624   9.689  0.0906 -0.3633 -0.3082
19140SOL    HW157998   3.879   8.545   9.690  0.9251 -0.9494  0.1230
19140SOL    HW257999   3.941   8.647   9.597 -1.0886 -0.1186 -0.3560
19141SOL     OW58000   6.581   4.195   0.794  0.0776 -0.1442  0.4473
19141SOL    HW158001   6.656   4.218   0.848  1.2464 -0.2688 -1.0394
19141SOL    HW258002   6.598   4.105   0.766 -0.6319 -0.1804  0.1140
19142SOL     OW58003   9.646   4.876   3.645 -0.0937  0.7200 -0.0325
19142SOL    HW158004   9.583   4.942   3.674  0.6552  1.7484 -0.6557
19142SOL    HW258005   9.624   4.798   3.695 -1.6187  1.1568  0.0249
19143SOL     OW58006   9.171   8.004   6.576  0.8268  0.1662  0.2360
19143SOL    HW158007   9.144   7.938   6.639 -0.7210  0.0389 -0.5094
19143SOL    HW258008   9.256   8.036   6.609  0.4539 -0.4631  1.9006
19144SOL     OW58009   1.922   4.862   1.629 -0.5690 -0.0303 -0.7477
19144SOL    HW158010   1.855   4.927   1.612 -0.4924  0.1146 -0.5007
19144SOL    HW258011   2.004   4.904   1.603 -0.3939  0.3614  0.3664
19145SOL     OW58012   7.578   6.942   6.377 -0.3551  0.5022  0.2888
19145SOL    HW158013   7.593   6.853   6.407 -0.1054  0.3722 -0.2042
19145SOL    HW258014   7.488   6.941   6.343 -0.3738  0.4529  0.3409
19146SOL     OW58015   6.921   8.644   5.938  0.1422 -0.2708  0.2756
19146SOL    HW158016   7.016   8.645   5.930  0.1376 -2.1762 -0.6760
19146SOL    HW258017   6.905   8.652   6.031  1.1689  1.1413  0.3656
19147SOL     OW58018   2.509   7.739   0.231 -0.9389 -0.3251  0.5276
19147SOL    HW158019   2.491   7.741   0.136 -2.2803 -0.2355  0.7563
19147SOL    HW258020   2.484   7.650   0.257  2.0778 -1.3089  0.3611
19148SOL     OW58021   0.895   3.025   0.328  0.0546  0.5539 -0.6307
19148SOL    HW158022   0.856   2.957   0.272 -1.0535  1.1948 -0.6764
19148SOL    HW258023   0.835   3.030   0.403 -1.4298  3.2729 -1.8509
19149SOL     OW58024   8.704   5.130   8.398  0.0078  0.0094  0.5008
19149SOL    HW158025   8.751   5.083   8.330  1.3320  0.4458  1.0783
19149SOL    HW258026   8.620   5.084   8.406 -0.0517 -0.2233 -1.1919
19150SOL     OW58027   4.652   1.901   3.958  0.9152 -0.1959 -0.0824
19150SOL    HW158028   4.598   1.836   4.003 -1.1973 -0.0982 -2.2465
19150SOL    HW258029   4.589   1.952   3.906  2.9952  0.4435 -2.1438
19151SOL     OW58030   4.609   7.033   5.280  0.1475  0.4846 -0.6800
19151SOL    HW158031   4.527   7.004   5.320  0.2238 -0.5624 -1.2781
19151SOL    HW258032   4.640   7.102   5.339  0.8599 -1.7745  1.7885
19152SOL     OW58033   1.533   3.795   9.544  0.5640  0.0830  0.7320
19152SOL    HW158034   1.538   3.702   9.566  2.8732 -0.0011  0.1226
19152SOL    HW258035   1.443   3.821   9.567 -0.7200 -2.6894 -0.6945
19153SOL     OW58036   3.485   1.770   1.492  0.2100 -0.4934  0.5556
19153SOL    HW158037   3.480   1.678   1.466 -2.1833 -0.4931  0.7958
19153SOL    HW258038   3.486   1.819   1.410 -1.9265 -0.6701  0.3703
19154SOL     OW58039   4.988   7.702   2.003  0.2625  0.2204 -0.6255
19154SOL    HW158040   5.067   7.729   1.957 -0.1466  1.2622 -0.7391
19154SOL    HW258041   4.919   7.705   1.937 -0.2639  1.3968 -0.0539
19155SOL     OW58042   9.263   1.578   6.217 -0.1214  0.1202  0.8380
19155SOL    HW158043   9.337   1.523   6.242 -0.0782  0.5521  1.6834
19155SOL    HW258044   9.259   1.570   6.122  1.8447  1.1411  0.6199
19156SOL     OW58045   8.578   3.529   7.623  0.2163 -0.4187  0.1278
19156SOL    HW158046   8.661   3.570   7.647  1.1501 -2.9145  1.5257
19156SOL    HW258047   8.567   3.550   7.530  2.6555 -0.3528 -0.2075
19157SOL     OW58048   8.833   7.722   2.080 -0.5609 -0.0114  0.2672
19157SOL    HW158049   8.776   7.764   2.015 -0.9208  0.2273  0.7291
19157SOL    HW258050   8.833   7.629   2.055  0.6702  0.3099 -1.0858
19158SOL     OW58051   2.016   1.354   2.081  0.1813  0.0837  0.2111
19158SOL    HW158052   1.996   1.447   2.076  0.3988  0.0810 -1.4956
19158SOL    HW258053   1.931   1.311   2.092  0.0201  0.4601  0.4171
19159SOL     OW58054   3.222   0.382   9.187  0.2864 -0.4352  0.3265
19159SOL    HW158055   3.275   0.357   9.262  2.7546  0.9393 -0.8318
19159SOL    HW258056   3.133   0.388   9.221  1.1443 -0.8922  2.8497
19160SOL     OW58057   6.682   8.375   5.658  0.3118 -0.0785  0.1562
19160SOL    HW158058   6.589   8.355   5.660 -0.0224  1.3021 -0.2330
19160SOL    HW258059   6.713   8.336   5.576  0.1169 -0.6630  0.3555
19161SOL     OW58060   9.288   1.746   6.944  0.4670  0.4879  0.2526
19161SOL    HW158061   9.288   1.691   7.022 -1.5896 -0.0287 -0.0525
19161SOL    HW258062   9.205   1.794   6.949  0.6119  0.9391 -1.2858
19162SOL     OW58063   2.863   7.418   0.194 -0.6934  0.2934 -0.0852
19162SOL    HW158064   2.959   7.416   0.204 -0.7892  1.2351  1.3534
19162SOL    HW258065   2.849   7.425   0.100  0.5937 -1.7311 -0.5116
19163SOL     OW58066   9.958   1.522   5.785  0.3729  0.1971 -0.0991
19163SOL    HW158067   9.961   1.616   5.767 -1.4531  0.4838  0.8932
19163SOL    HW258068   9.925   1.482   5.705  0.9069  0.4096 -0.4312
19164SOL     OW58069   5.690   1.563   5.490  0.0831  0.1346 -0.4043
19164SOL    HW158070   5.597   1.561   5.467  0.2538  0.9025 -1.2420
19164SOL    HW258071   5.697   1.509   5.568 -0.8462 -1.0959 -1.1340
19165SOL     OW58072   0.075   9.676   2.513 -0.0434  0.2818 -0.4038
19165SOL    HW158073   0.047   9.665   2.422 -0.9877  0.8626 -0.1996
19165SOL    HW258074   0.077   9.771   2.526  0.4369  0.2085  0.0761
19166SOL     OW58075   1.182   0.037   9.363 -0.9034  0.0165 -0.4195
19166SOL    HW158076   1.260   0.014   9.414 -0.2686  0.8175 -1.0031
19166SOL    HW258077   1.159  -0.045   9.318  0.2234  0.0045 -1.0316
19167SOL     OW58078   6.662   4.835   1.072  0.1818 -0.2326  0.0848
19167SOL    HW158079   6.672   4.905   1.008 -1.0604 -1.4925 -1.5551
19167SOL    HW258080   6.654   4.880   1.156  1.0152  1.4974 -0.7205
19168SOL     OW58081   0.590   3.962   8.901 -0.4104 -0.9046  0.1461
19168SOL    HW158082   0.562   3.980   8.811 -0.8010  0.5224  0.5389
19168SOL    HW258083   0.683   3.984   8.902 -0.3439 -1.1775  0.0269
19169SOL     OW58084   0.470   5.191   4.077 -0.1143  0.0059 -0.3821
19169SOL    HW158085   0.402   5.125   4.093  0.4744 -0.8171 -1.1430
19169SOL    HW258086   0.461   5.253   4.149 -1.0086 -0.6457  0.0866
19170SOL     OW58087   1.252   7.261   5.081 -1.2032  0.0033  0.0487
19170SOL    HW158088   1.323   7.224   5.028 -0.9762  1.4545 -0.7161
19170SOL    HW258089   1.293   7.278   5.166 -1.0745 -0.6569  0.1227
19171SOL     OW58090   3.562   3.132   3.990 -0.5735 -0.2781 -0.6831
19171SOL    HW158091   3.534   3.085   3.912 -2.0450 -0.1036 -0.2944
19171SOL    HW258092   3.646   3.093   4.013 -0.8506 -1.3786 -1.4704
19172SOL     OW58093   3.934   9.927   3.976 -0.5118  0.6227  0.0904
19172SOL    HW158094   4.020   9.954   4.005 -0.4721  0.9697 -0.3311
19172SOL    HW258095   3.892  10.008   3.947 -0.3112  0.2319 -1.3938
19173SOL     OW58096   9.901   7.547   5.592  0.2041  0.1030 -0.0284
19173SOL    HW158097   9.992   7.575   5.585  0.2069  0.5233  1.3201
19173SOL    HW258098   9.878   7.562   5.684 -1.0079 -0.6685 -0.1738
19174SOL     OW58099   9.263   1.640   8.697 -0.9427  0.2092  0.2692
19174SOL    HW158100   9.197   1.591   8.648 -0.9239 -0.0477  0.4972
19174SOL    HW258101   9.219   1.665   8.778 -0.2479 -1.4973  1.2375
19175SOL     OW58102   7.837   4.921   2.137  0.2065  1.0223 -0.2055
19175SOL    HW158103   7.890   4.895   2.212  0.4405  0.4845 -0.5551
19175SOL    HW258104   7.787   4.997   2.168  0.8192  1.2355  0.2776
19176SOL     OW58105   3.169   4.641   5.138 -0.4132  0.6633  0.2258
19176SOL    HW158106   3.117   4.669   5.213 -1.4830 -0.2146 -0.1581
19176SOL    HW258107   3.151   4.548   5.129  1.1608  0.3491  0.0013
19177SOL     OW58108   2.850   5.862   2.834 -0.4628 -0.6560 -0.3299
19177SOL    HW158109   2.864   5.786   2.891 -0.4416 -0.6590 -0.3391
19177SOL    HW258110   2.849   5.825   2.745  2.1051 -0.3442 -0.5642
19178SOL     OW58111   6.228   5.965   0.880  0.1703 -0.2694 -0.0981
19178SOL    HW158112   6.145   5.924   0.905 -0.4012  0.1254 -1.2603
19178SOL    HW258113   6.287   5.891   0.864 -0.3428 -0.6021 -0.5025
19179SOL     OW58114   1.359   6.608   7.497  0.1398  0.3034  0.1027
19179SOL    HW158115   1.324   6.656   7.422  0.2434 -1.4368 -1.1107
19179SOL    HW258116   1.358   6.672   7.568 -1.6320  1.4977 -0.9055
19180SOL     OW58117   7.271   5.964   6.166  0.6470  0.5390 -0.7622
19180SOL    HW158118   7.181   5.936   6.182  0.8067  0.0662 -0.6500
19180SOL    HW258119   7.322   5.916   6.232  0.9284  1.1420 -0.5366
19181SOL     OW58120   8.284   4.588   5.434 -0.0641 -0.1255  0.5776
19181SOL    HW158121   8.336   4.514   5.402  1.2880  0.7995  0.5522
19181SOL    HW258122   8.238   4.621   5.357 -1.5573 -1.5789  0.7871
19182SOL     OW58123   4.956   0.640   0.504 -0.5332 -0.2627  0.5612
19182SOL    HW158124   4.875   0.638   0.556 -1.8391  0.4314 -1.3338
19182SOL    HW258125   4.938   0.582   0.430  0.5794  0.1844 -0.0789
19183SOL     OW58126   3.695   7.474   2.119  0.3399  0.5289 -0.3546
19183SOL    HW158127   3.719   7.402   2.060 -0.3746 -0.3310  0.3787
19183SOL    HW258128   3.762   7.471   2.188  1.3247  1.6958 -1.2220
19184SOL     OW58129   3.814   8.573   4.952  0.4620  0.3358 -0.3613
19184SOL    HW158130   3.841   8.489   4.915  0.4681  1.3367 -2.8364
19184SOL    HW258131   3.889   8.601   5.004  0.0802 -1.5934  1.3311
19185SOL     OW58132   5.095   2.873   2.053  0.2932  0.6270 -0.2279
19185SOL    HW158133   5.109   2.953   2.103  0.5490 -0.1142  0.9422
19185SOL    HW258134   5.142   2.887   1.971  2.2155  0.8341  0.8516
19186SOL     OW58135   2.942   1.505   4.802  0.7273  0.2862  0.1518
19186SOL    HW158136   2.947   1.553   4.720 -0.9616 -0.1020 -0.2280
19186SOL    HW258137   2.931   1.414   4.776  1.8061 -0.0666  0.8484
19187SOL     OW58138   8.852   9.113   3.152 -0.1422 -0.1394  0.1976
19187SOL    HW158139   8.804   9.152   3.226  1.6052  1.6508  0.4704
19187SOL    HW258140   8.857   9.184   3.088  0.9124 -0.7472 -0.4022
19188SOL     OW58141   7.041   8.066   1.196 -0.5524  0.4593 -0.3971
19188SOL    HW158142   6.949   8.087   1.209 -0.6823 -0.1961 -0.2476
19188SOL    HW258143   7.078   8.147   1.159 -0.7949  1.3318  1.1811
19189SOL     OW58144   6.839   9.943   8.015 -0.2458 -0.4217 -0.3940
19189SOL    HW158145   6.760   9.889   8.016 -0.9658  0.5626  2.1315
19189SOL    HW258146   6.820  10.016   8.073  2.7783 -0.5601  0.9689
19190SOL     OW58147   5.634   3.617   3.514 -0.2483 -0.1124 -0.0111
19190SOL    HW158148   5.596   3.572   3.439  1.1283 -0.4559 -0.5267
19190SOL    HW258149   5.594   3.574   3.590  1.4989 -2.7604 -0.4559
19191SOL     OW58150   6.207   2.247   8.549  0.1385 -0.0821 -0.0135
19191SOL    HW158151   6.177   2.329   8.588  0.3530 -0.3057  0.6440
19191SOL    HW258152   6.136   2.221   8.491  0.1968  0.7165 -0.4553
19192SOL     OW58153   4.053   1.332   8.198  0.1226  0.2941  0.1105
19192SOL    HW158154   4.070   1.309   8.107 -0.7616  1.7627 -0.4721
19192SOL    HW258155   3.957   1.330   8.206  0.1725  0.5888  0.8754
19193SOL     OW58156   7.732   6.953   7.189 -0.2978  0.2034  0.1130
19193SOL    HW158157   7.781   7.027   7.225  0.1344  0.0332 -0.1107
19193SOL    HW258158   7.642   6.984   7.185 -0.2068  0.5330  0.5131
19194SOL     OW58159   2.659   5.684   9.874  0.0691  0.1730  0.0912
19194SOL    HW158160   2.703   5.642   9.949 -1.1282  0.6044  1.0745
19194SOL    HW258161   2.652   5.615   9.809 -1.1901 -0.9954  1.3890
19195SOL     OW58162   3.143   4.775   3.317 -0.2129 -0.3546 -0.0759
19195SOL    HW158163   3.183   4.861   3.309  0.1511 -0.5180 -0.0496
19195SOL    HW258164   3.132   4.762   3.411  1.7299 -1.2275  0.0649
19196SOL     OW58165   4.064   2.621   6.340  0.6326 -0.3453 -0.0414
19196SOL    HW158166   3.991   2.577   6.296  0.5890  0.3517 -0.6715
19196SOL    HW258167   4.038   2.713   6.345  0.6661 -0.3995  1.3970
19197SOL     OW58168   8.039   7.518   0.704 -0.2258  0.3127 -0.0635
19197SOL    HW158169   8.107   7.508   0.638 -1.4805  0.7053 -1.4880
19197SOL    HW258170   8.033   7.432   0.746 -0.1643 -0.2884 -1.2521
19198SOL     OW58171   8.393   7.356   7.686  0.0868  0.3936 -0.3921
19198SOL    HW158172   8.454   7.307   7.631  0.1605  0.5723 -0.4706
19198SOL    HW258173   8.449   7.411   7.741 -0.0167  0.9489 -0.8342
19199SOL     OW58174   6.213   2.831   7.090 -0.5887  0.0177 -0.2369
19199SOL    HW158175   6.221   2.822   6.995 -1.1346 -2.6472 -0.1168
19199SOL    HW258176   6.296   2.799   7.124 -0.8042 -0.0979  0.1902
19200SOL     OW58177   6.359   9.245   3.098 -0.1565  0.1092  0.0942
19200SOL    HW158178   6.397   9.171   3.143 -0.4661 -0.2636 -0.2472
19200SOL    HW258179   6.395   9.322   3.142  0.2474 -0.2417  0.3781
19201SOL     OW58180   7.991   9.846   9.616 -0.1239 -0.6079  0.5285
19201SOL    HW158181   7.930   9.782   9.580 -0.4171 -0.7204  1.2088
19201SOL    HW258182   7.992   9.917   9.552  0.4065 -1.4014 -0.3689
19202SOL     OW58183   0.891   3.409   0.621  0.1362  0.1144  0.1464
19202SOL    HW158184   0.955   3.476   0.599  0.0532 -0.0682 -0.6925
19202SOL    HW258185   0.849   3.387   0.538  1.1107 -1.9656  0.1353
19203SOL     OW58186   0.679   0.227   2.423 -0.0768 -0.0531 -0.4587
19203SOL    HW158187   0.686   0.187   2.510 -2.2074 -0.4019 -0.4051
19203SOL    HW258188   0.759   0.200   2.378 -0.0255 -1.8413  0.6130
19204SOL     OW58189   8.493   0.645   8.914 -0.5357  0.3793  0.5505
19204SOL    HW158190   8.466   0.665   8.825  1.7878  2.2436  0.1578
19204SOL    HW258191   8.430   0.691   8.969  1.0580  3.9127 -0.2975
19205SOL     OW58192   7.258   5.624   9.343  0.6262  0.0060  0.3157
19205SOL    HW158193   7.170   5.647   9.373  0.8896 -1.5911  2.5851
19205SOL    HW258194   7.246   5.542   9.296  0.9143 -0.3483  0.8511
19206SOL     OW58195   9.145   1.037   2.710  0.6159 -0.0919 -0.4986
19206SOL    HW158196   9.120   1.067   2.623  3.7935 -0.5961 -1.7134
19206SOL    HW258197   9.157   1.117   2.761 -1.5238  0.2001 -0.3394
19207SOL     OW58198   2.083   9.615   3.332  0.3813 -0.1540  0.0772
19207SOL    HW158199   2.059   9.533   3.374  0.4679 -0.8418 -1.1787
19207SOL    HW258200   2.131   9.590   3.253 -0.6382  1.0367 -0.9928
19208SOL     OW58201   2.893   1.754   0.934  0.4536 -0.0859  0.1000
19208SOL    HW158202   2.988   1.748   0.924  0.4352 -0.6455  0.2143
19208SOL    HW258203   2.872   1.845   0.912  0.7376 -0.5003 -2.1695
19209SOL     OW58204   4.020   2.802   5.221 -0.0011  0.3453  0.2082
19209SOL    HW158205   4.024   2.769   5.131 -0.6299 -2.4039  1.0927
19209SOL    HW258206   4.110   2.794   5.254  0.3112  1.7341 -0.2772
19210SOL     OW58207   0.688   3.803   5.180  0.5228  0.2109  0.2192
19210SOL    HW158208   0.677   3.878   5.121  0.7569  0.4062  0.4234
19210SOL    HW258209   0.755   3.749   5.138  0.2585  0.0506  0.0055
19211SOL     OW58210   4.242   2.456   8.869  0.5199 -0.1833 -0.7860
19211SOL    HW158211   4.221   2.451   8.775 -2.9274  1.7040 -0.2636
19211SOL    HW258212   4.224   2.368   8.902 -2.0285  0.0781 -1.3105
19212SOL     OW58213   7.116   7.716   0.802  0.0560 -0.0870 -0.0663
19212SOL    HW158214   7.083   7.791   0.752 -1.2614 -0.9718 -0.5665
19212SOL    HW258215   7.058   7.710   0.878  0.8968  0.1034  0.6052
19213SOL     OW58216   6.097   1.199   0.750 -0.0352 -0.4539 -0.1292
19213SOL    HW158217   6.028   1.133   0.752 -0.9024  0.4526  0.3962
19213SOL    HW258218   6.052   1.281   0.734  1.1490 -0.1014 -1.9237
19214SOL     OW58219   0.266   5.375   7.599  0.1813  0.1576 -0.7969
19214SOL    HW158220   0.256   5.409   7.511  0.4933 -1.3249 -1.4257
19214SOL    HW258221   0.322   5.440   7.643  1.7121 -0.0844 -2.2913
19215SOL     OW58222   6.934   0.116   1.307 -0.0398  0.2560  0.4243
19215SOL    HW158223   7.016   0.104   1.355  0.4527  1.7204  0.0115
19215SOL    HW258224   6.896   0.196   1.343 -1.8305 -0.9222  1.3060
19216SOL     OW58225   5.787   7.956   5.861 -0.0091  0.0383 -0.5226
19216SOL    HW158226   5.693   7.952   5.845 -0.4646  3.0985  0.8189
19216SOL    HW258227   5.807   7.872   5.903 -2.0274 -0.8349 -1.1806
19217SOL     OW58228   8.395   9.013   3.930 -0.1894  0.4915 -0.2988
19217SOL    HW158229   8.435   8.951   3.991 -2.4418  0.3732  1.1652
19217SOL    HW258230   8.302   8.988   3.928 -0.9486  3.0546 -0.5974
19218SOL     OW58231   2.761  -0.020   5.681  1.0783 -0.8547  0.6116
19218SOL    HW158232   2.703   0.003   5.754 -1.1628 -0.2921 -1.2139
19218SOL    HW258233   2.746   0.048   5.615  2.0248 -2.0242 -0.8909
19219SOL     OW58234   8.620   9.933   0.359  1.0444 -0.1138 -0.2519
19219SOL    HW158235   8.684   9.922   0.429  1.3343 -2.0097 -0.7575
19219SOL    HW258236   8.537   9.904   0.397  0.6388  1.4158  0.0988
19220SOL     OW58237   6.119   2.017   5.356  0.0915  0.1042  0.2383
19220SOL    HW158238   6.142   2.010   5.449  1.3312  0.8406  0.0065
19220SOL    HW258239   6.036   1.970   5.348 -0.1665  0.2550  1.7676
19221SOL     OW58240   1.804   2.433   3.747  0.3063  0.0543  0.0411
19221SOL    HW158241   1.778   2.499   3.811 -0.7767 -0.9423  0.6718
19221SOL    HW258242   1.890   2.462   3.715  1.0964  0.3607  2.2691
19222SOL     OW58243   2.727   7.316   1.541  0.0673  0.3605 -0.4238
19222SOL    HW158244   2.677   7.303   1.460  1.7553 -0.8083 -1.3365
19222SOL    HW258245   2.775   7.235   1.553 -1.4023 -0.2037  2.7571
19223SOL     OW58246   0.578   6.257   4.799  0.1039  0.1113  0.0750
19223SOL    HW158247   0.566   6.241   4.705  1.2349  0.0301 -0.0702
19223SOL    HW258248   0.541   6.344   4.814 -2.3629 -0.8615  0.0666
19224SOL     OW58249   0.141   2.128   8.900  0.2090 -0.0583  0.1933
19224SOL    HW158250   0.195   2.162   8.970 -0.3609 -0.5600  0.8936
19224SOL    HW258251   0.088   2.203   8.872  1.0255  0.3542 -0.2893
19225SOL     OW58252   5.744   9.472   7.548 -0.9074  0.2169 -0.1325
19225SOL    HW158253   5.667   9.422   7.572 -0.4896 -0.1580  0.4410
19225SOL    HW258254   5.766   9.442   7.460 -2.0575  1.1273 -0.7482
19226SOL     OW58255   0.780   7.924   3.174 -0.1464  0.1029  0.4204
19226SOL    HW158256   0.710   7.986   3.196  1.7132  2.1262  1.0465
19226SOL    HW258257   0.810   7.891   3.259  1.4662  1.4665  0.4488
19227SOL     OW58258   4.519   6.999   4.522 -0.3545 -0.0199 -0.2898
19227SOL    HW158259   4.431   6.986   4.487 -0.5816 -0.1669  0.3249
19227SOL    HW258260   4.576   6.950   4.463 -0.6036  0.6125 -1.0727
19228SOL     OW58261   9.207   1.687   1.326  0.1405 -0.4049 -0.6599
19228SOL    HW158262   9.128   1.651   1.365 -0.2647  2.0462  1.0568
19228SOL    HW258263   9.178   1.723   1.242 -1.3605  2.8583  1.0746
19229SOL     OW58264   8.243   0.528   1.268 -0.3487 -0.8895 -0.2318
19229SOL    HW158265   8.262   0.507   1.177  0.1661 -2.6555  0.2434
19229SOL    HW258266   8.285   0.458   1.318 -1.9071 -0.8107  1.2797
19230SOL     OW58267   9.274   7.830   7.469  0.0434  0.0876  0.3301
19230SOL    HW158268   9.284   7.841   7.374 -1.3010  0.2004  0.1784
19230SOL    HW258269   9.219   7.904   7.495  0.2503 -0.0514  1.1735
19231SOL     OW58270   2.349   3.590   7.222 -0.0651  0.5911 -0.2542
19231SOL    HW158271   2.395   3.525   7.275 -1.5839 -0.1148  0.2555
19231SOL    HW258272   2.384   3.674   7.250  1.4695  0.0505 -0.4632
19232SOL     OW58273   2.289   8.908   2.124  0.2708  0.4881 -0.5184
19232SOL    HW158274   2.243   8.947   2.198  0.9220 -1.5216  1.0477
19232SOL    HW258275   2.236   8.931   2.048  0.6317  4.3526  0.1952
19233SOL     OW58276   5.987   0.219   7.051 -0.5361  0.4267  0.6014
19233SOL    HW158277   6.078   0.237   7.074 -0.3859  2.0787 -1.0829
19233SOL    HW258278   5.990   0.137   7.002  0.5060  1.8004 -1.8106
19234SOL     OW58279   1.476   3.261   8.314 -0.1428 -0.5081 -0.3379
19234SOL    HW158280   1.456   3.168   8.310 -0.7176 -0.5671  2.0134
19234SOL    HW258281   1.394   3.302   8.340  0.5875  0.3674  0.7144
19235SOL     OW58282   4.264   0.043   5.884 -0.1068  0.5989  0.4265
19235SOL    HW158283   4.195   0.107   5.902  0.2321  0.7885  1.0752
19235SOL    HW258284   4.319   0.043   5.963  1.5619  1.6075 -0.6793
19236SOL     OW58285   8.177   7.305   8.689  0.6881 -0.8202 -0.1734
19236SOL    HW158286   8.257   7.350   8.716  0.1873 -0.0273  0.0330
19236SOL    HW258287   8.126   7.372   8.643 -0.4062 -0.9333  0.8112
19237SOL     OW58288   7.082   0.154   3.438  0.2686 -0.2801 -0.3017
19237SOL    HW158289   7.101   0.174   3.529  0.6606 -0.3508 -0.3698
19237SOL    HW258290   7.133   0.076   3.419  0.1816 -0.2700 -0.5804
19238SOL     OW58291   5.813   0.033   0.262 -0.3899  0.0755  0.9332
19238SOL    HW158292   5.848  -0.016   0.337  2.9418 -0.9228 -1.1053
19238SOL    HW258293   5.867   0.111   0.256  0.2691 -0.4844 -1.1357
19239SOL     OW58294   3.437   1.119   4.116 -0.1309  0.2400  0.5085
19239SOL    HW158295   3.501   1.186   4.141 -1.4982  1.6199  0.4747
19239SOL    HW258296   3.397   1.092   4.199 -0.3659  0.3132  0.4207
19240SOL     OW58297   2.400   6.207   3.795  0.0453 -0.1185  0.0872
19240SOL    HW158298   2.374   6.151   3.868  1.0909 -1.6119 -0.6274
19240SOL    HW258299   2.419   6.146   3.723  1.5536  1.1079 -0.6282
19241SOL     OW58300   2.361   6.583   8.192 -0.2252  0.3411  0.1863
19241SOL    HW158301   2.433   6.564   8.252  0.2060 -0.5037 -0.5885
19241SOL    HW258302   2.401   6.589   8.106 -1.2060 -1.2134 -0.4150
19242SOL     OW58303   3.684   2.381   7.477 -0.3009 -0.1082  0.1171
19242SOL    HW158304   3.742   2.417   7.409  0.4262 -0.6682  0.4228
19242SOL    HW258305   3.605   2.435   7.472  0.6909  1.4612  0.4888
19243SOL     OW58306   2.012   6.307   5.720  0.1381  0.1327  0.6168
19243SOL    HW158307   2.016   6.260   5.637  1.7462  0.7564  0.3000
19243SOL    HW258308   1.980   6.394   5.697  1.8997  0.7625  0.3785
19244SOL     OW58309   6.061   4.452   0.375 -0.0105 -0.5489 -0.0776
19244SOL    HW158310   6.062   4.520   0.308 -0.6247 -0.8940 -0.4433
19244SOL    HW258311   6.153   4.428   0.387  0.3382  1.0254  0.7684
19245SOL     OW58312   0.982   8.013   4.080  0.1781  0.2244  0.4110
19245SOL    HW158313   1.018   8.012   4.168  0.4059 -0.2192  0.3097
19245SOL    HW258314   1.054   8.041   4.024 -0.3912  2.1710  0.5514
19246SOL     OW58315   2.191   5.335   1.336 -0.0642  0.1366  0.5179
19246SOL    HW158316   2.155   5.261   1.286 -0.2911  1.7011 -1.7773
19246SOL    HW258317   2.267   5.298   1.381  0.1751 -1.3959 -1.0191
19247SOL     OW58318   7.334   1.157   5.135  0.3181  0.9072 -0.1727
19247SOL    HW158319   7.407   1.171   5.076  0.2378  0.7431 -0.3099
19247SOL    HW258320   7.372   1.113   5.211  0.2328  0.1729 -0.5533
19248SOL     OW58321   4.827   5.944   6.319  0.2174  0.3491  0.3908
19248SOL    HW158322   4.782   5.865   6.290  0.2145  0.1598  0.9187
19248SOL    HW258323   4.854   5.926   6.409 -1.6069  1.6983  1.2854
19249SOL     OW58324   2.405   9.868   2.500  0.3001  0.5474 -0.0976
19249SOL    HW158325   2.496   9.837   2.502  0.0943 -0.0165  0.7413
19249SOL    HW258326   2.412   9.964   2.505  0.9086  0.6528 -1.9644
19250SOL     OW58327   6.425   8.295   5.712 -0.1167  0.2512  0.1489
19250SOL    HW158328   6.431   8.200   5.708 -2.4352  0.0738 -0.8876
19250SOL    HW258329   6.347   8.312   5.765 -0.5900  1.4944 -0.8693
19251SOL     OW58330   9.394   0.622   3.816  0.1532  0.6876  0.5842
19251SOL    HW158331   9.468   0.565   3.799 -1.3442 -1.0284 -0.4890
19251SOL    HW258332   9.335   0.570   3.870 -1.2628  1.1883 -0.4284
19252SOL     OW58333   0.263   2.403   2.375  0.4766 -0.4365 -0.0914
19252SOL    HW158334   0.179   2.435   2.408  0.7981 -0.2738  0.5919
19252SOL    HW258335   0.251   2.309   2.366  0.3850 -0.4944  0.5362
19253SOL     OW58336   0.327   1.668   0.511 -0.5217 -0.1179 -0.0054
19253SOL    HW158337   0.351   1.665   0.419  3.3726 -2.3582  0.8576
19253SOL    HW258338   0.239   1.631   0.515  0.1405 -2.2853 -2.6606
19254SOL     OW58339   9.369   2.775   0.132  0.1026  0.5228 -0.5344
19254SOL    HW158340   9.373   2.832   0.209  1.2287 -0.1676 -0.0450
19254SOL    HW258341   9.457   2.781   0.094  1.2875 -2.9873  1.1455
19255SOL     OW58342   0.884   1.015   8.349  0.2458 -0.6395  0.3098
19255SOL    HW158343   0.867   0.989   8.259  0.5074 -2.0991  0.6550
19255SOL    HW258344   0.920   0.936   8.391 -2.6403 -0.9822  2.4626
19256SOL     OW58345   1.050   0.368   3.461  0.0422 -0.5103  0.2009
19256SOL    HW158346   1.139   0.334   3.455  0.2385  0.2425 -1.9894
19256SOL    HW258347   1.061   0.462   3.480 -0.1890 -0.1432 -1.3303
19257SOL     OW58348   3.310   4.008   8.518 -0.5296  0.2370 -0.3837
19257SOL    HW158349   3.247   3.936   8.525 -0.5167  0.1450 -1.0836
19257SOL    HW258350   3.368   3.982   8.446  0.3698  0.2803  0.3192
19258SOL     OW58351   6.039   4.094   6.889  0.1946 -0.5360 -0.1026
19258SOL    HW158352   6.113   4.151   6.869  2.3696 -0.9330  5.1406
19258SOL    HW258353   6.072   4.006   6.870  0.2365 -0.5482  0.0198
19259SOL     OW58354   0.344   2.690   8.597 -0.1457  0.1680 -0.0588
19259SOL    HW158355   0.372   2.731   8.679  0.3572  0.5107 -0.3923
19259SOL    HW258356   0.395   2.609   8.592 -1.6117 -0.8453  0.9162
19260SOL     OW58357   9.927   2.088   1.725  0.3855  0.2262 -0.0937
19260SOL    HW158358   9.902   2.124   1.810  0.1758  2.1560 -0.9233
19260SOL    HW258359   9.875   2.008   1.717 -1.0155  0.9947  0.8040
19261SOL     OW58360   3.696   0.030   4.756  0.0754 -0.3717  0.2596
19261SOL    HW158361   3.777   0.072   4.726  0.3720 -0.6523  0.6514
19261SOL    HW258362   3.726  -0.038   4.816 -0.4963  0.0869  1.0811
19262SOL     OW58363   8.474   3.597   4.550 -0.1349 -0.4094 -0.3376
19262SOL    HW158364   8.384   3.565   4.541  0.2943 -1.7653 -0.0620
19262SOL    HW258365   8.493   3.589   4.644  0.6409 -1.2270 -0.5481
19263SOL     OW58366   8.160   2.543   8.757 -0.0029 -0.0322  0.3525
19263SOL    HW158367   8.249   2.532   8.725 -0.0510  0.5850  0.0008
19263SOL    HW258368   8.104   2.510   8.686 -0.0487 -1.1875  0.8934
19264SOL     OW58369   2.973   0.664   9.231 -0.9531 -0.3823 -0.0490
19264SOL    HW158370   2.932   0.671   9.318 -0.8004  0.1167 -0.0164
19264SOL    HW258371   2.948   0.745   9.187  0.5657  0.2424  0.2084
19265SOL     OW58372   4.190   4.109   8.433 -0.2825  0.1186  0.5615
19265SOL    HW158373   4.179   4.160   8.352 -1.7117 -0.7082  0.2096
19265SOL    HW258374   4.217   4.174   8.498 -0.3194  1.0114 -0.2842
19266SOL     OW58375   2.893   6.519   7.072 -0.2954 -0.2058  0.6013
19266SOL    HW158376   2.903   6.468   7.152  0.0557  0.2924  0.8785
19266SOL    HW258377   2.943   6.600   7.088  1.2393 -0.8192 -0.7533
19267SOL     OW58378   3.777   1.001   7.422 -0.5976 -1.1005  0.0331
19267SOL    HW158379   3.835   0.925   7.432  0.0122 -0.5421  0.8708
19267SOL    HW258380   3.722   0.999   7.500  0.5440  0.2344  0.9263
19268SOL     OW58381   3.832   5.300   0.966 -0.1048  0.0936 -1.0055
19268SOL    HW158382   3.913   5.340   1.000 -0.8457  0.7021  0.1038
19268SOL    HW258383   3.831   5.212   1.005 -0.2702  0.2987 -0.5433
19269SOL     OW58384   6.647   1.914   9.168 -0.1275 -0.3237  0.5405
19269SOL    HW158385   6.729   1.963   9.159 -0.2673 -0.3409 -1.1409
19269SOL    HW258386   6.659   1.863   9.248  1.0181  0.5806  0.9758
19270SOL     OW58387   3.327   1.871   5.891 -0.1279 -0.2945 -0.3002
19270SOL    HW158388   3.396   1.817   5.929 -1.5244 -1.6340  0.4331
19270SOL    HW258389   3.328   1.848   5.797 -1.5098 -2.6573  0.1709
19271SOL     OW58390   7.708   4.776   6.975  0.1386  0.2152 -0.4880
19271SOL    HW158391   7.633   4.717   6.976  0.0820  0.2842 -0.6176
19271SOL    HW258392   7.700   4.824   6.892 -0.1353  0.8207 -0.1213
19272SOL     OW58393   6.230   6.705   9.140  0.1867  0.3315 -0.6107
19272SOL    HW158394   6.149   6.687   9.092  0.1937  0.5070 -0.6870
19272SOL    HW258395   6.299   6.702   9.075  0.1661  0.8274 -0.6579
19273SOL     OW58396   2.117   4.636   4.529 -0.3023 -0.5050  0.2768
19273SOL    HW158397   2.042   4.596   4.485 -0.2271 -0.2503 -0.0906
19273SOL    HW258398   2.193   4.594   4.489 -0.1958  0.5815 -0.7071
19274SOL     OW58399   2.936   6.063   7.477  0.4368 -0.2984  0.1319
19274SOL    HW158400   3.001   6.039   7.542  1.2480 -1.0901 -0.9488
19274SOL    HW258401   2.977   6.045   7.393 -0.9996 -0.3585 -0.5951
19275SOL     OW58402   2.810   5.961   6.192 -0.4792  0.0985  0.3131
19275SOL    HW158403   2.850   5.915   6.118 -1.6257 -0.5914  0.0882
19275SOL    HW258404   2.879   5.965   6.258 -0.0418 -1.0910 -0.0397
19276SOL     OW58405   2.579   6.168   8.229  0.0833  0.1967  0.0008
19276SOL    HW158406   2.609   6.113   8.301 -0.1562 -0.7946 -0.6397
19276SOL    HW258407   2.506   6.217   8.266  0.8814  0.7815  0.8412
19277SOL     OW58408   1.515   5.643   7.188  0.7821  0.2338 -0.0880
19277SOL    HW158409   1.603   5.619   7.216  0.8711  0.9910  0.3016
19277SOL    HW258410   1.529   5.710   7.121  0.5798 -1.5478 -2.0232
19278SOL     OW58411   6.637   5.323   5.410  0.6003 -0.0657 -0.5875
19278SOL    HW158412   6.563   5.281   5.368 -1.1778  0.1197  2.0953
19278SOL    HW258413   6.646   5.408   5.367 -0.4683 -0.2642 -1.2165
19279SOL     OW58414   1.952   7.251   4.484 -0.1055  0.2344 -0.2871
19279SOL    HW158415   1.945   7.345   4.473 -0.3948  0.8998  3.9518
19279SOL    HW258416   1.861   7.221   4.493  0.0458  0.4739  3.2045
19280SOL     OW58417   5.090   7.508   1.687 -0.4319  0.5948  0.0417
19280SOL    HW158418   5.014   7.536   1.636 -0.5743  0.5543  0.2351
19280SOL    HW258419   5.161   7.565   1.656  0.0585 -0.9911 -1.9434
19281SOL     OW58420   1.310   0.846   1.048 -0.0151 -0.1876  0.1247
19281SOL    HW158421   1.316   0.853   0.953  0.5670 -2.3012 -0.0382
19281SOL    HW258422   1.364   0.771   1.071 -0.8680 -0.2966  2.0352
19282SOL     OW58423   0.069   0.892   0.067 -0.1484 -0.0243 -0.4892
19282SOL    HW158424   0.034   0.821   0.121 -0.5202  1.1852  0.9266
19282SOL    HW258425   0.009   0.964   0.080  1.9488  1.6176  0.7388
19283SOL     OW58426   5.284   4.433   9.096  0.0371 -0.8049 -0.0152
19283SOL    HW158427   5.244   4.451   9.011  1.2987  1.6263 -0.1799
19283SOL    HW258428   5.224   4.471   9.160  0.5938  0.1823 -0.0625
19284SOL     OW58429   1.231   6.336   7.708  0.5363  0.0528  0.2238
19284SOL    HW158430   1.179   6.300   7.635 -0.2561 -1.6665  1.5657
19284SOL    HW258431   1.320   6.340   7.674 -0.0676  0.8887 -1.3773
19285SOL     OW58432   9.847   4.473   2.626 -0.2439 -0.3936  0.3080
19285SOL    HW158433   9.931   4.501   2.591  0.6656 -1.1340  1.8073
19285SOL    HW258434   9.860   4.381   2.650 -2.0562 -1.1080 -1.1486
19286SOL     OW58435   0.346   8.173   9.093 -0.2837  0.0680 -0.0823
19286SOL    HW158436   0.440   8.187   9.086  0.2936 -2.8498  0.2263
19286SOL    HW258437   0.317   8.166   9.002 -0.1860  0.8667 -0.1779
19287SOL     OW58438   8.538   8.098   4.096 -0.2866 -0.0128  0.5936
19287SOL    HW158439   8.625   8.119   4.133 -0.0937  0.0437  0.1114
19287SOL    HW258440   8.487   8.178   4.109 -0.0376  0.2120  0.2021
19288SOL     OW58441   9.433   4.699   1.508 -0.1482  0.7669  0.5721
19288SOL    HW158442   9.408   4.792   1.511  1.7359  1.3658 -0.5514
19288SOL    HW258443   9.357   4.655   1.469 -0.7782  1.9468  0.4015
19289SOL     OW58444   8.460   9.150   2.894  0.2962  0.9332 -0.1891
19289SOL    HW158445   8.533   9.117   2.842  0.1072  1.0880 -0.5525
19289SOL    HW258446   8.486   9.238   2.919  0.3425  0.8955 -0.1036
19290SOL     OW58447   2.909   8.623   6.106  0.1886 -0.1031 -0.5518
19290SOL    HW158448   2.959   8.704   6.115  1.8146 -1.2074  1.4055
19290SOL    HW258449   2.819   8.648   6.126  0.5831  1.2884 -0.4235
19291SOL     OW58450   5.569   2.254   7.555 -0.4165  0.3690  0.4338
19291SOL    HW158451   5.474   2.254   7.561 -0.5197 -1.4640 -0.6129
19291SOL    HW258452   5.588   2.236   7.463  0.9440  1.0347  0.5616
19292SOL     OW58453   9.551   2.107   7.343  0.2024 -0.3436  0.2651
19292SOL    HW158454   9.545   2.051   7.420  0.4689 -0.6640  0.0537
19292SOL    HW258455   9.499   2.063   7.276 -0.9045  0.4657  0.5704
19293SOL     OW58456   5.208   2.030   3.310  0.7092  0.1108  0.0889
19293SOL    HW158457   5.221   1.984   3.227 -0.7525  0.7230 -0.5068
19293SOL    HW258458   5.241   2.119   3.294  2.2776 -0.3036  0.8181
19294SOL     OW58459   7.958   9.884   0.520 -0.4888 -0.2502 -0.3400
19294SOL    HW158460   7.876   9.917   0.555  0.3436 -0.2200  1.7219
19294SOL    HW258461   8.022   9.951   0.542  0.0538 -0.1036 -2.2314
19295SOL     OW58462   5.270   2.428   8.497 -0.3670  0.1986 -0.3610
19295SOL    HW158463   5.315   2.447   8.414  3.0837 -0.3480  1.2095
19295SOL    HW258464   5.282   2.507   8.549  2.9485 -1.4300  1.6669
19296SOL     OW58465   7.096   8.293   6.214 -0.2949  0.4552 -0.4003
19296SOL    HW158466   7.056   8.247   6.141 -0.4547  0.1360 -0.1158
19296SOL    HW258467   7.067   8.244   6.292  1.8483 -0.7046 -0.2744
19297SOL     OW58468   7.174   9.521   2.317  0.4472 -0.4205  0.3969
19297SOL    HW158469   7.193   9.593   2.257  0.9029  0.3477  1.4244
19297SOL    HW258470   7.223   9.446   2.281 -0.9265 -0.5670 -1.3065
19298SOL     OW58471   7.612   2.812   0.114 -0.3952 -0.4327 -0.0323
19298SOL    HW158472   7.642   2.782   0.200  1.1191  1.4011  0.1344
19298SOL    HW258473   7.516   2.806   0.119 -0.3761  0.2745  2.0276
19299SOL     OW58474   2.247   3.319   3.048 -0.4730  0.4262 -0.7560
19299SOL    HW158475   2.250   3.227   3.075 -0.1507  0.8487  0.7583
19299SOL    HW258476   2.248   3.316   2.952  2.3572 -1.0927 -0.7834
19300SOL     OW58477   3.519   2.646   8.566  0.2895  0.7649  0.3518
19300SOL    HW158478   3.596   2.597   8.538  0.5649  1.6241 -0.4503
19300SOL    HW258479   3.462   2.581   8.607  0.7283 -0.1885 -0.5103
19301SOL     OW58480   8.307   5.507   6.324 -0.1642 -0.2845  0.2160
19301SOL    HW158481   8.291   5.494   6.231  0.3878 -0.4652  0.1411
19301SOL    HW258482   8.329   5.420   6.357 -0.2950 -0.2108  0.5011
19302SOL     OW58483   5.446   9.915   3.768  0.0442 -0.6781 -0.1307
19302SOL    HW158484   5.382   9.925   3.838 -0.9684  0.3495 -1.1648
19302SOL    HW258485   5.394   9.899   3.689  1.1449 -1.4941 -0.7255
19303SOL     OW58486   3.654   2.254   3.216  0.2243 -0.2279  0.4169
19303SOL    HW158487   3.671   2.160   3.223  1.4083  0.0090  0.9692
19303SOL    HW258488   3.637   2.283   3.305 -2.0912 -0.2204  0.0452
19304SOL     OW58489   4.218   1.449   4.102  0.7313 -0.1817  0.5572
19304SOL    HW158490   4.214   1.449   4.198 -1.2128 -1.4336  0.5406
19304SOL    HW258491   4.219   1.541   4.078  0.2205  0.1639  1.7734
19305SOL     OW58492   4.078   6.717   9.994 -0.5689 -0.5519 -0.0186
19305SOL    HW158493   4.007   6.768  10.033  0.0673  1.1210 -0.9534
19305SOL    HW258494   4.083   6.746   9.903  0.3059 -1.7734 -0.3997
19306SOL     OW58495   1.971   5.901   0.184 -0.7135 -0.2807 -0.4423
19306SOL    HW158496   1.946   5.906   0.092 -2.3331 -1.2627 -0.1015
19306SOL    HW258497   1.978   5.807   0.202 -0.8229 -0.1138  0.5323
19307SOL     OW58498   3.577   3.742   5.612 -0.3269  0.3919 -0.2786
19307SOL    HW158499   3.576   3.829   5.571  0.6465  0.9366  0.7670
19307SOL    HW258500   3.504   3.695   5.572 -0.7988  1.6535 -0.9579
19308SOL     OW58501   5.883   7.054   5.923 -0.1345 -0.2961 -0.1358
19308SOL    HW158502   5.796   7.030   5.953  0.5233 -1.8770  0.6322
19308SOL    HW258503   5.898   6.997   5.847  0.3252 -0.2424 -0.0893
19309SOL     OW58504   7.014   6.587   6.039  0.7986  0.4180  0.4954
19309SOL    HW158505   6.961   6.648   5.987 -0.4021 -0.5638  0.5275
19309SOL    HW258506   7.026   6.631   6.123 -2.2434 -0.3621  1.4620
19310SOL     OW58507   3.518   3.014   6.305  0.4824  0.6154 -0.2662
19310SOL    HW158508   3.429   3.022   6.272  0.7909 -0.0524 -1.3027
19310SOL    HW258509   3.527   2.921   6.327  0.3718  0.9805  1.5236
19311SOL     OW58510   9.735   2.788   8.801 -1.0418  0.0810  0.0502
19311SOL    HW158511   9.761   2.707   8.758 -2.2655 -0.2891 -0.0384
19311SOL    HW258512   9.811   2.846   8.792 -0.6173 -0.6133 -0.9968
19312SOL     OW58513   5.228   7.615   1.084  0.0243  0.0178  0.3703
19312SOL    HW158514   5.195   7.688   1.032 -0.4633 -0.2441  0.3100
19312SOL    HW258515   5.312   7.593   1.042  0.0381  0.3539  0.2151
19313SOL     OW58516   3.616   9.616   8.367 -0.5652 -0.0111  0.5596
19313SOL    HW158517   3.586   9.533   8.405 -1.7960 -0.8160 -1.9646
19313SOL    HW258518   3.535   9.661   8.343  0.1235  0.4048 -1.1230
19314SOL     OW58519   0.122   1.705   6.869  0.0132 -0.3081 -0.4311
19314SOL    HW158520   0.136   1.800   6.874 -0.8950 -0.0897 -1.6278
19314SOL    HW258521   0.181   1.675   6.800  0.8845 -0.7639  0.4832
19315SOL     OW58522   9.592   4.421   6.599 -0.6563 -0.1419  0.5141
19315SOL    HW158523   9.631   4.455   6.680 -1.2482  0.5233  0.5276
19315SOL    HW258524   9.522   4.483   6.578  1.3382  1.4200 -2.1386
19316SOL     OW58525   5.385   0.958   3.343  0.6081  0.1846 -0.0781
19316SOL    HW158526   5.372   1.047   3.311 -0.9523  0.3202  0.8491
19316SOL    HW258527   5.331   0.953   3.422  2.1767 -0.9920  0.9641
19317SOL     OW58528   1.390   8.571   4.161 -0.7509 -0.0324 -0.3986
19317SOL    HW158529   1.309   8.579   4.110 -0.1575  0.4447 -1.2839
19317SOL    HW258530   1.456   8.618   4.110  0.9193 -3.1822 -1.4456
19318SOL     OW58531   6.368   7.340   5.556  0.3951 -0.0281  0.6791
19318SOL    HW158532   6.379   7.344   5.651 -2.9778  0.9728  1.1552
19318SOL    HW258533   6.300   7.275   5.542 -1.5158  2.0953 -0.6797
19319SOL     OW58534   6.963   2.899   0.377  0.3118 -0.0389 -0.3081
19319SOL    HW158535   7.058   2.896   0.389  0.6849  2.3032 -1.9336
19319SOL    HW258536   6.939   2.989   0.401 -1.6002 -0.7367  0.5632
19320SOL     OW58537   8.140   3.607   3.306  0.3638  0.2449 -0.0835
19320SOL    HW158538   8.122   3.638   3.218 -1.3294  0.2889  0.2543
19320SOL    HW258539   8.064   3.555   3.330  0.5485  0.6465  1.5364
19321SOL     OW58540   3.335   3.931   9.552 -0.3411  0.5169 -0.4244
19321SOL    HW158541   3.324   3.836   9.552  0.6488  0.3446  1.4557
19321SOL    HW258542   3.428   3.945   9.532  0.4389  0.7993  2.7749
19322SOL     OW58543   9.386   1.555   3.585 -0.0051 -0.0807 -0.1393
19322SOL    HW158544   9.371   1.627   3.524 -0.0533  0.5001  0.5368
19322SOL    HW258545   9.469   1.516   3.556 -0.7084 -0.7005 -1.3972
19323SOL     OW58546   4.419   4.001   6.477 -0.0199 -0.1477 -0.0416
19323SOL    HW158547   4.443   3.928   6.534  0.8534  0.5474  0.5164
19323SOL    HW258548   4.332   4.028   6.506  0.6113  0.5106  1.3184
19324SOL     OW58549   4.749   1.538   0.334  0.3651 -0.1371 -0.0622
19324SOL    HW158550   4.842   1.538   0.357  0.7768 -1.1624 -1.5586
19324SOL    HW258551   4.748   1.564   0.242 -0.6444 -2.0621 -0.6265
19325SOL     OW58552   9.608   7.085   3.751 -0.1217 -0.3756 -0.1894
19325SOL    HW158553   9.519   7.059   3.724 -0.5075  1.0386 -0.3649
19325SOL    HW258554   9.641   7.137   3.677  0.5483 -0.2375  0.1993
19326SOL     OW58555   5.387   8.751   5.562  0.3236  0.0063  0.5440
19326SOL    HW158556   5.422   8.828   5.517  1.2104 -0.4574  0.4171
19326SOL    HW258557   5.464   8.697   5.581 -0.2974 -0.9453  0.4429
19327SOL     OW58558   8.809   4.006   1.448 -0.1382 -0.0377 -0.4870
19327SOL    HW158559   8.805   4.080   1.388  0.5722  0.8750  0.5521
19327SOL    HW258560   8.903   3.989   1.459 -0.2671 -0.4166  0.0888
19328SOL     OW58561   3.051   6.733   1.772 -0.4485  0.3446 -0.2873
19328SOL    HW158562   3.089   6.653   1.735 -0.4646  0.6552 -0.9913
19328SOL    HW258563   3.121   6.770   1.826 -0.3872 -0.0611 -0.0833
19329SOL     OW58564   5.099   2.881   3.366  0.2687  0.2265 -0.3905
19329SOL    HW158565   5.083   2.931   3.286  0.4458  2.8814  1.1118
19329SOL    HW258566   5.052   2.929   3.434  2.5473 -0.1657  1.6093
19330SOL     OW58567   7.823   6.064   1.335 -0.2292 -0.1020 -0.2832
19330SOL    HW158568   7.809   6.152   1.369  0.2315  0.2148 -0.9097
19330SOL    HW258569   7.907   6.068   1.291  0.2084 -1.0824  0.4163
19331SOL     OW58570   2.845   1.818   9.677 -0.3695 -0.0409 -0.5226
19331SOL    HW158571   2.788   1.756   9.633 -0.1613 -1.4032  0.9974
19331SOL    HW258572   2.805   1.831   9.763  1.7937 -1.4704  0.8138
19332SOL     OW58573   6.030   1.568   9.656 -0.2734 -0.4228  0.0927
19332SOL    HW158574   6.062   1.637   9.598 -0.9606 -1.0354 -1.0597
19332SOL    HW258575   5.952   1.604   9.697 -0.2256 -0.2665  0.0451
19333SOL     OW58576   4.984   9.759   8.387 -0.0408 -0.4133 -0.5153
19333SOL    HW158577   4.906   9.714   8.356  1.1604 -3.3675  0.3603
19333SOL    HW258578   4.997   9.725   8.476  2.4539 -0.4261 -0.8066
19334SOL     OW58579   1.695   7.368   2.758 -0.1665 -0.0130  0.4037
19334SOL    HW158580   1.741   7.301   2.807  0.8043  0.5415  0.2784
19334SOL    HW258581   1.750   7.384   2.681 -1.1739 -0.1799 -0.3803
19335SOL     OW58582   4.077   0.239   5.946 -0.4909  0.0138 -0.1779
19335SOL    HW158583   4.102   0.327   5.975 -2.4802  0.0748  1.6319
19335SOL    HW258584   3.989   0.250   5.910 -0.7827 -1.2355  0.1027
19336SOL     OW58585   3.709   2.031   0.329 -0.2921 -0.4609 -0.1646
19336SOL    HW158586   3.684   1.955   0.276  2.0119 -0.3972 -1.4613
19336SOL    HW258587   3.771   2.079   0.275 -2.7116  3.2350 -0.0176
19337SOL     OW58588   0.175   1.967   7.761 -0.2914  0.4561 -0.2785
19337SOL    HW158589   0.242   2.033   7.776 -0.8483  0.8440  0.5955
19337SOL    HW258590   0.093   2.009   7.787 -0.9004  0.0255 -1.4024
19338SOL     OW58591   8.598   4.702   8.333 -0.4689  0.0118 -0.1796
19338SOL    HW158592   8.631   4.736   8.250 -2.1097 -3.3758 -2.4692
19338SOL    HW258593   8.505   4.724   8.334 -0.3713  0.4948  1.1020
19339SOL     OW58594   2.202   1.768   0.114  0.5251  0.1913  0.1365
19339SOL    HW158595   2.207   1.802   0.203  0.0704 -0.7489  0.5362
19339SOL    HW258596   2.123   1.807   0.077 -0.8483 -1.4967  1.0984
19340SOL     OW58597   8.325   6.505   9.670 -0.0744  0.3945 -0.4835
19340SOL    HW158598   8.348   6.468   9.755 -0.2161 -0.0200 -0.6230
19340SOL    HW258599   8.232   6.527   9.678  0.1700  1.3821 -0.1683
19341SOL     OW58600   8.781   0.100   5.446  0.4923  0.0302  0.0812
19341SOL    HW158601   8.740   0.026   5.402  0.2096  1.0186 -1.3843
19341SOL    HW258602   8.716   0.171   5.440  1.7247  1.1373 -0.8320
19342SOL     OW58603   1.954   4.962   2.348 -0.3519  0.4355  0.1042
19342SOL    HW158604   1.988   5.046   2.319 -0.5829  0.3582 -0.3989
19342SOL    HW258605   1.936   4.914   2.267 -1.7261  0.4948  0.3517
19343SOL     OW58606   9.886   3.794   2.550 -0.1577 -0.3830 -0.5330
19343SOL    HW158607   9.916   3.787   2.640 -0.8102 -0.7154 -0.3349
19343SOL    HW258608   9.960   3.763   2.498  0.0576 -0.6325 -0.0863
19344SOL     OW58609   4.901   4.948   1.100 -0.8636  0.4411  0.0411
19344SOL    HW158610   4.944   4.968   1.017 -0.0268  1.1499  0.6337
19344SOL    HW258611   4.834   4.883   1.077  0.0210 -0.1234 -1.0213
19345SOL     OW58612   4.472   9.891   5.377  0.4255  0.3306  0.1629
19345SOL    HW158613   4.500   9.942   5.453 -0.5874  0.7281  0.2793
19345SOL    HW258614   4.394   9.845   5.406  0.8168 -0.6155 -0.2221
19346SOL     OW58615   5.972   4.283   1.788  0.1676 -0.1361  0.8626
19346SOL    HW158616   6.032   4.324   1.850  1.2983 -0.4553 -0.0101
19346SOL    HW258617   5.955   4.196   1.825  0.3194 -0.0888  1.0448
19347SOL     OW58618   4.898   2.914   3.031 -0.6108 -0.0053  0.4081
19347SOL    HW158619   4.861   2.986   2.980 -0.9906  0.0207  0.7193
19347SOL    HW258620   4.910   2.843   2.967  0.9874  0.7459 -0.1790
19348SOL     OW58621   0.230   5.381   8.029  0.3600  0.0464 -0.0213
19348SOL    HW158622   0.275   5.463   8.007  0.9874 -0.3952 -0.4210
19348SOL    HW258623   0.140   5.408   8.050  0.4615  0.7941 -0.5026
19349SOL     OW58624   9.568   6.918   5.803 -0.1586  0.2425  0.4675
19349SOL    HW158625   9.512   6.974   5.749 -1.8549 -0.0341  1.8513
19349SOL    HW258626   9.617   6.866   5.740 -0.5807  1.3398 -0.8197
19350SOL     OW58627   0.619   1.077   2.174 -0.3977  0.0153  0.0483
19350SOL    HW158628   0.632   1.082   2.269 -1.6070  1.4228  0.1919
19350SOL    HW258629   0.684   1.015   2.143  1.5169  1.1784  1.5236
19351SOL     OW58630   6.498   6.054   7.623 -0.3202  0.2080  0.1444
19351SOL    HW158631   6.523   6.134   7.577 -2.7080  0.5370 -0.7312
19351SOL    HW258632   6.535   6.064   7.711  1.3051  1.2101 -0.5966
19352SOL     OW58633   4.842   2.662   3.474  0.3288 -1.1548 -0.0276
19352SOL    HW158634   4.860   2.569   3.486  1.0866 -1.1305 -0.8282
19352SOL    HW258635   4.784   2.665   3.397  0.6102 -0.9440 -0.2326
19353SOL     OW58636   3.964   2.672   6.980 -0.0149 -0.1545  0.4014
19353SOL    HW158637   3.899   2.737   6.952 -0.3380 -0.1248  1.2166
19353SOL    HW258638   4.023   2.721   7.038  0.8748 -0.1267 -0.4821
19354SOL     OW58639   8.801   9.931   1.564 -0.4649 -0.1557  0.6857
19354SOL    HW158640   8.818   9.888   1.480  0.4923 -0.1480  0.8626
19354SOL    HW258641   8.761  10.014   1.541  1.8315  0.8580  0.0861
19355SOL     OW58642   8.950   7.458   8.711 -0.5465  0.4964  0.0063
19355SOL    HW158643   9.020   7.411   8.755 -1.0597  0.3819  0.7286
19355SOL    HW258644   8.992   7.503   8.638  0.2416  0.2994  0.3368
19356SOL     OW58645   5.404   1.988   4.585 -0.1526  0.5002 -0.3432
19356SOL    HW158646   5.491   2.024   4.600 -0.6525  1.1392  1.2390
19356SOL    HW258647   5.353   2.063   4.553  0.0832 -0.0970 -2.2518
19357SOL     OW58648   0.577   9.247   2.887  0.0590 -0.1224 -0.4239
19357SOL    HW158649   0.548   9.165   2.927 -0.5416  0.1139 -0.3668
19357SOL    HW258650   0.616   9.296   2.959 -0.0826 -0.1298 -0.3416
19358SOL     OW58651   2.094   5.260   1.666  0.0817 -0.0895  0.0774
19358SOL    HW158652   2.065   5.325   1.603 -1.1239 -0.5673  0.1061
19358SOL    HW258653   2.089   5.176   1.619 -0.0094 -0.3498  0.5374
19359SOL     OW58654   3.444   1.880   8.215  0.1567 -0.2784  0.3138
19359SOL    HW158655   3.374   1.892   8.279  1.0409 -1.2434  1.5047
19359SOL    HW258656   3.446   1.963   8.167 -0.3793  0.5814  1.7011
19360SOL     OW58657   3.574   4.437   3.818  0.4279  0.4240 -0.1405
19360SOL    HW158658   3.632   4.450   3.742 -0.8997  0.2458 -1.2214
19360SOL    HW258659   3.498   4.392   3.782 -0.5764  1.0277  1.1676
19361SOL     OW58660   1.098   5.775   0.843 -0.0489  0.8918  0.0339
19361SOL    HW158661   1.037   5.758   0.771 -0.5448  0.6786  0.5030
19361SOL    HW258662   1.045   5.816   0.911 -0.6834 -3.0094  2.1657
19362SOL     OW58663   8.823   3.233   6.739  0.1145  0.0606 -0.2206
19362SOL    HW158664   8.740   3.234   6.786  0.2209  0.6168 -0.0391
19362SOL    HW258665   8.799   3.209   6.649 -0.5503  2.3597 -0.7142
19363SOL     OW58666   2.968   2.318   2.129  0.1163  0.7276  0.7572
19363SOL    HW158667   2.961   2.390   2.067  1.1248  1.4685  1.4737
19363SOL    HW258668   2.899   2.257   2.102 -0.2970  1.6163 -0.2943
19364SOL     OW58669   6.828   0.445   4.874  0.0863 -0.6728  0.0103
19364SOL    HW158670   6.802   0.472   4.786  0.3255  0.3092  0.2328
19364SOL    HW258671   6.917   0.479   4.885  0.7976 -2.3719 -0.0375
19365SOL     OW58672   5.373   4.918   9.187  0.4106 -0.3097  0.1971
19365SOL    HW158673   5.426   4.850   9.146  0.2830 -0.2196 -0.1208
19365SOL    HW258674   5.427   4.997   9.182 -0.0371 -0.0480 -0.7924
19366SOL     OW58675   1.294   5.969   0.865 -0.2837  0.2198 -0.4661
19366SOL    HW158676   1.250   5.884   0.861  0.8670 -0.3781 -1.0899
19366SOL    HW258677   1.385   5.949   0.843 -0.1068  1.7009 -1.1557
19367SOL     OW58678   9.522   5.122   1.264  0.2605  0.1266  0.1509
19367SOL    HW158679   9.512   5.066   1.341 -2.5275 -0.2785 -0.3897
19367SOL    HW258680   9.562   5.065   1.198 -0.3864 -0.5274  0.3143
19368SOL     OW58681   6.164   0.133   6.510 -0.6919  0.4173 -0.0267
19368SOL    HW158682   6.207   0.106   6.591  0.9594  0.3499 -0.8729
19368SOL    HW258683   6.234   0.129   6.444 -1.6761  1.7265 -1.1970
19369SOL     OW58684   4.927   3.704   8.265 -0.1293 -0.0483  0.1154
19369SOL    HW158685   4.892   3.785   8.303  1.4504  0.7227  0.0458
19369SOL    HW258686   4.916   3.714   8.171 -0.4609 -0.1766  0.1404
19370SOL     OW58687   2.363   7.046   5.107  0.4953  0.4114 -0.2414
19370SOL    HW158688   2.358   7.109   5.178 -0.1582 -0.5729  0.6111
19370SOL    HW258689   2.299   7.077   5.042  1.3967  1.5407 -0.6115
19371SOL     OW58690   1.219   9.905   5.673  0.1560 -0.3070  0.4430
19371SOL    HW158691   1.264   9.952   5.743  1.3425  1.1650 -1.1883
19371SOL    HW258692   1.131   9.941   5.673  0.4137  0.3424  0.6149
19372SOL     OW58693   7.008   7.674   2.230 -0.3003 -0.4657 -0.3276
19372SOL    HW158694   7.092   7.644   2.262 -0.6246 -2.1358 -0.9336
19372SOL    HW258695   7.010   7.656   2.136 -1.7599 -1.7241 -0.1704
19373SOL     OW58696   9.578   1.028   2.076 -0.1064 -0.2524 -0.8970
19373SOL    HW158697   9.573   1.110   2.125  1.3181  0.5308 -1.9915
19373SOL    HW258698   9.576   0.960   2.143 -1.3774  0.6495  0.0308
19374SOL     OW58699   0.655   5.836   3.372 -0.6194 -0.6479  0.3216
19374SOL    HW158700   0.681   5.845   3.280  1.8322  2.2728  1.1295
19374SOL    HW258701   0.564   5.867   3.374 -1.0213 -1.6420 -1.2150
19375SOL     OW58702   6.185   3.891   7.848  0.7978 -0.0311  0.3764
19375SOL    HW158703   6.098   3.855   7.830  0.5490  0.7266 -0.0185
19375SOL    HW258704   6.167   3.979   7.882  1.3740 -0.3604  1.5797
19376SOL     OW58705   7.950   4.376   2.420  0.2816 -0.1477  0.3267
19376SOL    HW158706   8.013   4.444   2.397  2.8001 -2.1483  0.8653
19376SOL    HW258707   7.980   4.342   2.504  0.9135 -3.7538 -1.1454
19377SOL     OW58708   3.135   1.526   5.691 -0.3400  0.1655  0.3313
19377SOL    HW158709   3.205   1.467   5.665  0.3160  1.0028  0.1670
19377SOL    HW258710   3.176   1.587   5.753 -0.9619  0.5462  0.3765
19378SOL     OW58711   8.041   7.107   1.058 -0.5379  0.7983  0.3711
19378SOL    HW158712   7.981   7.100   1.132  0.8330 -1.1465  1.4001
19378SOL    HW258713   8.126   7.080   1.094  0.3322  0.5476 -1.7351
19379SOL     OW58714   9.852   7.834   8.541  0.1242 -0.1474 -0.1219
19379SOL    HW158715   9.919   7.871   8.598  0.5517 -2.0076  0.6572
19379SOL    HW258716   9.777   7.819   8.598 -1.2324  2.3148 -1.0643
19380SOL     OW58717   6.960   4.929   5.578  0.1122 -0.3127 -0.4946
19380SOL    HW158718   7.031   4.959   5.522 -0.6727  1.4337 -0.6325
19380SOL    HW258719   6.908   5.008   5.595  0.1804 -0.8114  2.4934
19381SOL     OW58720   8.968   3.713   3.507 -0.2437  0.0567  0.0221
19381SOL    HW158721   9.059   3.735   3.525 -0.4590 -0.2536  1.6344
19381SOL    HW258722   8.970   3.623   3.477  0.1433  0.6326 -1.7875
19382SOL     OW58723   8.526   8.681   0.624  0.0728 -0.1593  0.5256
19382SOL    HW158724   8.539   8.763   0.576 -1.2986 -0.3473 -0.2087
19382SOL    HW258725   8.584   8.619   0.581  0.4442  0.2033  0.4979
19383SOL     OW58726   6.358   7.291   9.666 -0.5755  0.4198 -0.4491
19383SOL    HW158727   6.270   7.328   9.658 -0.6669  0.6427  1.2361
19383SOL    HW258728   6.352   7.229   9.739  0.4201 -0.3743 -1.0022
19384SOL     OW58729   9.829   9.801   7.448 -0.4420  0.1039  0.0004
19384SOL    HW158730   9.850   9.895   7.442 -0.7748  0.2486  0.9644
19384SOL    HW258731   9.821   9.784   7.542 -2.6345 -0.3849 -0.2270
19385SOL     OW58732   3.540   4.676   4.597  0.1408 -0.0155 -0.1185
19385SOL    HW158733   3.510   4.755   4.554  0.0909  1.2906  2.1467
19385SOL    HW258734   3.588   4.707   4.674  0.9121 -2.1739  0.3424
19386SOL     OW58735   7.560   6.832   2.600  0.1280 -0.0779  0.1954
19386SOL    HW158736   7.479   6.883   2.602  0.9692  1.2957  0.1777
19386SOL    HW258737   7.546   6.763   2.664 -1.6928 -0.8772 -0.9716
19387SOL     OW58738   8.750   8.291   3.948  0.2398 -0.3619 -0.3012
19387SOL    HW158739   8.845   8.281   3.956  0.0725 -1.4125  0.6232
19387SOL    HW258740   8.738   8.364   3.887  1.6430  0.8824  0.8353
19388SOL     OW58741   5.613   0.533   7.332  0.3974 -0.1422  0.3462
19388SOL    HW158742   5.566   0.470   7.387 -0.3885  1.6696  1.8691
19388SOL    HW258743   5.625   0.609   7.389  0.7048  1.3520 -1.6278
19389SOL     OW58744   0.077   3.263   5.993  0.0867 -0.0009  0.5967
19389SOL    HW158745   0.083   3.294   6.083 -1.0232 -0.1148  0.7306
19389SOL    HW258746   0.028   3.180   6.000 -1.5200  0.8237 -0.2491
19390SOL     OW58747   1.338   5.785   0.368 -0.0794 -0.0051 -0.0848
19390SOL    HW158748   1.386   5.827   0.439 -0.0674  0.3151 -0.2811
19390SOL    HW258749   1.372   5.825   0.288  0.6685 -1.1117 -0.3480
19391SOL     OW58750   8.624   4.945   1.839  0.5109  0.0835 -0.6944
19391SOL    HW158751   8.629   4.895   1.757  0.2548 -2.5302  0.7842
19391SOL    HW258752   8.701   4.917   1.889 -0.4088  0.0540  0.7591
19392SOL     OW58753   4.361   9.096   3.214  0.2243 -0.5554  0.0987
19392SOL    HW158754   4.438   9.116   3.161 -1.8357  0.5400 -2.6964
19392SOL    HW258755   4.374   9.146   3.295  0.9134  2.4654 -1.7098
19393SOL     OW58756   7.547   5.177   1.406  0.0569  0.5345  0.1010
19393SOL    HW158757   7.625   5.158   1.353 -0.9253  0.8219 -1.5243
19393SOL    HW258758   7.476   5.182   1.342 -1.3007  0.3122  1.5394
19394SOL     OW58759   6.580   0.392   1.543  0.0040  0.4802 -0.1892
19394SOL    HW158760   6.504   0.413   1.490  0.2734 -0.8961 -1.1741
19394SOL    HW258761   6.544   0.359   1.626 -0.4958 -0.4218 -0.7499
19395SOL     OW58762   3.687   0.755   5.614 -0.0239 -0.4300  0.5107
19395SOL    HW158763   3.756   0.820   5.627 -0.0657 -0.2918  0.0330
19395SOL    HW258764   3.673   0.719   5.702 -1.6812  1.8635  1.2701
19396SOL     OW58765   0.874   1.838   5.040 -0.0171  0.1175  0.3557
19396SOL    HW158766   0.887   1.745   5.019 -3.6766 -0.4530 -0.0172
19396SOL    HW258767   0.943   1.857   5.104  1.8850 -2.3486 -0.7856
19397SOL     OW58768   1.184   8.159   8.426  0.4214  0.4488 -0.6637
19397SOL    HW158769   1.091   8.136   8.421  0.7434 -1.1859  0.1955
19397SOL    HW258770   1.186   8.238   8.479 -0.5547  1.1730 -1.6591
19398SOL     OW58771   6.493   5.625   3.132  0.2312  0.1534 -0.0300
19398SOL    HW158772   6.463   5.699   3.079  0.2314  0.5973  0.5683
19398SOL    HW258773   6.496   5.660   3.221 -0.5866 -0.8081  0.3962
19399SOL     OW58774   2.640   9.164   3.008 -0.1904 -0.1911  0.1727
19399SOL    HW158775   2.732   9.137   3.009 -0.7868 -2.6065 -1.2505
19399SOL    HW258776   2.618   9.179   3.100  1.3136 -0.7153  0.6501
19400SOL     OW58777  -0.016   6.574   5.762 -0.4203  0.0764  0.7951
19400SOL    HW158778   0.015   6.631   5.832 -1.8710  0.3357  1.2638
19400SOL    HW258779   0.058   6.567   5.702  0.8648 -0.1450  2.3298
19401SOL     OW58780   0.542   4.454   5.837 -0.1287 -0.2944 -0.0505
19401SOL    HW158781   0.495   4.396   5.777  0.6740  1.0036 -2.0265
19401SOL    HW258782   0.526   4.542   5.803  1.3219  0.4004  0.9409
19402SOL     OW58783   7.302   8.670   3.411 -0.1577  0.4055  0.1388
19402SOL    HW158784   7.380   8.620   3.385 -0.1418 -0.6753  2.0259
19402SOL    HW258785   7.336   8.752   3.445 -0.0756  1.1403 -1.6360
19403SOL     OW58786   1.479   9.605   9.345 -0.4652 -0.0343  0.5287
19403SOL    HW158787   1.472   9.628   9.252 -1.7684 -0.1366  0.5868
19403SOL    HW258788   1.547   9.538   9.347 -0.5214 -0.1428 -0.3830
19404SOL     OW58789   4.509   6.214   9.460  0.1201  0.5850 -0.2599
19404SOL    HW158790   4.493   6.298   9.503  1.6943  0.3691  0.8102
19404SOL    HW258791   4.459   6.151   9.511 -0.2370  0.7122 -0.4455
19405SOL     OW58792   7.706   5.189   3.446  0.4702  0.4682 -0.1645
19405SOL    HW158793   7.616   5.198   3.477  0.0325 -1.4754 -0.7435
19405SOL    HW258794   7.749   5.136   3.513 -0.0554 -2.3782 -1.8799
19406SOL     OW58795   7.818   4.260   5.982 -0.4632  0.2277 -0.6367
19406SOL    HW158796   7.810   4.247   6.076  0.1099 -2.8681 -0.9130
19406SOL    HW258797   7.734   4.297   5.956 -1.2851 -0.4509  0.8805
19407SOL     OW58798   6.686   4.900   7.642 -0.6314  0.1323 -0.5450
19407SOL    HW158799   6.678   4.863   7.554 -0.8327 -1.2225  0.0184
19407SOL    HW258800   6.719   4.828   7.695  2.0812  1.6384 -0.0064
19408SOL     OW58801   1.238   0.649   2.081  0.1715  0.5936 -0.4249
19408SOL    HW158802   1.324   0.625   2.117  0.3208 -0.2841 -1.3360
19408SOL    HW258803   1.184   0.571   2.094 -0.5292  1.1719  0.2230
19409SOL     OW58804   3.844   3.986   1.160  0.5908 -0.2623 -0.1725
19409SOL    HW158805   3.760   4.016   1.127  0.7752  1.1387  0.5511
19409SOL    HW258806   3.903   3.991   1.085  0.0245 -1.3909 -0.7206
19410SOL     OW58807   6.657   0.801   7.079  0.1736 -0.1201  0.3404
19410SOL    HW158808   6.700   0.844   7.006 -0.2420  0.5517  0.4873
19410SOL    HW258809   6.677   0.708   7.067  0.8949  0.0848 -0.0968
19411SOL     OW58810   6.280   3.274   4.807  0.2932  0.5086  0.5315
19411SOL    HW158811   6.353   3.312   4.856 -0.0655 -0.4407  1.8489
19411SOL    HW258812   6.207   3.274   4.868 -0.5413  0.4739 -0.4357
19412SOL     OW58813   5.574   7.092   4.704 -0.2057 -0.1659 -0.0781
19412SOL    HW158814   5.649   7.083   4.763  1.0407 -1.8505 -1.8040
19412SOL    HW258815   5.513   7.023   4.731 -0.3809  0.1288  0.2780
19413SOL     OW58816   9.518   7.660   3.932 -0.2976 -0.3836 -0.0690
19413SOL    HW158817   9.497   7.594   3.866 -1.1354 -0.6453  0.4383
19413SOL    HW258818   9.432   7.692   3.961  0.0584 -0.3411  0.9609
19414SOL     OW58819   0.222   0.638   0.361 -0.0915  0.1283 -0.0466
19414SOL    HW158820   0.260   0.695   0.294  0.3394 -1.3893 -1.1531
19414SOL    HW258821   0.128   0.651   0.353 -0.0565 -0.1756 -1.1026
19415SOL     OW58822   8.095   3.653   6.411  0.0625 -0.1074 -0.1239
19415SOL    HW158823   8.055   3.582   6.360  0.7397 -0.6905  0.1416
19415SOL    HW258824   8.188   3.649   6.389  0.1658  0.4409  0.2054
19416SOL     OW58825   6.983   9.855   6.377  0.3174 -0.0340 -0.5254
19416SOL    HW158826   7.035   9.774   6.375  0.3975  0.0279 -1.5975
19416SOL    HW258827   7.040   9.921   6.337 -0.7953 -0.1151 -2.3640
19417SOL     OW58828   7.918   2.467   6.648 -0.4425  0.2022  0.0961
19417SOL    HW158829   7.958   2.472   6.561 -0.4377 -0.5349  0.0504
19417SOL    HW258830   7.990   2.487   6.708 -0.3128  0.1796 -0.0485
19418SOL     OW58831   3.232   4.618   3.847 -0.2930  0.1498  0.8256
19418SOL    HW158832   3.161   4.559   3.822 -0.6378  0.7405  0.3836
19418SOL    HW258833   3.264   4.583   3.930 -0.5484 -0.6037  0.6143
19419SOL     OW58834   2.674   7.569   8.396  0.2278  0.0816  0.1078
19419SOL    HW158835   2.728   7.581   8.318 -0.6000 -4.0136 -1.3748
19419SOL    HW258836   2.720   7.617   8.465  2.4410  1.6917 -2.3066
19420SOL     OW58837   6.420   7.814   4.490 -0.4501 -0.0196 -0.4666
19420SOL    HW158838   6.413   7.723   4.517  1.5411 -0.1116 -0.0648
19420SOL    HW258839   6.368   7.820   4.410 -2.8896 -0.8006  0.9645
19421SOL     OW58840   0.539   4.255   6.003  0.0030  0.0346 -0.1374
19421SOL    HW158841   0.526   4.346   5.977  0.5914 -0.1735 -1.2213
19421SOL    HW258842   0.453   4.215   5.991  0.2386 -0.0429 -1.8101
19422SOL     OW58843   0.860   4.203   2.608 -0.5740 -0.1027  0.0654
19422SOL    HW158844   0.915   4.260   2.662 -1.0686 -0.3059  0.8027
19422SOL    HW258845   0.898   4.208   2.520 -0.1564  0.7572  0.2902
19423SOL     OW58846   4.442   2.517   8.349  0.0731  0.3254  0.7812
19423SOL    HW158847   4.532   2.547   8.331  0.1498 -0.3056  0.0246
19423SOL    HW258848   4.402   2.588   8.398  1.1539  0.3991  1.6000
19424SOL     OW58849   2.101   4.674   8.129 -0.4881 -0.8400 -0.2138
19424SOL    HW158850   2.010   4.650   8.143 -0.3681 -1.9270 -1.1741
19424SOL    HW258851   2.110   4.680   8.033  0.4114 -0.5992 -0.1230
19425SOL     OW58852   6.187   4.477   9.325 -0.6988 -0.6760  0.1307
19425SOL    HW158853   6.199   4.385   9.302 -0.2941 -0.7063  0.4337
19425SOL    HW258854   6.249   4.524   9.269  1.4452 -0.8866  2.1403
19426SOL     OW58855   7.814   2.552   3.179 -0.0587 -0.2041  1.0030
19426SOL    HW158856   7.793   2.615   3.110  0.7776 -2.4998 -1.5165
19426SOL    HW258857   7.842   2.606   3.253  0.5686  2.3791 -0.9899
19427SOL     OW58858   6.821   0.166   3.346 -0.0857 -0.4180  0.0685
19427SOL    HW158859   6.905   0.131   3.375  0.5824  1.4118  0.4655
19427SOL    HW258860   6.843   0.226   3.275 -0.8874  0.9649  0.9326
19428SOL     OW58861   3.051   4.585   1.831 -0.5038 -0.2416 -0.1020
19428SOL    HW158862   3.061   4.493   1.855 -1.0809  0.2619  2.3955
19428SOL    HW258863   3.135   4.625   1.853 -1.2288  0.3408  1.7781
19429SOL     OW58864   9.835   9.104   1.055  0.6579 -0.5044 -0.2672
19429SOL    HW158865   9.892   9.073   1.125 -1.3618  0.7246  2.1061
19429SOL    HW258866   9.822   9.197   1.073 -1.4216 -0.5428 -1.1409
19430SOL     OW58867   3.318   1.373   5.588  0.0746  0.4652  0.4386
19430SOL    HW158868   3.332   1.279   5.598 -0.4005  0.4348  0.8186
19430SOL    HW258869   3.317   1.387   5.493 -0.0253  0.0630  0.3795
19431SOL     OW58870   2.853   2.506   8.949  0.3273  0.1230 -0.4832
19431SOL    HW158871   2.885   2.419   8.924  0.1835  0.0747 -0.5032
19431SOL    HW258872   2.884   2.564   8.879  0.8170  0.1665 -0.2310
19432SOL     OW58873   4.234   5.731   2.758 -0.1669 -0.1087 -0.2809
19432SOL    HW158874   4.227   5.668   2.686 -0.3068 -1.0788  0.5629
19432SOL    HW258875   4.150   5.775   2.760  0.0424  0.3442 -1.0820
19433SOL     OW58876   9.676   8.475   1.701  0.4789 -0.1850  0.4682
19433SOL    HW158877   9.674   8.566   1.670 -2.1191 -0.5458 -0.7105
19433SOL    HW258878   9.735   8.476   1.776  1.1096  2.3199  0.0080
19434SOL     OW58879   4.981   8.388   3.251 -0.6747 -0.2748 -0.1251
19434SOL    HW158880   4.948   8.422   3.168  0.3769  1.4837  0.1261
19434SOL    HW258881   4.980   8.463   3.310  0.6072 -0.9788  0.8450
19435SOL     OW58882   7.383   9.202   3.480 -0.0272  0.7963 -0.2190
19435SOL    HW158883   7.463   9.254   3.489 -0.2038  0.8092  1.8067
19435SOL    HW258884   7.345   9.231   3.397  1.5046  1.5633 -0.7070
19436SOL     OW58885   7.636   9.321   4.104  0.1780  0.6568 -0.8887
19436SOL    HW158886   7.664   9.252   4.164  1.0795  0.0082 -1.9849
19436SOL    HW258887   7.653   9.403   4.151 -0.0383  0.1520  0.0879
19437SOL     OW58888   7.304   7.046   6.743  0.3168 -0.7977  0.2445
19437SOL    HW158889   7.388   7.062   6.786 -0.6902  1.0742  1.6728
19437SOL    HW258890   7.318   7.074   6.653  1.4134 -1.1436  0.2912
19438SOL     OW58891   4.129   7.111   5.393  0.1619 -0.3081 -0.5381
19438SOL    HW158892   4.141   7.035   5.334  1.1455  0.3143 -1.1797
19438SOL    HW258893   4.039   7.103   5.425  0.0791 -1.4612 -1.0048
19439SOL     OW58894   8.176   1.548   1.322 -0.4648  0.7367  0.2916
19439SOL    HW158895   8.190   1.635   1.358  0.8085  0.4497  0.5202
19439SOL    HW258896   8.259   1.525   1.280 -0.9847 -0.1186 -0.2965
19440SOL     OW58897   8.100   1.506   6.788  0.5381 -0.6295  0.3025
19440SOL    HW158898   8.078   1.422   6.828  1.7613 -1.0476  0.1111
19440SOL    HW258899   8.193   1.518   6.807  0.9413 -0.4217 -1.6772
19441SOL     OW58900   8.292   3.473   9.525  0.1473  0.5353 -0.6126
19441SOL    HW158901   8.215   3.527   9.544  0.2980  0.5445 -0.0045
19441SOL    HW258902   8.357   3.501   9.590  0.3306 -0.1587 -0.4960
19442SOL     OW58903   3.520   2.901   3.487 -0.3753  0.2633 -0.3387
19442SOL    HW158904   3.573   2.930   3.413  0.2865  1.9503  0.7441
19442SOL    HW258905   3.528   2.806   3.486 -0.1940  0.2535 -2.2702
19443SOL     OW58906   8.043   2.819   8.455 -0.1196 -0.5354  0.2104
19443SOL    HW158907   8.110   2.800   8.389 -1.0617  0.2275 -0.9929
19443SOL    HW258908   8.088   2.875   8.519  0.6704 -0.8986 -0.0174
19444SOL     OW58909   7.884   3.738   7.165  0.0869 -0.2300  0.0245
19444SOL    HW158910   7.910   3.830   7.165 -0.2255 -0.1334  0.9485
19444SOL    HW258911   7.829   3.728   7.243  0.2652 -1.2408  0.0351
19445SOL     OW58912   2.320   0.158   1.185 -0.0078 -0.2613  0.0197
19445SOL    HW158913   2.226   0.140   1.182  0.0893 -1.0181  0.9988
19445SOL    HW258914   2.327   0.252   1.203 -0.5715 -0.2268  0.0639
19446SOL     OW58915   9.704   7.031   0.294  0.5371 -0.7152 -0.4479
19446SOL    HW158916   9.755   7.112   0.306  0.7399 -1.0184  0.8351
19446SOL    HW258917   9.712   7.012   0.201  0.7048  0.6083 -0.7243
19447SOL     OW58918   6.745   0.606   2.260 -0.4922 -0.8133  0.4747
19447SOL    HW158919   6.719   0.669   2.192 -1.0084 -1.3471  0.1680
19447SOL    HW258920   6.748   0.657   2.341  0.6864 -0.0336 -0.0254
19448SOL     OW58921   1.479   1.192   5.869 -0.4671 -0.4333 -0.1512
19448SOL    HW158922   1.505   1.220   5.957  0.1805  0.0939 -0.5036
19448SOL    HW258923   1.414   1.257   5.842  0.5508  0.3759 -0.7077
19449SOL     OW58924   8.037   2.667   8.979  0.4284 -0.2982 -0.4145
19449SOL    HW158925   7.970   2.728   8.951  0.5805 -0.2845 -0.7437
19449SOL    HW258926   8.066   2.623   8.899 -1.0975 -2.2611  0.0272
19450SOL     OW58927   4.989   8.087   7.768  0.0830 -0.3406 -0.3593
19450SOL    HW158928   4.994   8.148   7.694  0.5083 -0.6762 -0.6078
19450SOL    HW258929   4.896   8.086   7.791  0.0191  0.1409 -0.5710
19451SOL     OW58930   5.480   8.021   9.302  0.1929 -1.0073 -0.4343
19451SOL    HW158931   5.535   7.950   9.268 -0.2412 -1.2579 -0.6312
19451SOL    HW258932   5.539   8.096   9.310  0.3526 -0.9941 -1.5725
19452SOL     OW58933   9.248   0.693   4.348  0.6106  0.4980  0.0783
19452SOL    HW158934   9.298   0.670   4.427 -0.4449  0.3471  0.7209
19452SOL    HW258935   9.168   0.641   4.355  0.8999 -0.2112 -1.5800
19453SOL     OW58936   9.216   5.590   9.690 -0.1111  0.2465  0.5311
19453SOL    HW158937   9.163   5.622   9.762 -0.3074 -1.0660  0.9962
19453SOL    HW258938   9.245   5.503   9.718 -0.6255 -0.5181 -1.1808
19454SOL     OW58939   5.997   9.058   8.825 -0.2823 -0.1794  0.6484
19454SOL    HW158940   6.029   8.967   8.831  1.1273  0.0881 -1.4989
19454SOL    HW258941   6.044   9.094   8.750 -2.0351  1.8494  0.4414
19455SOL     OW58942   9.774   9.600   3.487  0.1479  0.1441 -0.3588
19455SOL    HW158943   9.826   9.521   3.498  1.7021  1.3602  1.7624
19455SOL    HW258944   9.701   9.591   3.549  1.0812  0.9018  0.8960
19456SOL     OW58945   4.150   4.598   8.988 -0.1651  0.1221 -0.1316
19456SOL    HW158946   4.078   4.605   8.925  0.4780 -1.1643 -1.0402
19456SOL    HW258947   4.113   4.633   9.070 -2.1207 -1.3119 -0.3229
19457SOL     OW58948   5.285   2.000   0.253  0.5644 -0.2166  0.1405
19457SOL    HW158949   5.283   2.090   0.221  0.3237 -0.2820 -0.0320
19457SOL    HW258950   5.351   2.000   0.322  0.7535  0.0312 -0.0410
19458SOL     OW58951   7.881   3.158   6.419  0.1231  0.6743  0.0292
19458SOL    HW158952   7.899   3.224   6.486  0.5324 -0.0540  0.6465
19458SOL    HW258953   7.966   3.116   6.403 -0.3446 -0.4786  0.4819
19459SOL     OW58954   9.536   1.713   6.290  0.5066 -0.3180 -1.3555
19459SOL    HW158955   9.554   1.806   6.297  2.3663 -0.7789  1.0082
19459SOL    HW258956   9.550   1.693   6.197  0.4679  1.6359 -1.8266
19460SOL     OW58957   1.394   7.846   6.489  0.5134  0.3000 -0.2614
19460SOL    HW158958   1.416   7.783   6.421 -0.5729 -0.9942  0.5387
19460SOL    HW258959   1.299   7.841   6.497  0.6472 -0.1495  1.8274
19461SOL     OW58960   0.958   5.113   5.793 -0.0643 -0.3965  0.0432
19461SOL    HW158961   0.991   5.040   5.845 -0.1263  0.9507  2.1174
19461SOL    HW258962   0.981   5.091   5.702  1.9449 -1.9041  0.8386
19462SOL     OW58963   1.049   1.566   6.413 -0.1284 -0.7023 -0.0773
19462SOL    HW158964   1.026   1.657   6.392 -0.9047 -0.9702 -0.4039
19462SOL    HW258965   0.965   1.523   6.429  0.3299 -0.8384  2.3309
19463SOL     OW58966   7.222   4.536   9.904  0.1296 -0.3024 -0.3715
19463SOL    HW158967   7.200   4.453   9.862  1.1687 -0.0375 -1.4808
19463SOL    HW258968   7.311   4.524   9.936 -1.5825 -1.6826  4.8524
19464SOL     OW58969   3.332   9.032   6.570  0.2697 -0.7693  0.0962
19464SOL    HW158970   3.264   9.020   6.637  0.4001  0.0711  0.3996
19464SOL    HW258971   3.284   9.065   6.493  0.2769 -0.5281  0.1919
19465SOL     OW58972   9.650   9.919   9.124 -0.7401 -0.9850 -0.1054
19465SOL    HW158973   9.715   9.906   9.192 -0.8964 -1.2480 -0.0007
19465SOL    HW258974   9.568   9.889   9.163 -0.9739 -0.3961 -0.1396
19466SOL     OW58975   6.011   8.932   1.376 -0.1150 -0.4308 -0.4434
19466SOL    HW158976   6.030   8.901   1.287 -1.1128 -0.5968 -0.6117
19466SOL    HW258977   6.023   9.027   1.371 -1.2346 -0.2949 -1.0686
19467SOL     OW58978   1.253   6.723   1.262  0.2640  0.4204 -0.3499
19467SOL    HW158979   1.245   6.720   1.167  2.3773  1.0629 -0.5931
19467SOL    HW258980   1.334   6.675   1.281 -0.4241 -0.2225  1.2010
19468SOL     OW58981   1.398   4.424   1.405 -0.7653 -0.3257  0.4216
19468SOL    HW158982   1.399   4.331   1.426 -1.9372 -0.2490  0.8946
19468SOL    HW258983   1.341   4.431   1.328 -2.7521  0.2412  1.8564
19469SOL     OW58984   1.178   5.367   0.639 -0.0631  0.3240  0.1884
19469SOL    HW158985   1.194   5.274   0.659  0.1591 -0.3116 -2.5263
19469SOL    HW258986   1.088   5.382   0.669 -0.7996 -1.3421 -1.0042
19470SOL     OW58987   2.363   9.633   0.021  0.5218 -0.6066 -0.1956
19470SOL    HW158988   2.339   9.686  -0.055 -2.0600 -2.6096 -0.9320
19470SOL    HW258989   2.282   9.626   0.072  1.8875 -0.3139  2.1528
19471SOL     OW58990   4.437   1.334   0.082  0.5487  0.4086 -0.1117
19471SOL    HW158991   4.407   1.247   0.109  0.1619  1.2687  2.4785
19471SOL    HW258992   4.463   1.377   0.163  1.3584  2.5084 -1.3970
19472SOL     OW58993   5.733   8.802   5.431  0.2092  0.5248  0.5243
19472SOL    HW158994   5.771   8.757   5.507  3.9547  0.4554 -1.1880
19472SOL    HW258995   5.688   8.733   5.382 -0.8006  0.2608  1.7688
19473SOL     OW58996   7.417   5.093   4.935  0.1037 -0.1707 -0.0225
19473SOL    HW158997   7.459   5.169   4.976  0.4012  0.0685 -0.7515
19473SOL    HW258998   7.348   5.068   4.996 -0.7600  1.4135 -0.3033
19474SOL     OW58999   5.052   8.169   8.351  0.7376  0.4575 -0.5416
19474SOL    HW159000   5.066   8.077   8.373 -0.0196  0.6279  0.8031
19474SOL    HW259001   5.120   8.216   8.400 -0.2733  0.7571  0.6556
19475SOL     OW59002   0.220   8.712   0.933  0.4072 -0.2877 -0.1052
19475SOL    HW159003   0.308   8.747   0.941  0.4182 -0.2649 -0.3145
19475SOL    HW259004   0.170   8.783   0.892  0.3850 -0.4425 -0.3533
19476SOL     OW59005   2.449   8.796   6.441 -0.0719 -0.5193  0.4812
19476SOL    HW159006   2.438   8.833   6.353  0.4488  0.6143  0.8622
19476SOL    HW259007   2.532   8.834   6.472  0.5186 -2.0696  0.9063
19477SOL     OW59008   3.318   0.301   4.817  0.3783 -0.3184  0.4703
19477SOL    HW159009   3.364   0.218   4.828 -1.0243 -0.9280  2.1849
19477SOL    HW259010   3.282   0.297   4.728  2.9550 -0.0965 -0.6839
19478SOL     OW59011   6.341   4.250   2.661 -0.3443  0.0743  0.1604
19478SOL    HW159012   6.368   4.218   2.575  0.4302  0.4763  0.2416
19478SOL    HW259013   6.327   4.344   2.649 -0.7088  0.0497  0.3673
19479SOL     OW59014   2.025   4.523   6.268  0.3489  0.3379 -0.0785
19479SOL    HW159015   2.051   4.505   6.178  1.6628  0.4624  0.2619
19479SOL    HW259016   1.997   4.614   6.267  0.6220  0.4186 -0.3005
19480SOL     OW59017   2.186   0.727   9.861 -0.0449 -0.7298  0.6278
19480SOL    HW159018   2.187   0.804   9.804  0.1924 -0.5827  0.8283
19480SOL    HW259019   2.121   0.747   9.928  0.9904 -0.1022  1.4900
19481SOL     OW59020   2.656   8.190   1.517 -0.2741 -0.4348  0.3113
19481SOL    HW159021   2.751   8.184   1.505 -0.3442 -0.1651 -0.4758
19481SOL    HW259022   2.645   8.252   1.589  0.1514 -0.4611  0.4003
19482SOL     OW59023   1.381   7.328   2.433  0.8043 -0.3462 -0.1744
19482SOL    HW159024   1.462   7.350   2.386  0.9224  2.0293  0.9851
19482SOL    HW259025   1.407   7.320   2.524 -0.5856  4.2995  0.9420
19483SOL     OW59026   9.586   6.345   2.765 -0.3263  0.0500  0.5073
19483SOL    HW159027   9.614   6.312   2.680 -1.7969  0.7033 -0.2664
19483SOL    HW259028   9.638   6.424   2.778  0.8417 -0.7520  0.8444
19484SOL     OW59029   2.911   6.266   4.796 -0.1943  0.6745 -0.0911
19484SOL    HW159030   2.947   6.230   4.714 -2.4889 -0.0070 -0.8626
19484SOL    HW259031   2.970   6.338   4.818  1.1535  0.1343 -1.7061
19485SOL     OW59032   3.159   6.375   3.771  0.7193  0.3057  0.6190
19485SOL    HW159033   3.253   6.371   3.789  0.3969 -1.0118  2.1553
19485SOL    HW259034   3.134   6.285   3.751 -0.0420  0.8104 -0.8601
19486SOL     OW59035   2.955   4.656   5.307 -0.0893  0.3929 -0.5519
19486SOL    HW159036   2.957   4.732   5.365 -1.4015  0.7630 -0.9482
19486SOL    HW259037   2.872   4.664   5.259 -0.3619 -1.3957 -0.4615
19487SOL     OW59038   5.279   2.976   7.482 -0.0595 -0.5051 -0.0598
19487SOL    HW159039   5.196   2.964   7.436 -0.1138 -0.2094 -0.0407
19487SOL    HW259040   5.292   2.893   7.529 -0.1846 -0.6715 -0.3148
19488SOL     OW59041   3.785   8.749   3.673  0.2770  0.3247 -0.2068
19488SOL    HW159042   3.806   8.813   3.741  1.2599  0.7784 -0.9157
19488SOL    HW259043   3.801   8.664   3.714 -1.8426  0.4470  1.0189
19489SOL     OW59044   5.468   5.038   0.749 -0.3854 -0.1912 -0.8596
19489SOL    HW159045   5.520   5.118   0.735 -0.6836  0.5910  1.8418
19489SOL    HW259046   5.531   4.967   0.742  0.2997  0.4501 -1.3902
19490SOL     OW59047   1.589   8.419   6.774  0.0504  0.3357 -0.0173
19490SOL    HW159048   1.528   8.412   6.700  0.5619  1.3660 -0.5614
19490SOL    HW259049   1.638   8.337   6.773 -0.7766 -0.1690 -0.0613
19491SOL     OW59050   6.811   4.113   8.713  0.1925 -0.3314  1.0154
19491SOL    HW159051   6.759   4.152   8.783 -1.9677 -3.0295  1.0653
19491SOL    HW259052   6.788   4.163   8.635 -0.9608 -0.2178  1.4148
19492SOL     OW59053   6.662   7.920   5.440  0.0620  0.3967  0.1309
19492SOL    HW159054   6.634   7.965   5.361  0.4532  1.5511  0.6371
19492SOL    HW259055   6.710   7.985   5.490  1.0729 -0.7161  0.6708
19493SOL     OW59056   2.696   2.602   2.698 -0.0817 -0.3319  0.0854
19493SOL    HW159057   2.681   2.508   2.694  0.6711 -0.4979  1.0059
19493SOL    HW259058   2.759   2.614   2.769  2.1741  0.5862 -1.9278
19494SOL     OW59059   5.949   2.382   2.986  0.4303 -0.4128 -0.4080
19494SOL    HW159060   5.906   2.437   2.920 -1.3685 -3.6185 -2.1754
19494SOL    HW259061   5.886   2.378   3.058  0.4812 -0.2981 -0.3570
19495SOL     OW59062   6.795   9.838   8.386 -0.0310 -0.5780 -0.0765
19495SOL    HW159063   6.864   9.810   8.446  0.4035 -1.4818 -0.9802
19495SOL    HW259064   6.811   9.931   8.372  1.6037 -0.9762 -1.0297
19496SOL     OW59065   6.426   8.868   8.539  0.1414  0.3888 -0.3031
19496SOL    HW159066   6.339   8.836   8.565  0.5642 -0.2991  0.2873
19496SOL    HW259067   6.438   8.947   8.593  0.5136 -0.3717  0.7624
19497SOL     OW59068   6.466   6.304   1.833  0.1730  0.6471 -0.0947
19497SOL    HW159069   6.472   6.311   1.737 -1.8611 -1.6758 -0.4916
19497SOL    HW259070   6.511   6.222   1.853 -1.8520 -0.3626  0.5503
19498SOL     OW59071   9.766   7.113   9.224 -0.4606 -0.2189  0.1407
19498SOL    HW159072   9.750   7.081   9.313  1.1310  0.8055  0.8475
19498SOL    HW259073   9.862   7.117   9.217 -0.5705  0.5366 -1.3232
19499SOL     OW59074   4.343   6.098   8.633  0.1965 -0.2623 -0.2374
19499SOL    HW159075   4.366   6.190   8.622 -0.5875 -0.1610 -1.2394
19499SOL    HW259076   4.375   6.056   8.553 -1.3432 -0.4559 -0.7774
19500SOL     OW59077   9.375   2.554   2.778 -0.0065 -0.3218  0.5425
19500SOL    HW159078   9.377   2.643   2.744  0.3955 -0.7784 -0.6719
19500SOL    HW259079   9.282   2.536   2.794 -0.3663 -0.5627 -1.6342
19501SOL     OW59080   1.615   8.390   1.347 -0.0921  0.2659 -0.4474
19501SOL    HW159081   1.565   8.378   1.427 -0.4472  0.3144 -0.6618
19501SOL    HW259082   1.666   8.470   1.362 -1.8863  1.5953 -1.1406
19502SOL     OW59083   7.791   9.412   0.397  0.8152 -0.2224 -0.6605
19502SOL    HW159084   7.783   9.340   0.334 -0.1886  0.7788 -1.7240
19502SOL    HW259085   7.843   9.478   0.351  0.4133  0.3629 -0.2859
19503SOL     OW59086   4.522   1.677   4.896 -0.0420 -0.2606  0.0163
19503SOL    HW159087   4.526   1.599   4.841  0.9030 -0.3730  0.2317
19503SOL    HW259088   4.614   1.705   4.904 -0.1680 -0.2034  1.4768
19504SOL     OW59089   3.887   9.016   4.350  0.1380 -0.0924  0.0797
19504SOL    HW159090   3.820   8.969   4.300 -0.5840  0.1234  0.8200
19504SOL    HW259091   3.913   8.954   4.418 -1.1524  0.6871  1.3504
19505SOL     OW59092   7.377   3.730   7.294 -0.2860 -0.2586 -0.0554
19505SOL    HW159093   7.365   3.683   7.377 -2.0038 -0.3770 -0.3247
19505SOL    HW259094   7.363   3.663   7.227 -0.9360  0.2487 -0.4363
19506SOL     OW59095   9.461   8.906   4.251 -0.5556  0.5122 -0.7249
19506SOL    HW159096   9.411   8.954   4.184  0.0621  0.5168 -1.1911
19506SOL    HW259097   9.491   8.827   4.206 -3.0209 -1.2709  0.4919
19507SOL     OW59098   2.461   4.526   9.413 -0.0480  0.1944 -0.4025
19507SOL    HW159099   2.392   4.480   9.365 -0.0962 -2.5112  2.0090
19507SOL    HW259100   2.541   4.503   9.367 -0.4598  1.2533 -1.7058
19508SOL     OW59101   3.949   3.764   5.085  0.0992  0.0017 -0.4557
19508SOL    HW159102   4.007   3.841   5.081  2.6209 -1.8208 -1.1697
19508SOL    HW259103   3.931   3.753   5.179  1.8635  0.0015 -0.0806
19509SOL     OW59104   0.301   6.195   1.490 -0.2303 -0.2025  0.0998
19509SOL    HW159105   0.245   6.152   1.555  1.0276  1.0366  2.1167
19509SOL    HW259106   0.245   6.264   1.453 -1.2491 -1.5022 -0.8430
19510SOL     OW59107   6.852   4.481   3.642  0.1965 -0.1220 -0.0784
19510SOL    HW159108   6.833   4.403   3.695 -0.5158  0.7104  0.9381
19510SOL    HW259109   6.913   4.450   3.574  0.4115 -1.4164  0.6720
19511SOL     OW59110   6.793   2.885   5.875  0.0097 -0.4669  0.2835
19511SOL    HW159111   6.699   2.897   5.885  0.0174 -0.2637  0.1359
19511SOL    HW259112   6.802   2.823   5.803 -0.0074 -0.1110 -0.0338
19512SOL     OW59113   1.483   0.467   0.293  0.5176  0.2475 -0.1008
19512SOL    HW159114   1.484   0.372   0.307 -1.5266 -0.0037 -1.2643
19512SOL    HW259115   1.391   0.488   0.275  1.1723  2.1722 -1.6357
19513SOL     OW59116   2.234   5.852   8.778  0.0016 -0.0006 -0.1132
19513SOL    HW159117   2.150   5.896   8.763  0.6301  0.5503 -2.1879
19513SOL    HW259118   2.224   5.814   8.866 -2.0185  0.9226  0.1314
19514SOL     OW59119   1.094   7.368   7.263  0.4746  0.2825  0.5295
19514SOL    HW159120   1.060   7.419   7.336 -1.2391 -0.0329  0.0068
19514SOL    HW259121   1.186   7.354   7.284  0.2693  1.0781  2.1062
19515SOL     OW59122   6.698   3.900   5.982 -0.2144 -0.3523  0.4310
19515SOL    HW159123   6.751   3.820   5.976  1.4739  0.6718  1.2326
19515SOL    HW259124   6.747   3.958   6.040 -1.6600  1.0991  0.2796
19516SOL     OW59125   2.516   2.563   4.142 -0.3617  0.1112 -0.5366
19516SOL    HW159126   2.498   2.543   4.234 -0.8273  2.8013  0.0740
19516SOL    HW259127   2.566   2.645   4.145  2.3320 -1.2930 -2.6368
19517SOL     OW59128   7.037   3.912   6.669 -0.3012 -0.8183 -0.0753
19517SOL    HW159129   6.966   3.908   6.604 -0.0979 -0.2919 -0.3398
19517SOL    HW259130   6.996   3.883   6.751 -1.5299  1.8261  0.3564
19518SOL     OW59131   0.348   7.561   3.238  0.7097  0.0598 -0.3495
19518SOL    HW159132   0.322   7.641   3.284  1.4544 -0.7090  1.5038
19518SOL    HW259133   0.444   7.565   3.235  0.6912 -0.0034 -1.7264
19519SOL     OW59134   6.164   4.551   2.810 -0.0396  0.1441 -0.2290
19519SOL    HW159135   6.228   4.603   2.762 -1.2916  2.8397  0.7765
19519SOL    HW259136   6.101   4.523   2.744 -0.6666  2.1041 -0.5331
19520SOL     OW59137   9.042   8.261   2.626  0.3211 -0.1896 -0.5309
19520SOL    HW159138   9.063   8.248   2.534  1.2309 -1.5314 -0.1725
19520SOL    HW259139   8.985   8.338   2.628 -0.0154 -0.3648 -2.2385
19521SOL     OW59140   6.526   6.815   9.933 -0.4498 -0.1610 -0.3739
19521SOL    HW159141   6.477   6.761   9.871 -1.0340 -0.3094  0.2152
19521SOL    HW259142   6.615   6.779   9.930 -1.0336 -1.8078  0.7018
19522SOL     OW59143   0.604   6.802   1.059  0.1305  0.2063  0.7149
19522SOL    HW159144   0.620   6.850   0.979  1.6542  1.2275  1.5930
19522SOL    HW259145   0.586   6.712   1.030 -2.3683  1.1366 -0.9182
19523SOL     OW59146   8.947   4.715   1.199  0.2636 -0.3265  0.5300
19523SOL    HW159147   8.967   4.808   1.191  2.0314 -0.6509  0.7458
19523SOL    HW259148   8.907   4.692   1.116 -0.3696  0.6670  0.5500
19524SOL     OW59149   6.258   9.607   8.158  0.3846  0.1388  0.2940
19524SOL    HW159150   6.182   9.552   8.138 -0.1264  0.2506  1.7525
19524SOL    HW259151   6.243   9.636   8.249  0.5510  2.7735 -0.4181
19525SOL     OW59152   2.232   8.382   0.924 -0.2710 -0.9413 -0.3069
19525SOL    HW159153   2.184   8.299   0.936  0.0962 -1.0114  0.6998
19525SOL    HW259154   2.163   8.446   0.903 -0.8571 -1.0000  1.3049
19526SOL     OW59155   5.335   0.801   5.522 -0.2650 -0.0599 -0.0748
19526SOL    HW159156   5.375   0.821   5.606  0.0923 -2.1344  0.3108
19526SOL    HW259157   5.266   0.737   5.542 -2.0153  1.4340 -1.0615
19527SOL     OW59158   3.664   3.784   5.050 -0.5485 -0.1293  0.2799
19527SOL    HW159159   3.755   3.799   5.074 -0.7841 -1.0895  1.8966
19527SOL    HW259160   3.664   3.695   5.013 -0.7162  0.1768 -0.4853
19528SOL     OW59161   3.317   3.638   5.290 -0.0729 -0.1176  0.0978
19528SOL    HW159162   3.409   3.659   5.310 -0.0860 -1.4107  1.6499
19528SOL    HW259163   3.317   3.620   5.196  1.7031 -2.0947  0.4045
19529SOL     OW59164   5.732   1.214   9.826 -0.4128  0.4200  0.0380
19529SOL    HW159165   5.827   1.222   9.829 -0.4077  0.2489  0.3407
19529SOL    HW259166   5.707   1.263   9.748 -0.1555  1.2405  0.4454
19530SOL     OW59167   1.848   0.579   3.401 -0.0013  0.0121  0.1848
19530SOL    HW159168   1.897   0.659   3.382  0.4058 -0.3467 -0.3217
19530SOL    HW259169   1.913   0.509   3.398 -0.6085 -0.5519 -1.0850
19531SOL     OW59170   1.677   1.472   1.976  0.8616 -0.0214  0.0769
19531SOL    HW159171   1.602   1.532   1.981  0.5617 -0.3970  0.1586
19531SOL    HW259172   1.649   1.404   1.914  2.0270  1.0799 -1.7293
19532SOL     OW59173   0.711   1.012   4.224 -0.0366 -0.5949  0.1655
19532SOL    HW159174   0.734   1.095   4.264 -2.8194  0.8751 -0.9591
19532SOL    HW259175   0.647   0.973   4.284 -1.8804  0.1530 -1.2003
19533SOL     OW59176   1.618   3.957   7.727  0.3189  0.1494  0.4576
19533SOL    HW159177   1.708   3.981   7.749  0.4084  0.1070  0.1403
19533SOL    HW259178   1.574   3.948   7.812  1.0924 -1.7035  0.7119
19534SOL     OW59179   4.524   8.159   6.810 -0.6266 -0.4877  0.3694
19534SOL    HW159180   4.462   8.128   6.877  1.0182 -1.4217  1.5139
19534SOL    HW259181   4.595   8.198   6.861  0.2056 -0.3289 -0.8932
19535SOL     OW59182   1.913   1.955   1.082  0.2205  0.3949  0.2657
19535SOL    HW159183   1.938   2.000   1.163  2.6418 -1.6325  0.7457
19535SOL    HW259184   1.832   1.908   1.104 -2.0418  3.7311 -0.0777
19536SOL     OW59185   1.448   6.216   2.772 -0.5413  0.3094  0.0859
19536SOL    HW159186   1.439   6.306   2.743 -3.8749  0.0576 -0.1272
19536SOL    HW259187   1.498   6.221   2.853  0.2175  2.2119 -0.4559
19537SOL     OW59188   7.309   1.719   3.926 -0.2655  0.0419  0.1788
19537SOL    HW159189   7.363   1.792   3.956  2.5718 -0.6061 -2.7509
19537SOL    HW259190   7.344   1.643   3.972 -0.1062 -0.0947 -0.1663
19538SOL     OW59191   0.807   9.943   5.949  0.1471 -0.4516 -0.1659
19538SOL    HW159192   0.749   9.887   5.897 -3.1415  0.1962  2.4796
19538SOL    HW259193   0.860   9.883   6.000  1.0121 -1.0549 -1.6998
19539SOL     OW59194   5.055   1.470   1.190 -0.0113 -0.4880 -0.3133
19539SOL    HW159195   5.119   1.497   1.256 -0.6704 -0.7326  0.4420
19539SOL    HW259196   5.064   1.374   1.186  0.0181 -0.4767 -0.5871
19540SOL     OW59197   8.046   8.627   8.252  0.0706  0.7253  0.1966
19540SOL    HW159198   8.080   8.598   8.168 -0.2003 -1.0382  0.6420
19540SOL    HW259199   7.958   8.658   8.233  0.4494  1.4977 -0.3398
19541SOL     OW59200   1.459   9.020   0.420  0.1061 -0.3528  0.4893
19541SOL    HW159201   1.509   9.100   0.408 -0.7595 -0.2645 -4.6686
19541SOL    HW259202   1.367   9.048   0.413 -0.3010 -1.5496  0.7649
19542SOL     OW59203   0.192   5.781   7.269  0.0659 -0.3665 -0.8084
19542SOL    HW159204   0.099   5.783   7.287 -0.0298 -1.6750 -1.0610
19542SOL    HW259205   0.199   5.742   7.182  0.8408 -0.3627 -0.7580
19543SOL     OW59206   2.903   9.464   8.254 -0.8654  0.1301  1.2654
19543SOL    HW159207   2.859   9.379   8.246 -0.1556 -0.1038 -0.6008
19543SOL    HW259208   2.938   9.482   8.166 -0.2014  1.9236  1.8436
19544SOL     OW59209   1.965   3.007   6.188 -0.4399  0.3397  0.3593
19544SOL    HW159210   2.047   2.977   6.226  0.9571 -0.2802 -2.8284
19544SOL    HW259211   1.911   2.927   6.182 -0.0506  0.1202 -0.3272
19545SOL     OW59212   2.918   9.690   1.174  0.2916  0.3604 -0.3551
19545SOL    HW159213   2.859   9.666   1.244  0.5633  0.1567 -0.1950
19545SOL    HW259214   2.950   9.607   1.139  0.5319  0.4695 -0.3993
19546SOL     OW59215   6.642   1.308   6.602  0.6115 -0.1414  0.0649
19546SOL    HW159216   6.571   1.246   6.620 -0.2714  0.8598  0.1383
19546SOL    HW259217   6.718   1.253   6.582 -0.2475 -1.2418 -0.2737
19547SOL     OW59218   8.319   2.404   3.972 -0.3875 -0.6883  0.2956
19547SOL    HW159219   8.390   2.342   3.988  1.0741  1.2415  1.9453
19547SOL    HW259220   8.299   2.440   4.059 -3.0297 -0.7435 -0.2186
19548SOL     OW59221   7.271   3.925   3.512  0.2771  0.3920  0.3792
19548SOL    HW159222   7.175   3.922   3.512  0.2384 -1.4554  2.7689
19548SOL    HW259223   7.297   3.892   3.426 -1.2892 -3.0874  1.0648
19549SOL     OW59224   3.990   3.852   4.562  0.2189  0.2033  0.3762
19549SOL    HW159225   3.966   3.816   4.648  1.2563  1.7297  1.3515
19549SOL    HW259226   3.907   3.879   4.524 -0.2613 -0.4971  0.8894
19550SOL     OW59227   8.475   4.598   2.477  0.2455 -0.1965 -0.3231
19550SOL    HW159228   8.503   4.573   2.565 -0.4456 -3.8011 -0.9710
19550SOL    HW259229   8.380   4.609   2.485 -0.0059 -1.8458 -0.8310
19551SOL     OW59230   2.942   4.115   4.366  0.0720 -0.7202  0.4279
19551SOL    HW159231   2.956   4.125   4.460  1.7588  0.6366  0.0774
19551SOL    HW259232   2.905   4.199   4.337  0.9649 -0.5705 -0.3355
19552SOL     OW59233   4.015   6.343   3.918 -0.2126  0.0410  0.7647
19552SOL    HW159234   4.004   6.422   3.970 -0.2975 -0.7255  1.9636
19552SOL    HW259235   3.928   6.327   3.879  0.1740  1.3371 -0.7369
19553SOL     OW59236   2.713   1.470   0.729  0.2446 -0.0084 -0.2025
19553SOL    HW159237   2.677   1.408   0.665 -1.8008 -1.1160  1.8558
19553SOL    HW259238   2.661   1.549   0.717  0.7337  0.2354 -0.7445
19554SOL     OW59239   2.327   3.442   2.145  0.3321  0.0245 -0.6668
19554SOL    HW159240   2.374   3.523   2.165 -1.5812  0.8564  0.6772
19554SOL    HW259241   2.376   3.374   2.192  2.7945  0.0615 -2.9318
19555SOL     OW59242   0.526   3.569   4.631  0.2498 -0.1000 -0.5558
19555SOL    HW159243   0.489   3.605   4.712  2.0573  0.1868  0.1747
19555SOL    HW259244   0.588   3.636   4.602 -0.2300 -0.2834 -2.1100
19556SOL     OW59245   5.294   3.429   6.625  0.2481  0.4485 -0.4134
19556SOL    HW159246   5.262   3.519   6.630 -3.2947 -0.7226  3.0298
19556SOL    HW259247   5.333   3.413   6.710  0.1009 -1.5252 -0.6794
19557SOL     OW59248   8.000   3.027   5.418  0.2951  0.2640 -0.2404
19557SOL    HW159249   7.950   3.017   5.499  0.2191  2.3472  0.0294
19557SOL    HW259250   7.985   3.118   5.392  0.3306 -0.3394 -2.6092
19558SOL     OW59251   3.392   3.331   5.904 -0.3386  0.4691  0.0872
19558SOL    HW159252   3.410   3.246   5.944  0.3060  1.6586  2.4945
19558SOL    HW259253   3.455   3.337   5.831  0.5501 -0.5501  0.7495
19559SOL     OW59254   0.861   9.539   8.845  0.4665  0.7067 -0.3463
19559SOL    HW159255   0.881   9.521   8.936 -0.7126 -1.5237 -0.4526
19559SOL    HW259256   0.773   9.576   8.846  0.6072  1.0603 -0.5672
19560SOL     OW59257   4.612   5.290   3.278 -0.0875 -0.1434 -0.1792
19560SOL    HW159258   4.670   5.234   3.329  0.2468 -0.4434 -0.8820
19560SOL    HW259259   4.669   5.357   3.240 -0.2216 -0.3663 -0.7736
19561SOL     OW59260   1.257   4.501   2.872 -0.8002 -0.5083 -0.0470
19561SOL    HW159261   1.296   4.431   2.819 -0.8111 -0.1940 -0.4675
19561SOL    HW259262   1.328   4.528   2.931 -0.8168 -0.9215  0.1673
19562SOL     OW59263   8.677   1.969   0.915 -0.2619 -0.3388  0.3434
19562SOL    HW159264   8.615   1.924   0.858 -0.9109  0.9721 -0.0064
19562SOL    HW259265   8.657   2.062   0.905  1.0616  0.0488  1.0393
19563SOL     OW59266   5.382   8.072   1.244 -0.4393 -0.6435  0.2533
19563SOL    HW159267   5.413   7.988   1.208 -1.1555 -0.5633 -0.5832
19563SOL    HW259268   5.457   8.106   1.292 -0.7043 -2.6490  2.2525
19564SOL     OW59269   2.728   5.176   8.536 -0.4784  0.2983  0.1893
19564SOL    HW159270   2.802   5.140   8.586  1.0125  0.5185 -1.7690
19564SOL    HW259271   2.652   5.126   8.567  0.6012 -0.5109  1.6572
19565SOL     OW59272   3.283   9.344   0.970  0.5116 -0.4204 -0.1404
19565SOL    HW159273   3.252   9.368   0.883  2.1408 -0.6721 -0.8256
19565SOL    HW259274   3.351   9.279   0.954  1.0919 -0.2022  1.3015
19566SOL     OW59275   4.105   3.413   2.071 -0.1017 -0.0997  0.2486
19566SOL    HW159276   4.161   3.429   2.147 -1.6996  0.8929  1.2761
19566SOL    HW259277   4.166   3.400   1.998  1.4536  0.4791  1.3997
19567SOL     OW59278   1.369   2.922   3.229  0.5942 -0.4403 -0.1420
19567SOL    HW159279   1.344   2.868   3.154 -1.6183 -0.1459  0.3121
19567SOL    HW259280   1.289   2.969   3.252  1.7179  0.8754  1.2603
19568SOL     OW59281   1.932   9.081   4.512  0.2841  0.0986 -0.1473
19568SOL    HW159282   2.010   9.135   4.523  0.1188  0.5813 -1.1891
19568SOL    HW259283   1.859   9.138   4.537  0.3076 -0.7311  2.0054
19569SOL     OW59284   0.625   4.930   6.328  0.2383 -0.3154 -0.7237
19569SOL    HW159285   0.631   5.016   6.287 -1.9490  0.2942  0.0968
19569SOL    HW259286   0.693   4.931   6.395  2.5457 -0.5952 -2.8902
19570SOL     OW59287   1.004   1.293   0.184  0.1770 -0.2122 -0.2290
19570SOL    HW159288   1.002   1.240   0.264  0.1656  0.8603  0.5132
19570SOL    HW259289   0.953   1.243   0.120 -2.4049  0.2351  1.3097
19571SOL     OW59290   2.089   0.034   3.271  0.2587 -0.1877  0.7151
19571SOL    HW159291   2.025  -0.036   3.259 -2.1598  2.0622 -0.5165
19571SOL    HW259292   2.049   0.091   3.337  0.8814  1.3806 -0.2184
19572SOL     OW59293   8.032   1.532   7.939 -0.6829 -0.0648 -0.6647
19572SOL    HW159294   8.001   1.623   7.943  1.2277  0.5957  0.4259
19572SOL    HW259295   8.102   1.534   7.873  1.9638  0.1948  1.9534
19573SOL     OW59296   3.745   3.804   1.843 -0.1680 -0.2595 -0.5540
19573SOL    HW159297   3.744   3.737   1.774 -2.7890 -1.3951  0.4377
19573SOL    HW259298   3.837   3.814   1.865  0.6080 -1.1039 -3.0173
19574SOL     OW59299   1.996   1.402   8.626  0.4268 -0.0441 -0.3738
19574SOL    HW159300   1.997   1.495   8.601  0.0307 -0.1124 -0.6471
19574SOL    HW259301   1.933   1.397   8.698  0.9763  0.0163  0.1205
19575SOL     OW59302   1.649   1.094   8.925  0.3116  0.2001 -0.0263
19575SOL    HW159303   1.661   1.156   8.853 -0.6905  0.4149 -0.0242
19575SOL    HW259304   1.693   1.134   9.000 -0.7993  1.2025  0.1187
19576SOL     OW59305   5.435   6.205   7.960 -0.4607 -0.5545 -0.1305
19576SOL    HW159306   5.525   6.171   7.955  0.4211  1.2243  1.9257
19576SOL    HW259307   5.380   6.128   7.971 -0.0767 -2.4333 -6.9712
19577SOL     OW59308   6.486   0.830   5.834  0.2468  0.1240  0.0947
19577SOL    HW159309   6.397   0.866   5.836  0.1658 -0.0964  0.7250
19577SOL    HW259310   6.538   0.894   5.883  0.6355  0.7445 -1.0812
19578SOL     OW59311   3.238   3.323   1.396 -0.4710 -0.3348 -0.2482
19578SOL    HW159312   3.267   3.405   1.355  0.4954 -1.2768 -1.5021
19578SOL    HW259313   3.301   3.307   1.466 -0.1945 -0.4283 -0.5200
19579SOL     OW59314   5.981   0.400   0.706 -0.5150  0.5971  0.2745
19579SOL    HW159315   6.071   0.419   0.733 -0.9773  0.1955  2.2941
19579SOL    HW259316   5.949   0.483   0.670  0.1162  1.2658  1.1958
19580SOL     OW59317   4.484   4.983   8.597  0.1473 -0.4326 -0.2766
19580SOL    HW159318   4.496   5.022   8.683  2.2393 -1.6037  0.0388
19580SOL    HW259319   4.435   5.048   8.547 -0.0804  0.7600  1.4385
19581SOL     OW59320   6.093   5.713   6.529 -0.6024  0.5107 -0.1608
19581SOL    HW159321   6.111   5.691   6.620 -0.1076  2.5191  0.2641
19581SOL    HW259322   6.002   5.744   6.530 -0.4434  0.9787 -0.2701
19582SOL     OW59323   7.420   8.978   0.187 -0.5568 -0.2708  0.2972
19582SOL    HW159324   7.437   8.944   0.099  0.4889 -0.9916  0.7444
19582SOL    HW259325   7.506   9.009   0.217 -0.7335 -0.7527  1.3425
19583SOL     OW59326   8.666   4.158   6.497 -0.5088 -0.4534  0.1315
19583SOL    HW159327   8.604   4.092   6.467 -2.0100  0.9613 -0.0227
19583SOL    HW259328   8.636   4.180   6.585  0.0647 -0.0888  0.2368
19584SOL     OW59329   5.423   8.975   5.414  0.3759 -0.1767 -0.2641
19584SOL    HW159330   5.357   8.958   5.347 -0.6705  1.0728  0.3937
19584SOL    HW259331   5.380   9.036   5.475  2.2065  0.8536  0.0808
19585SOL     OW59332   0.279   6.741   4.000 -0.3253  0.2555  0.1244
19585SOL    HW159333   0.372   6.746   3.978 -0.6315 -0.3855 -1.4263
19585SOL    HW259334   0.259   6.827   4.037  0.6974  0.6759 -0.2487
19586SOL     OW59335   8.664   6.641   6.501 -0.3044 -0.2089 -0.1845
19586SOL    HW159336   8.704   6.695   6.432 -0.1595  0.8403  0.7074
19586SOL    HW259337   8.571   6.641   6.480 -0.2059 -0.2591 -0.6305
19587SOL     OW59338   7.635   1.167   1.854  0.2200 -0.4321  0.2102
19587SOL    HW159339   7.569   1.193   1.918  0.7260  1.8369 -0.0857
19587SOL    HW259340   7.650   1.074   1.871 -1.2764 -0.4299  1.8702
19588SOL     OW59341   8.320   8.565   3.562 -0.0827  0.1117  0.3469
19588SOL    HW159342   8.301   8.638   3.622  0.5282  0.4875  0.0960
19588SOL    HW259343   8.371   8.503   3.615  1.4198  0.9505 -0.0513
19589SOL     OW59344   6.118   6.913   7.876 -0.3147 -0.0674  0.5548
19589SOL    HW159345   6.129   6.917   7.971 -0.4869 -1.0305  0.6300
19589SOL    HW259346   6.032   6.950   7.860 -0.5604 -0.5023  0.8456
19590SOL     OW59347   0.518   5.273   6.049 -0.3758  0.6677 -0.7458
19590SOL    HW159348   0.424   5.265   6.064 -0.2976 -0.5568 -0.8211
19590SOL    HW259349   0.541   5.196   5.997  0.6381  1.0470 -0.8881
19591SOL     OW59350   8.364   7.738   7.770  0.2429  0.0635 -0.0251
19591SOL    HW159351   8.383   7.818   7.819 -0.0870 -0.0021  0.2185
19591SOL    HW259352   8.289   7.761   7.715  0.5229  0.0944 -0.3967
19592SOL     OW59353   8.955   3.541   5.128  0.2239  0.0718 -0.0547
19592SOL    HW159354   8.939   3.589   5.209  0.7150 -1.0778  0.7479
19592SOL    HW259355   8.870   3.540   5.084 -0.3973 -0.4449  1.0986
19593SOL     OW59356   2.273   4.121   2.757  0.2024  0.0949  0.0973
19593SOL    HW159357   2.212   4.095   2.826 -1.2975  1.0576 -0.8119
19593SOL    HW259358   2.261   4.216   2.749  0.6606  0.0590 -1.2003
19594SOL     OW59359   3.979   8.734   5.932  0.4041  0.4197  0.1928
19594SOL    HW159360   3.996   8.741   5.838 -0.5135 -0.8316 -0.0826
19594SOL    HW259361   4.024   8.653   5.958 -0.0580  0.3055  0.6499
19595SOL     OW59362   5.838   4.838   3.985  0.7446 -0.0494  0.0573
19595SOL    HW159363   5.833   4.844   3.890  0.3344 -0.2496  0.0646
19595SOL    HW259364   5.917   4.788   4.002  1.9915  1.7513 -0.1206
19596SOL     OW59365   6.015   3.426   3.236 -1.3519  0.5359  0.2815
19596SOL    HW159366   6.085   3.485   3.209  0.7782 -1.5715  0.9037
19596SOL    HW259367   5.955   3.424   3.161 -0.3846  1.8334 -0.5555
19597SOL     OW59368   9.910   9.192   3.490 -0.5372  0.1410 -0.1105
19597SOL    HW159369   9.815   9.196   3.490 -0.5884 -0.7436 -0.6540
19597SOL    HW259370   9.938   9.278   3.520 -1.4769  1.0696 -1.7418
19598SOL     OW59371   2.589   6.543   8.027 -0.4339  0.0467  0.2047
19598SOL    HW159372   2.652   6.473   8.040 -0.1367  0.5414  1.5942
19598SOL    HW259373   2.561   6.534   7.936  1.7478 -0.0925 -0.5022
19599SOL     OW59374   4.188   8.900   5.374 -0.0747 -0.5121 -0.7798
19599SOL    HW159375   4.155   8.977   5.328 -0.3243 -0.6086 -0.7608
19599SOL    HW259376   4.205   8.931   5.463  2.3632  0.2266 -1.4187
19600SOL     OW59377   4.005   5.785   5.824 -0.5802  0.0797  0.1547
19600SOL    HW159378   3.923   5.832   5.836  0.9128  2.8906  0.1779
19600SOL    HW259379   4.057   5.806   5.901  0.3995 -1.1931 -0.1170
19601SOL     OW59380   1.279   2.571   6.674 -0.5785 -0.5958 -0.0009
19601SOL    HW159381   1.253   2.486   6.710  0.8293 -1.0950 -0.0969
19601SOL    HW259382   1.373   2.563   6.661 -0.1850  1.4591  1.2537
19602SOL     OW59383   4.548   6.246   4.053 -0.4336  0.1055  0.1777
19602SOL    HW159384   4.602   6.246   4.132 -0.1514 -1.8459  0.0387
19602SOL    HW259385   4.586   6.177   3.998 -1.7834  0.1447 -0.8531
19603SOL     OW59386   7.879   7.529   8.431 -0.0466 -0.2805  0.1540
19603SOL    HW159387   7.890   7.512   8.525 -1.1005 -2.5863 -0.0514
19603SOL    HW259388   7.950   7.480   8.390 -0.5742 -0.6634 -0.3105
19604SOL     OW59389   2.325   0.163   0.354  0.1577  0.3645 -0.0437
19604SOL    HW159390   2.286   0.217   0.286 -1.3447  0.4728  0.8649
19604SOL    HW259391   2.280   0.079   0.347 -1.0911  0.8301  1.7146
19605SOL     OW59392   6.987   3.834   8.884 -0.1417  0.0384  0.0226
19605SOL    HW159393   6.980   3.740   8.868 -0.8943  0.1322 -0.2525
19605SOL    HW259394   7.075   3.857   8.855  0.6415 -0.8560  1.5721
19606SOL     OW59395   3.684   9.389   2.007 -0.2782 -0.7395  0.2499
19606SOL    HW159396   3.619   9.457   2.022  1.6430  1.2107  0.3110
19606SOL    HW259397   3.661   9.351   1.922 -1.4825 -0.1029  0.2831
19607SOL     OW59398   0.735   7.628   6.663  0.0233 -0.3725  0.1159
19607SOL    HW159399   0.740   7.671   6.749 -0.6961 -0.8494  0.4087
19607SOL    HW259400   0.653   7.580   6.666 -0.3484  0.1627 -1.1167
19608SOL     OW59401   8.506   1.765   5.314  0.3558  0.1378 -0.4635
19608SOL    HW159402   8.508   1.722   5.400 -0.6827 -1.1034 -1.0189
19608SOL    HW259403   8.436   1.830   5.323 -0.9366 -1.1267 -0.8149
19609SOL     OW59404   0.338   8.541   0.628  0.0100  0.6927  0.1784
19609SOL    HW159405   0.432   8.530   0.645  0.1193 -0.5342 -0.9874
19609SOL    HW259406   0.296   8.522   0.712  0.7871  1.1408  0.6870
19610SOL     OW59407   8.096   6.612   7.800 -0.0138  0.3659 -0.6200
19610SOL    HW159408   8.026   6.553   7.829  0.5402 -0.0024 -0.0296
19610SOL    HW259409   8.050   6.679   7.748 -0.6925 -0.3598 -0.9772
19611SOL     OW59410   1.246   6.386   1.701  0.0024 -0.3715 -0.2383
19611SOL    HW159411   1.162   6.425   1.726 -0.0742  1.1229 -2.5550
19611SOL    HW259412   1.309   6.425   1.761 -0.9678 -2.1393  2.0920
19612SOL     OW59413   8.737   6.358   7.811  0.0575 -0.7026  0.5316
19612SOL    HW159414   8.655   6.399   7.840 -0.0805  0.7059 -1.6135
19612SOL    HW259415   8.805   6.408   7.856 -0.1872  0.6496 -0.5272
19613SOL     OW59416   5.885   4.672   8.421 -0.1692 -0.1359 -0.3773
19613SOL    HW159417   5.902   4.766   8.425  2.7436 -0.5633 -0.6305
19613SOL    HW259418   5.825   4.662   8.347 -0.7098  1.5149 -0.2122
19614SOL     OW59419   1.463   5.012   7.354  1.0062 -0.1437  0.2726
19614SOL    HW159420   1.510   4.954   7.414  1.8466 -1.4378 -1.5290
19614SOL    HW259421   1.374   5.015   7.390  1.1996 -1.7526  1.0083
19615SOL     OW59422   2.734   3.659   8.518  0.3146  0.0832  0.4919
19615SOL    HW159423   2.797   3.685   8.585  0.1705  2.1743 -0.1058
19615SOL    HW259424   2.658   3.628   8.567 -0.0312  2.1498  1.3670
19616SOL     OW59425   8.551   7.681   5.065 -0.1392  0.3824 -0.2277
19616SOL    HW159426   8.521   7.595   5.094 -0.9222  0.5865 -0.4020
19616SOL    HW259427   8.587   7.665   4.978 -0.7119  0.2982 -0.4565
19617SOL     OW59428   0.391   1.801   2.367  0.3588  0.0562  0.0312
19617SOL    HW159429   0.449   1.877   2.370 -1.4740  1.5711 -0.5955
19617SOL    HW259430   0.390   1.767   2.456  2.4315 -0.2534 -0.0116
19618SOL     OW59431   2.800   0.045   3.302 -0.2997  0.0871  0.4844
19618SOL    HW159432   2.738   0.048   3.229 -0.2663  0.0923  0.4561
19618SOL    HW259433   2.813  -0.048   3.319  0.3155  0.0671 -0.0451
19619SOL     OW59434   7.647   7.849   2.347  0.0388  0.1514  0.0535
19619SOL    HW159435   7.654   7.755   2.362 -0.3229  0.2029  0.5596
19619SOL    HW259436   7.684   7.889   2.425 -0.1271  0.4277 -0.0063
19620SOL     OW59437   1.005   6.549   4.689 -0.1994 -0.0172 -0.5995
19620SOL    HW159438   1.020   6.471   4.742 -1.5158  0.1773  0.1160
19620SOL    HW259439   1.091   6.587   4.676  0.3117 -0.9136  0.0933
19621SOL     OW59440   6.981   5.103   7.815 -0.0189 -0.0483 -0.3429
19621SOL    HW159441   6.930   5.183   7.828  1.5868  0.9159  0.3610
19621SOL    HW259442   6.991   5.066   7.903 -0.3893 -0.7948 -0.6096
19622SOL     OW59443   5.980   2.437   4.277  0.1434  0.0939  0.2054
19622SOL    HW159444   6.042   2.501   4.240  1.2777  0.0049  1.8559
19622SOL    HW259445   5.970   2.372   4.208 -1.7327  2.3919 -1.9091
19623SOL     OW59446   0.197   9.729   7.962 -0.6263  0.0565 -0.2537
19623SOL    HW159447   0.184   9.641   7.926 -0.6114  0.1080 -0.3873
19623SOL    HW259448   0.187   9.718   8.056 -0.6865 -0.0775 -0.2747
19624SOL     OW59449   0.127   0.363   0.925  0.6111  0.2837  0.7035
19624SOL    HW159450   0.141   0.453   0.894 -1.6751  0.9585  1.3609
19624SOL    HW259451   0.186   0.354   0.999  1.1746  1.0900  0.3785
19625SOL     OW59452   8.759   7.157   6.415  0.0200 -0.6852 -0.4694
19625SOL    HW159453   8.770   7.166   6.509 -0.3017  1.1870 -0.5794
19625SOL    HW259454   8.834   7.203   6.377 -0.0984 -1.0263 -1.1466
19626SOL     OW59455   4.279   1.961   1.403  0.3001 -0.4089  0.3736
19626SOL    HW159456   4.267   1.903   1.328 -1.2947  0.9806 -0.5161
19626SOL    HW259457   4.208   1.938   1.463  1.8287 -1.8237  1.7480
19627SOL     OW59458   1.528   7.197   9.430 -0.4759  0.3426 -0.0539
19627SOL    HW159459   1.494   7.235   9.511 -1.9982  0.8510 -0.8739
19627SOL    HW259460   1.494   7.107   9.429  0.1752  0.0920  0.2258
19628SOL     OW59461   9.053   6.791   1.611 -0.2785 -0.0788  0.0194
19628SOL    HW159462   9.012   6.756   1.690 -0.6855  0.4023  0.0245
19628SOL    HW259463   9.135   6.832   1.643 -0.8086  0.7889  0.3133
19629SOL     OW59464   2.233   0.009   0.787 -0.3642  0.0368 -0.2924
19629SOL    HW159465   2.232   0.072   0.715 -0.1477  0.3534 -0.0238
19629SOL    HW259466   2.324   0.010   0.818 -0.5404  0.2047  0.2376
19630SOL     OW59467   1.176   0.916   1.428 -0.0952  0.6323  0.2137
19630SOL    HW159468   1.177   0.984   1.496 -2.7173  0.3619  0.6404
19630SOL    HW259469   1.205   0.961   1.349  2.4173  1.1177  1.3222
19631SOL     OW59470   6.478   3.007   3.923  0.1364  0.1588 -0.2239
19631SOL    HW159471   6.466   3.032   3.831 -0.9001  1.2016  0.1646
19631SOL    HW259472   6.389   2.996   3.956  0.5156 -0.6860  0.5425
19632SOL     OW59473   6.080   7.063   5.269  0.0497  0.1868 -0.3321
19632SOL    HW159474   6.104   7.154   5.289 -0.6710  1.0283 -2.8490
19632SOL    HW259475   6.163   7.016   5.269  0.6736  1.2385 -0.7762
19633SOL     OW59476   2.687   8.098   5.679  0.4488 -0.2749  0.0059
19633SOL    HW159477   2.778   8.083   5.656  0.5491  0.9696 -0.4732
19633SOL    HW259478   2.657   8.165   5.618 -0.4605  0.1705  0.9050
19634SOL     OW59479   4.918   3.574   9.442 -0.5313 -0.0257  0.3026
19634SOL    HW159480   4.922   3.666   9.419 -0.0836  0.2302  1.3462
19634SOL    HW259481   4.830   3.546   9.415 -0.5203  0.5834 -0.4061
19635SOL     OW59482   4.427   6.834   1.575  0.1519  0.0641 -0.3511
19635SOL    HW159483   4.344   6.864   1.611 -0.6177 -0.9590 -1.2211
19635SOL    HW259484   4.473   6.795   1.650 -0.8054 -0.7319 -0.1605
19636SOL     OW59485   4.798   5.564   0.804 -0.2470  0.5604  0.2013
19636SOL    HW159486   4.867   5.519   0.755 -1.2133  0.5511 -1.2021
19636SOL    HW259487   4.840   5.646   0.833  1.0352 -0.4744  1.4160
19637SOL     OW59488   5.923   1.404   6.827 -0.5334 -0.1746  0.8677
19637SOL    HW159489   5.988   1.370   6.888 -1.1805 -1.9306  0.6393
19637SOL    HW259490   5.863   1.332   6.814 -2.1199  1.1637  0.4806
19638SOL     OW59491   7.603   8.649   3.591  0.4305  0.5242  0.2042
19638SOL    HW159492   7.685   8.612   3.557  1.2043  1.7788  0.6116
19638SOL    HW259493   7.583   8.595   3.668  1.9534  1.3488  1.2399
19639SOL     OW59494   1.264   6.169   4.819  0.1387  0.5670  0.0923
19639SOL    HW159495   1.260   6.235   4.750 -2.3507 -0.0180 -0.4280
19639SOL    HW259496   1.296   6.216   4.896 -2.6659  2.7643  0.0617
19640SOL     OW59497   0.564   9.086   1.172  0.3321 -0.1357 -0.5812
19640SOL    HW159498   0.636   9.126   1.124  1.5471 -1.3027  0.2031
19640SOL    HW259499   0.534   9.015   1.116  1.2250 -0.9921 -0.0126
19641SOL     OW59500   4.154   2.654   3.691  0.0076  0.2450  0.5606
19641SOL    HW159501   4.169   2.563   3.717 -1.3320 -0.0577  0.3448
19641SOL    HW259502   4.236   2.698   3.712  0.5251 -0.9154  1.0986
19642SOL     OW59503   9.269   1.241   2.874 -0.0498  0.0185 -0.7313
19642SOL    HW159504   9.298   1.302   2.940  0.5740 -2.2583  1.2379
19642SOL    HW259505   9.302   1.276   2.791  1.9491  1.3105  0.5457
19643SOL     OW59506   0.899   4.416   6.332  0.1983 -0.0373 -0.4787
19643SOL    HW159507   0.816   4.368   6.328  0.1662 -0.3942  2.4753
19643SOL    HW259508   0.874   4.507   6.317 -0.5087 -0.3177 -1.0487
19644SOL     OW59509   4.646   8.907   5.157  0.3787  0.1748  0.3454
19644SOL    HW159510   4.613   8.990   5.123 -1.6174 -1.6894 -2.7381
19644SOL    HW259511   4.582   8.880   5.223  0.4238  0.4993  0.5263
19645SOL     OW59512   3.560   1.343   0.179 -0.0500 -0.2292  0.6303
19645SOL    HW159513   3.496   1.413   0.174 -0.0698 -0.2367  0.7797
19645SOL    HW259514   3.632   1.371   0.122 -0.0195 -0.0484  0.7593
19646SOL     OW59515   3.302   6.698   4.587 -0.2921  0.2553  0.1178
19646SOL    HW159516   3.344   6.631   4.640  1.2035 -0.0102 -1.2806
19646SOL    HW259517   3.370   6.724   4.524 -0.8993  2.8832  0.4219
19647SOL     OW59518   6.941   8.573   4.137 -0.4417  0.2246  0.0097
19647SOL    HW159519   6.942   8.478   4.126  2.0215  0.1947  0.0204
19647SOL    HW259520   6.908   8.607   4.053 -0.6614 -0.6082 -0.2477
19648SOL     OW59521   1.284   2.787   5.112 -0.0357 -0.3303  0.3057
19648SOL    HW159522   1.316   2.877   5.106 -1.3144  0.0562 -1.8109
19648SOL    HW259523   1.326   2.742   5.039 -1.6940 -0.6552 -0.4796
19649SOL     OW59524   6.045   1.452   7.068 -0.2481  0.6244 -0.5319
19649SOL    HW159525   6.134   1.474   7.094 -0.8326  1.2624  1.1339
19649SOL    HW259526   5.993   1.471   7.147 -1.6132 -1.3341 -0.9071
19650SOL     OW59527   2.076   3.185   8.540 -0.3970  0.0884  0.1019
19650SOL    HW159528   2.057   3.093   8.524  0.1129  0.5305 -3.9433
19650SOL    HW259529   2.171   3.192   8.533 -0.3352  0.8168  1.3559
19651SOL     OW59530   9.889   6.377   7.989 -0.0510  0.1434 -0.3113
19651SOL    HW159531   9.853   6.438   7.925 -0.8721  1.2163  1.1192
19651SOL    HW259532   9.929   6.308   7.936  0.6746  1.7624 -1.9894
19652SOL     OW59533   1.628   1.502   5.359 -0.1409 -0.3955  0.4334
19652SOL    HW159534   1.564   1.485   5.290  2.1143 -2.4757 -1.3526
19652SOL    HW259535   1.652   1.415   5.391  1.1818  0.3729  1.6296
19653SOL     OW59536   3.162   2.599   5.775 -0.0957 -0.0497  0.0299
19653SOL    HW159537   3.180   2.651   5.696 -0.8139 -0.1780 -0.2312
19653SOL    HW259538   3.234   2.536   5.779  2.2985  2.5573  1.8045
19654SOL     OW59539   9.750   1.003   2.809  0.5147  0.4181  0.4817
19654SOL    HW159540   9.819   1.005   2.743 -1.6169 -1.2440 -1.9719
19654SOL    HW259541   9.740   0.910   2.831  0.4844  0.8364  2.4836
19655SOL     OW59542   4.032   2.699   0.526 -0.1770 -0.4354 -0.6563
19655SOL    HW159543   3.994   2.660   0.605  2.0050  0.1490  0.7502
19655SOL    HW259544   3.959   2.747   0.486 -1.5394 -1.4276  0.5195
19656SOL     OW59545   5.404   7.297   5.619  0.0120 -0.3882 -0.4171
19656SOL    HW159546   5.453   7.375   5.645  2.1182 -1.2083 -1.7069
19656SOL    HW259547   5.423   7.233   5.688  0.5133 -0.5862 -0.7279
19657SOL     OW59548   6.695   3.915   7.934 -0.1933 -0.1861  0.3081
19657SOL    HW159549   6.603   3.926   7.909 -0.4646 -2.1438  0.2658
19657SOL    HW259550   6.695   3.925   8.030 -0.9927 -2.8164  0.6702
19658SOL     OW59551   7.922   6.820   7.347 -0.2008 -0.3234 -0.3654
19658SOL    HW159552   7.852   6.852   7.290 -0.1120 -0.5877 -0.6213
19658SOL    HW259553   7.999   6.868   7.319 -0.2013 -0.2977 -0.3230
19659SOL     OW59554   6.892   9.407   1.754  0.1033  0.2440  0.0050
19659SOL    HW159555   6.852   9.453   1.827 -0.5621 -1.5663  0.8523
19659SOL    HW259556   6.834   9.424   1.679  0.4193  1.5563  0.0511
19660SOL     OW59557   6.877   3.025   3.741  0.3153 -0.2148  0.3079
19660SOL    HW159558   6.813   3.075   3.690 -0.8589 -1.2600  0.7026
19660SOL    HW259559   6.938   2.990   3.675 -1.0473 -1.3483 -0.4088
19661SOL     OW59560   6.452   6.026   9.091 -0.1465 -0.1104  0.1385
19661SOL    HW159561   6.516   6.022   9.162  0.0522 -1.4907 -0.0924
19661SOL    HW259562   6.371   5.991   9.129 -0.3756  0.2739  0.0135
19662SOL     OW59563   5.166   9.163   5.151 -0.1058 -0.3649  0.0441
19662SOL    HW159564   5.078   9.128   5.138  0.1963 -1.6161  1.0702
19662SOL    HW259565   5.154   9.255   5.170 -1.1009 -0.2801 -0.9196
19663SOL     OW59566   9.106   7.385   4.686  0.1289  0.1013  0.2854
19663SOL    HW159567   9.054   7.305   4.683  1.3446 -0.7415  0.7137
19663SOL    HW259568   9.053   7.451   4.641  0.5150 -1.7622 -3.2322
19664SOL     OW59569   2.494   5.356   2.305  0.2240  0.3022  0.6304
19664SOL    HW159570   2.549   5.399   2.239  0.6215 -0.5067  0.4242
19664SOL    HW259571   2.426   5.312   2.254  2.2536 -2.9371  0.4013
19665SOL     OW59572   1.936   4.436   6.837 -0.0974  0.2067  0.6286
19665SOL    HW159573   1.851   4.393   6.829 -0.0521  0.3503 -0.7322
19665SOL    HW259574   1.932   4.510   6.777  0.1925  1.5532  2.2073
19666SOL     OW59575   4.913   9.077   3.937 -0.3614 -0.6078 -0.5876
19666SOL    HW159576   4.863   9.158   3.942 -1.3949 -1.2901  0.4752
19666SOL    HW259577   4.981   9.087   4.005  1.0429  0.3287 -2.0460
19667SOL     OW59578   6.065   3.005   6.668  0.3482  0.0519  0.4915
19667SOL    HW159579   6.047   2.939   6.601  0.2799  0.4046  0.1584
19667SOL    HW259580   6.094   3.082   6.619 -1.4778  0.9372  0.7216
19668SOL     OW59581   2.380   5.339   6.142 -0.2831  1.1073  0.5199
19668SOL    HW159582   2.467   5.377   6.156 -0.5076  1.1453  1.9380
19668SOL    HW259583   2.394   5.270   6.078  0.6858  1.4965  0.2894
19669SOL     OW59584   5.189   2.424   5.029 -0.1368 -0.6361 -0.4148
19669SOL    HW159585   5.190   2.342   5.078 -1.9014 -1.0612 -1.0076
19669SOL    HW259586   5.271   2.467   5.052  1.1408 -2.8497 -0.6095
19670SOL     OW59587   1.297   6.969   9.046  0.3523  0.1478  0.5116
19670SOL    HW159588   1.377   7.009   9.079 -0.0950  2.0605 -0.5709
19670SOL    HW259589   1.257   6.928   9.123  2.0908 -0.4227  1.1594
19671SOL     OW59590   0.566   4.842  -0.028 -0.2261  0.0108 -0.3168
19671SOL    HW159591   0.542   4.818   0.062  0.5118 -4.8752 -1.1964
19671SOL    HW259592   0.661   4.849  -0.026 -0.1969 -0.2769 -0.7903
19672SOL     OW59593   5.782   1.544   5.756 -0.3743 -0.5955 -0.4896
19672SOL    HW159594   5.717   1.481   5.788  0.2383 -1.6530 -1.2591
19672SOL    HW259595   5.861   1.492   5.743  0.5291  0.5970  0.0632
19673SOL     OW59596   4.928   2.401   8.394 -0.2419 -0.2704 -0.4955
19673SOL    HW159597   5.003   2.458   8.410 -0.2816 -0.4194  0.2290
19673SOL    HW259598   4.957   2.342   8.324  0.4301 -0.5349 -0.0029
19674SOL     OW59599   2.667   9.717   2.401 -0.0639 -0.5821  0.0603
19674SOL    HW159600   2.723   9.664   2.344 -0.9220 -0.3638 -1.0102
19674SOL    HW259601   2.670   9.805   2.363 -1.2683 -0.6049 -0.1235
19675SOL     OW59602   7.684   3.160   6.014  0.1236  0.0326  0.0036
19675SOL    HW159603   7.756   3.122   6.066  1.5295  2.2727 -0.1764
19675SOL    HW259604   7.645   3.226   6.071 -0.3715  0.3546 -0.6922
19676SOL     OW59605   9.634   8.855   2.586  0.1307 -0.1872 -0.3217
19676SOL    HW159606   9.717   8.807   2.587  0.7634  0.8660 -0.8221
19676SOL    HW259607   9.630   8.896   2.672  0.2147 -0.0900 -0.3644
19677SOL     OW59608   3.842   4.640   6.355  0.1194 -0.1824  0.4199
19677SOL    HW159609   3.770   4.577   6.362 -0.1187 -0.0774 -0.8228
19677SOL    HW259610   3.909   4.606   6.414 -0.1772 -1.3680  0.1116
19678SOL     OW59611   3.875   9.940   1.929  0.2911  0.2004  0.0284
19678SOL    HW159612   3.860   9.900   1.843 -0.4378  0.6826 -0.0787
19678SOL    HW259613   3.967   9.965   1.928  0.1802  0.6000 -0.7885
19679SOL     OW59614   1.250   8.102   5.302  0.0545  0.3288  0.3700
19679SOL    HW159615   1.182   8.082   5.366 -0.1111 -0.0691  0.0772
19679SOL    HW259616   1.204   8.143   5.229  0.1998  0.5057  0.3765
19680SOL     OW59617   6.230   4.103   9.486 -0.1563 -0.0628 -0.4693
19680SOL    HW159618   6.188   4.042   9.548  0.6017 -0.3336 -0.2079
19680SOL    HW259619   6.255   4.178   9.540  1.0188 -0.5442 -0.3093
19681SOL     OW59620   5.096   8.832   3.339 -0.4830 -0.8213 -0.0254
19681SOL    HW159621   5.041   8.826   3.417 -0.1561 -0.8900  0.2018
19681SOL    HW259622   5.177   8.872   3.370 -0.7319  0.0943 -0.5390
19682SOL     OW59623   2.129   2.667   5.021 -0.1941  0.1694 -0.3691
19682SOL    HW159624   2.101   2.585   5.061 -1.1309  0.2540 -0.8181
19682SOL    HW259625   2.152   2.723   5.095  2.6872 -1.2127 -0.1073
19683SOL     OW59626   2.757   4.750   5.833  0.7374 -0.2936 -0.2124
19683SOL    HW159627   2.689   4.688   5.806  0.0658  1.0001 -1.6414
19683SOL    HW259628   2.711   4.834   5.838  1.6360  0.1332  1.6258
19684SOL     OW59629   3.202   3.251   7.723  0.1220  0.1130 -0.2380
19684SOL    HW159630   3.295   3.237   7.738 -0.1529 -0.7210  0.9112
19684SOL    HW259631   3.188   3.227   7.631  0.5682 -2.7977  0.3435
19685SOL     OW59632   5.207   1.411   0.457 -0.0629 -0.1365  0.2393
19685SOL    HW159633   5.275   1.392   0.393  1.5668  2.5166  1.0692
19685SOL    HW259634   5.141   1.342   0.442  1.7858 -1.5776 -1.9692
19686SOL     OW59635   1.417   3.204   5.624 -0.4245 -0.3339 -0.1440
19686SOL    HW159636   1.338   3.151   5.631 -1.5047  1.4024  1.4778
19686SOL    HW259637   1.389   3.285   5.581  1.0112 -0.5934 -1.7343
19687SOL     OW59638   0.238   5.068   3.078  0.3512  0.0243 -0.6435
19687SOL    HW159639   0.294   5.142   3.101 -0.2456  0.0517  0.8188
19687SOL    HW259640   0.158   5.108   3.044  0.2592  0.0389 -0.4103
19688SOL     OW59641   3.139   4.330   6.801  0.0886 -0.2123  0.2326
19688SOL    HW159642   3.096   4.264   6.748  1.2380  0.1815 -1.2693
19688SOL    HW259643   3.232   4.310   6.793  0.4904  1.7868 -0.5916
19689SOL     OW59644   6.753   2.834   3.864 -0.0224 -0.2587  0.7168
19689SOL    HW159645   6.793   2.910   3.822  1.8593 -0.4024  2.1737
19689SOL    HW259646   6.748   2.857   3.956  0.1480 -1.7184  1.1097
19690SOL     OW59647   7.895   2.004   7.198  0.0136  0.4979 -0.0208
19690SOL    HW159648   7.849   1.938   7.250  1.5933 -2.6564 -2.3090
19690SOL    HW259649   7.833   2.029   7.130 -1.1802  2.8161  1.7635
19691SOL     OW59650   8.665   0.615   3.032 -0.0738 -0.6057 -0.4629
19691SOL    HW159651   8.695   0.647   3.117  0.4700 -0.9279 -0.5313
19691SOL    HW259652   8.721   0.659   2.969 -0.2014 -0.6866 -0.6324
19692SOL     OW59653   5.905   3.422   4.859  0.7313 -0.6213  0.5218
19692SOL    HW159654   5.905   3.444   4.766  0.8660 -0.9097  0.4547
19692SOL    HW259655   5.837   3.479   4.897 -1.1982 -2.3114 -0.1935
19693SOL     OW59656   7.062   7.660   0.488 -0.0340  0.0425  0.0668
19693SOL    HW159657   7.049   7.713   0.409  0.1675  0.7059  0.4763
19693SOL    HW259658   7.020   7.710   0.558  0.2777 -0.2727  0.4800
19694SOL     OW59659   7.128   8.917   7.751  0.6372  0.0923 -0.3563
19694SOL    HW159660   7.072   8.994   7.756 -0.5324 -0.8009  1.1271
19694SOL    HW259661   7.215   8.948   7.779  0.1076  0.8225  0.5362
19695SOL     OW59662   8.368   0.977   7.717 -0.2869  0.8059 -0.1198
19695SOL    HW159663   8.433   1.029   7.763 -0.5354  1.5214 -0.5558
19695SOL    HW259664   8.350   0.903   7.775 -0.4031  1.5456  0.7890
19696SOL     OW59665   8.433   6.014   3.104 -0.4206  0.1392 -0.0768
19696SOL    HW159666   8.394   6.045   3.186  1.4748 -1.5139  1.5722
19696SOL    HW259667   8.463   6.093   3.060 -0.3585  1.0026  1.4557
19697SOL     OW59668   5.921   7.219   6.659 -0.1404  0.1960  0.7446
19697SOL    HW159669   5.879   7.142   6.620  1.6137 -0.5452  0.2264
19697SOL    HW259670   5.861   7.246   6.728 -2.3279  0.2619 -1.0541
19698SOL     OW59671   5.770   9.383   6.775 -0.4367  0.1394 -0.2672
19698SOL    HW159672   5.703   9.322   6.743 -1.2750  0.1501  1.3183
19698SOL    HW259673   5.731   9.470   6.761 -0.3329  0.1903 -0.2420
19699SOL     OW59674   4.874   7.139   1.308  1.0419 -0.1797  0.4210
19699SOL    HW159675   4.784   7.108   1.296  1.1928 -0.7445  0.7193
19699SOL    HW259676   4.926   7.085   1.248  1.1418  0.3714  0.0043
19700SOL     OW59677   6.955   3.984   9.632 -0.5654 -0.0198 -0.4253
19700SOL    HW159678   6.924   4.042   9.701  1.1740 -0.4026  0.7645
19700SOL    HW259679   7.022   3.930   9.675 -0.0928 -0.9208 -2.1958
19701SOL     OW59680   4.188   0.757   5.453 -0.0769  0.0606 -0.0563
19701SOL    HW159681   4.153   0.712   5.529 -0.4440 -0.1506 -0.3477
19701SOL    HW259682   4.278   0.728   5.447 -0.2876 -0.5779 -0.1965
19702SOL     OW59683   5.057   2.875   8.095 -0.2455  0.9827  0.2641
19702SOL    HW159684   4.967   2.866   8.127  0.0290  1.8863  1.3389
19702SOL    HW259685   5.111   2.838   8.165  0.2570  1.0100 -0.1050
19703SOL     OW59686   5.143   9.588   2.077  0.0053 -0.3999 -0.4249
19703SOL    HW159687   5.071   9.641   2.111  0.6857  0.2878 -0.0349
19703SOL    HW259688   5.116   9.566   1.988  0.1482  1.4568 -0.9600
19704SOL     OW59689   4.653   6.104   3.195  0.1611 -0.4622  0.2641
19704SOL    HW159690   4.588   6.088   3.263 -0.2380  2.6517  0.7583
19704SOL    HW259691   4.737   6.082   3.236 -0.2998 -1.5040  0.6822
19705SOL     OW59692   9.656   9.179   2.219  0.2679  0.8160 -0.0681
19705SOL    HW159693   9.583   9.175   2.157  1.3942 -0.7293 -1.3846
19705SOL    HW259694   9.667   9.089   2.249  1.0605  1.1929  0.8262
19706SOL     OW59695   3.864   2.932   0.479 -0.2394 -0.4589  0.5580
19706SOL    HW159696   3.860   2.952   0.385 -1.8850 -1.3512  0.3974
19706SOL    HW259697   3.892   3.014   0.520 -2.0069  0.7342 -0.4954
19707SOL     OW59698   0.874   5.298   4.939 -0.1980  0.7071 -0.0490
19707SOL    HW159699   0.932   5.255   4.876  1.7950  0.9742  1.4901
19707SOL    HW259700   0.831   5.368   4.890  0.3198  0.1115 -1.3903
19708SOL     OW59701   8.693   3.258   3.419  0.1221  0.4579  0.6843
19708SOL    HW159702   8.637   3.334   3.402  0.7492  0.9927  0.9547
19708SOL    HW259703   8.709   3.220   3.332 -1.9575 -0.6743  0.7329
19709SOL     OW59704   0.616   6.037   0.583 -0.3167  0.4879 -0.3638
19709SOL    HW159705   0.578   5.992   0.658 -1.8781  2.6830  0.2668
19709SOL    HW259706   0.711   6.035   0.600 -0.4000 -1.5711  0.1168
19710SOL     OW59707   7.053   3.511   5.431 -0.0477  0.1366  0.0795
19710SOL    HW159708   6.960   3.490   5.442 -0.3135  0.9088 -0.5333
19710SOL    HW259709   7.098   3.460   5.498 -0.6190 -2.3973 -1.3495
19711SOL     OW59710   1.461   7.903   1.810  0.3065  0.0974 -0.0913
19711SOL    HW159711   1.534   7.954   1.844  1.6446 -0.9787 -1.2328
19711SOL    HW259712   1.413   7.874   1.887  2.0758 -0.5992  0.8006
19712SOL     OW59713   8.170   1.226   9.657 -0.0857  0.2354 -0.2170
19712SOL    HW159714   8.110   1.296   9.681  2.6285  2.6178  0.2066
19712SOL    HW259715   8.121   1.145   9.673 -3.2105  1.9694 -0.2446
19713SOL     OW59716   6.619   8.052   5.223  0.3021 -0.2001 -0.3273
19713SOL    HW159717   6.595   8.027   5.134  1.1624  1.9245 -1.2316
19713SOL    HW259718   6.696   8.109   5.212  1.1904 -0.8668  1.8757
19714SOL     OW59719   7.768   8.185   5.372  0.2123 -0.0037 -0.0787
19714SOL    HW159720   7.834   8.182   5.303 -0.4396  1.9575 -0.8588
19714SOL    HW259721   7.814   8.225   5.446  0.0572  0.9409 -0.4744
19715SOL     OW59722   9.323   7.132   7.943 -0.2491  0.0198 -0.2101
19715SOL    HW159723   9.359   7.120   7.855 -1.9589  0.4096 -0.9876
19715SOL    HW259724   9.341   7.049   7.987 -0.6596 -0.7169 -1.3976
19716SOL     OW59725   8.208   0.976   4.972  0.3579 -0.7034 -0.3735
19716SOL    HW159726   8.136   0.939   5.024 -0.2766  1.7119  0.6171
19716SOL    HW259727   8.222   1.063   5.010  2.7118 -0.4686 -1.6284
19717SOL     OW59728   8.023   2.100   4.514  0.3005 -0.0749  0.2080
19717SOL    HW159729   7.932   2.070   4.517  0.8374 -1.6640  1.1387
19717SOL    HW259730   8.061   2.055   4.438  0.3514  0.5245 -0.1305
19718SOL     OW59731   3.183   7.586   9.304 -0.4390 -0.0635 -0.3748
19718SOL    HW159732   3.098   7.630   9.305 -1.2220 -1.5103 -0.6229
19718SOL    HW259733   3.165   7.500   9.267  1.2407 -0.2186 -0.9352
19719SOL     OW59734   1.130   4.017   6.831 -0.2637 -0.3309 -0.0728
19719SOL    HW159735   1.139   3.986   6.741 -0.2779 -1.5152  0.3197
19719SOL    HW259736   1.181   4.098   6.834  0.5331 -0.7841 -0.9014
19720SOL     OW59737   7.847   5.615   0.429 -0.0737  0.6564 -0.0559
19720SOL    HW159738   7.942   5.622   0.435 -0.0710  0.3211  0.3631
19720SOL    HW259739   7.829   5.608   0.336  0.2471  1.6081 -0.1974
19721SOL     OW59740   7.903   5.681   7.546  0.0107 -0.2596 -0.7438
19721SOL    HW159741   7.973   5.739   7.575 -0.0158  0.1332 -1.4435
19721SOL    HW259742   7.941   5.632   7.473 -0.8831  1.0130 -2.1154
19722SOL     OW59743   5.197   6.808   1.655 -0.2997  0.1469 -0.2814
19722SOL    HW159744   5.123   6.824   1.597 -1.3490 -0.1284  0.9291
19722SOL    HW259745   5.201   6.886   1.711  0.7672  0.4614 -0.7590
19723SOL     OW59746   9.146   5.034   1.975  0.0049 -0.0801  0.6187
19723SOL    HW159747   9.058   5.070   1.973  0.0037 -0.0826 -1.8285
19723SOL    HW259748   9.174   5.043   2.066 -1.8213  1.5847  1.0673
19724SOL     OW59749   9.722   7.276   3.185 -0.1089 -0.6064  0.3834
19724SOL    HW159750   9.668   7.201   3.210 -0.5723 -0.7346 -0.8989
19724SOL    HW259751   9.659   7.347   3.173  0.4957  0.6526  3.6238
19725SOL     OW59752   7.407   0.912   1.745  0.5703  0.5648  0.0190
19725SOL    HW159753   7.499   0.928   1.724  0.0314  0.8113 -2.4688
19725SOL    HW259754   7.359   0.955   1.675 -1.3979 -0.7167  0.5160
19726SOL     OW59755   6.443   2.359   6.804  0.4407  0.2410  0.5412
19726SOL    HW159756   6.382   2.399   6.866  0.3482 -1.0459  1.3337
19726SOL    HW259757   6.400   2.368   6.719 -1.0493 -0.9128  1.1234
19727SOL     OW59758   1.490   6.970   1.757  0.5991 -0.1327  0.1066
19727SOL    HW159759   1.413   6.914   1.768 -0.8837  2.0059  1.4031
19727SOL    HW259760   1.563   6.916   1.788 -0.3142 -2.2368 -1.2169
19728SOL     OW59761   3.535   4.306   2.067 -0.4754 -0.6230  0.1964
19728SOL    HW159762   3.479   4.232   2.090 -1.5336 -0.0682 -0.5400
19728SOL    HW259763   3.565   4.287   1.978 -0.8715 -0.0953 -0.0505
19729SOL     OW59764   2.238   0.744   2.019  0.2196  0.1651 -0.8112
19729SOL    HW159765   2.272   0.833   2.020  0.8358 -0.0760 -0.0190
19729SOL    HW259766   2.315   0.689   2.007  0.0080 -0.3287  0.0176
19730SOL     OW59767   2.087   6.786   8.243 -0.0905  0.3927  0.6302
19730SOL    HW159768   2.096   6.691   8.257 -0.0375  0.3865  0.5515
19730SOL    HW259769   2.161   6.809   8.187 -1.2550  0.1247 -1.0849
19731SOL     OW59770   0.324   6.396   8.021 -0.0832  0.4688  0.4187
19731SOL    HW159771   0.339   6.315   8.068  0.0775  0.9651  1.2342
19731SOL    HW259772   0.264   6.446   8.077 -0.3695  0.8142 -0.1818
19732SOL     OW59773   5.038   6.657   5.445  0.1910  0.4848 -0.1581
19732SOL    HW159774   4.960   6.712   5.435  1.0633  1.6256 -1.0288
19732SOL    HW259775   5.063   6.634   5.356 -1.3201 -3.1680  0.1977
19733SOL     OW59776   0.501   8.679   7.890  0.2001  0.1156 -0.5738
19733SOL    HW159777   0.575   8.624   7.913  0.3435  0.5208 -0.0498
19733SOL    HW259778   0.495   8.743   7.961 -1.0840 -0.3448 -0.2360
19734SOL     OW59779   2.983   1.642   0.295  0.3915  0.0653  0.4170
19734SOL    HW159780   3.011   1.666   0.207 -1.2685 -2.6418 -0.9765
19734SOL    HW259781   2.914   1.705   0.317  0.2461  0.2596 -0.5626
19735SOL     OW59782   4.695   2.415   0.959 -0.2803 -0.4020  0.4532
19735SOL    HW159783   4.700   2.447   0.869  0.6147 -0.2190  0.5534
19735SOL    HW259784   4.627   2.469   1.000  0.2903  0.4821  0.2585
19736SOL     OW59785   4.010   2.377   7.806  0.2270 -0.2735 -0.1831
19736SOL    HW159786   3.947   2.310   7.831  0.4655 -0.5245 -0.2571
19736SOL    HW259787   4.063   2.337   7.738  0.6098 -0.1386  0.0322
19737SOL     OW59788   0.842   3.122   6.914 -0.0889  0.1544 -0.2430
19737SOL    HW159789   0.914   3.157   6.967  0.3771 -0.9069 -0.1510
19737SOL    HW259790   0.818   3.040   6.956 -2.2677  1.1017  0.4951
19738SOL     OW59791   4.236   4.551   4.832 -0.3657 -0.0060 -0.3172
19738SOL    HW159792   4.271   4.462   4.819 -1.9439 -0.9708  1.4923
19738SOL    HW259793   4.258   4.572   4.923 -1.3810  0.8147 -0.2496
19739SOL     OW59794   9.664   5.241   3.635 -0.6009  0.0831 -0.4622
19739SOL    HW159795   9.627   5.169   3.686 -1.6769 -0.1323 -1.4890
19739SOL    HW259796   9.663   5.316   3.695 -0.1131 -0.5840  0.3970
19740SOL     OW59797   9.216   8.979   1.055  0.2648  0.3774 -0.4273
19740SOL    HW159798   9.133   8.949   1.092  0.8063 -0.7090 -0.0478
19740SOL    HW259799   9.192   9.054   1.001 -0.7336  1.2000  1.0580
19741SOL     OW59800   9.835   0.579   4.795  0.5154  0.2757  0.5269
19741SOL    HW159801   9.816   0.585   4.701  0.4503  1.0053  0.5816
19741SOL    HW259802   9.895   0.505   4.803  0.0275 -0.1855 -0.0156
19742SOL     OW59803   9.019   0.152   2.877  0.2616 -0.1347 -0.1970
19742SOL    HW159804   8.992   0.068   2.841  0.3073  0.2870 -1.2444
19742SOL    HW259805   8.975   0.217   2.822  1.5540  0.5324 -0.4774
19743SOL     OW59806   1.519   7.628   0.710  0.1787 -0.1365  0.0299
19743SOL    HW159807   1.519   7.667   0.797 -1.2668 -1.9793  0.9269
19743SOL    HW259808   1.466   7.688   0.656  2.7102  2.0768 -0.2035
19744SOL     OW59809   9.339   1.308   7.165  0.6046 -0.0544  0.0618
19744SOL    HW159810   9.287   1.249   7.110  0.6112 -2.1156  2.1336
19744SOL    HW259811   9.424   1.265   7.173  0.2285 -0.4449  2.5763
19745SOL     OW59812   4.145   1.797   1.241  0.2976  0.1745  0.1510
19745SOL    HW159813   4.051   1.818   1.246  0.0560 -0.5613 -0.9617
19745SOL    HW259814   4.168   1.811   1.149  0.9965 -0.7505  0.1642
19746SOL     OW59815   8.654   5.179   0.081  0.1835  0.1883 -0.3050
19746SOL    HW159816   8.725   5.199   0.142  1.3117 -0.5222 -1.3443
19746SOL    HW259817   8.633   5.264   0.040 -2.1851  1.1852  2.5963
19747SOL     OW59818   0.083   5.117   8.534  0.3219 -0.3001  0.1753
19747SOL    HW159819   0.063   5.207   8.509  0.0043 -0.9887 -2.2746
19747SOL    HW259820  -0.002   5.073   8.536  0.5810 -0.8008  0.2685
19748SOL     OW59821   1.682   0.624   2.340 -0.4711 -0.3249 -0.0489
19748SOL    HW159822   1.722   0.605   2.256 -1.6575  0.7595 -0.9139
19748SOL    HW259823   1.713   0.712   2.362 -0.7369 -0.3065  0.2642
19749SOL     OW59824   6.369   7.469   7.268 -0.3100  0.0667 -0.1664
19749SOL    HW159825   6.454   7.489   7.228  0.8227  0.3422  2.2077
19749SOL    HW259826   6.361   7.374   7.263  0.8357 -0.1021  0.8396
19750SOL     OW59827   0.058   6.004   3.878 -0.3345  0.0805 -0.0532
19750SOL    HW159828   0.030   5.981   3.790  1.5388  0.2525 -0.7351
19750SOL    HW259829   0.025   6.093   3.892 -1.6653 -0.3960 -0.0961
19751SOL     OW59830   8.739   7.472   9.636  0.1734  0.1084 -0.0727
19751SOL    HW159831   8.657   7.513   9.612 -0.1719 -1.3769 -1.6584
19751SOL    HW259832   8.733   7.459   9.731 -1.6925 -0.5195 -0.2393
19752SOL     OW59833   7.828   4.416   0.585  0.2811 -0.0938  0.1302
19752SOL    HW159834   7.791   4.399   0.672  2.5585 -1.0869  0.9733
19752SOL    HW259835   7.824   4.331   0.540 -2.1042  0.6794 -1.3322
19753SOL     OW59836   3.392   0.194   7.436  0.4685 -0.1593 -0.3627
19753SOL    HW159837   3.379   0.211   7.343 -0.9714  0.4135 -0.0809
19753SOL    HW259838   3.466   0.133   7.439  1.4093  0.8595 -1.7905
19754SOL     OW59839   6.209   5.394   4.821 -0.3427  0.1373  0.3576
19754SOL    HW159840   6.298   5.392   4.787 -0.3664  0.5237  0.2650
19754SOL    HW259841   6.155   5.418   4.745 -0.2299  2.6127  0.9607
19755SOL     OW59842   0.256   7.233   9.913  0.2264  0.2182  0.1694
19755SOL    HW159843   0.204   7.305   9.878 -0.3695 -0.9573 -1.4653
19755SOL    HW259844   0.218   7.215   9.999 -0.9051  0.5745 -0.2434
19756SOL     OW59845   6.444   9.653   9.601  0.5580 -0.0060 -0.1471
19756SOL    HW159846   6.534   9.678   9.578  0.0614  1.5016 -0.5178
19756SOL    HW259847   6.397   9.654   9.517 -0.8227  3.6664  0.5069
19757SOL     OW59848   5.454   0.377   9.135 -0.0364  0.1507  0.3339
19757SOL    HW159849   5.427   0.436   9.205  0.2098 -1.1061  1.5246
19757SOL    HW259850   5.526   0.326   9.172  1.6419  0.9987 -1.5986
19758SOL     OW59851   9.643   3.121   1.938 -0.2556  0.3926 -0.6262
19758SOL    HW159852   9.562   3.140   1.890 -0.6757  0.3686  0.0600
19758SOL    HW259853   9.659   3.029   1.921  0.1725  0.6211 -1.5576
19759SOL     OW59854   0.558   2.222   6.854  0.4062 -0.0262  0.2256
19759SOL    HW159855   0.648   2.191   6.842  0.1176 -0.1072 -2.3128
19759SOL    HW259856   0.554   2.249   6.945  2.4944 -1.6326  0.8823
19760SOL     OW59857   8.649   0.349   2.631 -0.1314  0.1963  0.6085
19760SOL    HW159858   8.649   0.426   2.575 -0.5523  1.8140  2.7191
19760SOL    HW259859   8.556   0.327   2.641 -0.0364 -0.3267  0.3896
19761SOL     OW59860   0.110   5.436   6.269  0.3784 -0.2866 -0.4184
19761SOL    HW159861   0.130   5.501   6.337  2.5062 -1.0106 -0.2960
19761SOL    HW259862   0.074   5.487   6.197  2.3710  1.1412 -0.4878
19762SOL     OW59863   2.478   9.377   1.538  0.2444 -0.0381 -0.2366
19762SOL    HW159864   2.466   9.471   1.545 -1.0611  0.1072 -2.9055
19762SOL    HW259865   2.426   9.340   1.610 -0.5986  1.2442 -0.1567
19763SOL     OW59866   3.504   9.911   5.551 -0.4160 -0.0314 -0.9389
19763SOL    HW159867   3.590   9.878   5.527 -1.0927 -1.4938 -1.4667
19763SOL    HW259868   3.443   9.843   5.522 -1.8569  1.4741 -1.6105
19764SOL     OW59869   8.883   1.249   7.230 -0.0102  0.9226  0.1644
19764SOL    HW159870   8.846   1.327   7.272  2.1530  1.4604  1.2012
19764SOL    HW259871   8.960   1.228   7.282  0.2611 -1.1005 -0.9497
19765SOL     OW59872   6.218   1.642   2.658 -0.5344 -0.1698 -0.3632
19765SOL    HW159873   6.146   1.595   2.700 -0.0429 -0.3513  0.3028
19765SOL    HW259874   6.289   1.578   2.654 -0.4579 -0.0434 -1.1638
19766SOL     OW59875   5.407   2.888   9.485  0.1336 -0.4761 -0.0167
19766SOL    HW159876   5.468   2.962   9.497  0.9577 -0.9821 -1.0228
19766SOL    HW259877   5.402   2.849   9.572 -0.6770  1.0228  0.6581
19767SOL     OW59878   8.347   7.404   4.488 -0.6571  0.4906  0.6915
19767SOL    HW159879   8.361   7.495   4.516 -2.8108  1.6178 -1.5103
19767SOL    HW259880   8.259   7.382   4.517 -0.9582 -0.1290 -0.6207
19768SOL     OW59881   9.199   5.691   2.698 -0.0010  0.2814  0.5109
19768SOL    HW159882   9.277   5.636   2.703 -1.3382 -2.0308 -1.4765
19768SOL    HW259883   9.134   5.646   2.752 -0.2617  1.7108  1.4485
19769SOL     OW59884   6.497   3.428   0.264  0.4409 -0.7796 -0.6625
19769SOL    HW159885   6.458   3.361   0.208 -2.7272  0.0695  0.3241
19769SOL    HW259886   6.423   3.484   0.289  2.7050  2.3299 -0.3910
19770SOL     OW59887   5.228   3.571   2.250 -0.0035  0.8878  0.1064
19770SOL    HW159888   5.279   3.532   2.179 -0.0876  1.0571 -0.0503
19770SOL    HW259889   5.289   3.628   2.296  0.1299  0.5426  0.3600
19771SOL     OW59890   6.834   3.725   1.815  0.2248  0.0032 -0.1732
19771SOL    HW159891   6.901   3.793   1.822  0.5318 -0.1419 -1.4357
19771SOL    HW259892   6.756   3.772   1.783  0.2221 -0.1140 -0.3386
19772SOL     OW59893   4.628   4.082   9.276 -0.0248 -0.3426  0.1428
19772SOL    HW159894   4.579   4.125   9.206 -0.3381 -2.6789 -1.1899
19772SOL    HW259895   4.719   4.086   9.248  0.1533  0.8849  0.8571
19773SOL     OW59896   0.985   5.506   1.433  0.4108 -0.2493  0.6413
19773SOL    HW159897   1.056   5.563   1.404  0.8046 -0.8562  0.4127
19773SOL    HW259898   0.907   5.562   1.429  0.7125  0.1354 -0.0698
19774SOL     OW59899   0.070   6.838   1.373  1.0693 -0.0714  0.1394
19774SOL    HW159900   0.025   6.763   1.411  3.4732 -1.8332 -0.2918
19774SOL    HW259901   0.124   6.872   1.445  1.3996  0.0836 -0.1793
19775SOL     OW59902   2.109   2.069   1.535  0.0408  0.4861 -0.2195
19775SOL    HW159903   2.090   2.133   1.603 -0.5006 -1.6421  1.7500
19775SOL    HW259904   2.202   2.083   1.515 -0.3604  2.6952 -0.8526
19776SOL     OW59905   6.195   7.174   6.947 -0.2786 -0.6169 -0.6319
19776SOL    HW159906   6.122   7.113   6.941  0.1632 -1.0429 -1.8301
19776SOL    HW259907   6.221   7.191   6.857  0.9126 -0.2323 -0.2437
19777SOL     OW59908   9.639   5.119   5.252  0.6304 -0.3092 -0.7532
19777SOL    HW159909   9.576   5.053   5.278 -0.3587  0.4427 -1.1618
19777SOL    HW259910   9.707   5.116   5.320 -1.7125  1.4369  1.8958
19778SOL     OW59911   0.988   1.186   6.786 -0.2770  0.6007  0.4943
19778SOL    HW159912   1.064   1.221   6.739  0.1954  0.0670  0.8536
19778SOL    HW259913   0.959   1.259   6.841  0.8009  0.4092  1.3540
19779SOL     OW59914   2.299   6.709   3.631 -0.1016  0.0013 -0.2085
19779SOL    HW159915   2.272   6.744   3.546  0.4112  1.3072  0.1510
19779SOL    HW259916   2.385   6.671   3.615 -0.1945 -0.1493 -0.3588
19780SOL     OW59917   6.610   6.167   6.691 -0.4417 -0.3216 -0.0132
19780SOL    HW159918   6.696   6.125   6.702 -0.4863 -0.1890  0.9679
19780SOL    HW259919   6.597   6.170   6.597  0.9338  0.2526 -0.2146
19781SOL     OW59920   5.287   2.321   6.489  0.4270 -0.3213  0.7784
19781SOL    HW159921   5.246   2.406   6.470 -0.6202 -0.6771  1.3297
19781SOL    HW259922   5.313   2.328   6.581 -0.8397 -1.0201  1.2246
19782SOL     OW59923   4.798   3.985   4.230  0.8920 -0.1214  0.2096
19782SOL    HW159924   4.726   4.047   4.233  1.4993  0.7361 -1.5710
19782SOL    HW259925   4.842   4.003   4.147  2.8259 -0.9881  0.9853
19783SOL     OW59926   1.009   9.254   5.425  0.3542 -0.4517  0.1139
19783SOL    HW159927   0.926   9.213   5.399  0.1138  1.0214 -1.6673
19783SOL    HW259928   1.076   9.192   5.394 -0.0501 -0.6594 -0.3702
19784SOL     OW59929   6.875   9.358   8.006 -0.2042  0.1739 -0.3883
19784SOL    HW159930   6.940   9.428   7.999 -0.4099  0.5277  0.9924
19784SOL    HW259931   6.817   9.386   8.077 -0.7802 -1.0147 -0.3662
19785SOL     OW59932   4.652   2.724   9.139 -0.6679 -0.9309 -0.0277
19785SOL    HW159933   4.630   2.632   9.157 -1.5328 -0.9489 -1.0909
19785SOL    HW259934   4.569   2.771   9.150 -0.5677 -0.5183 -1.0005
19786SOL     OW59935   4.332   8.970   5.938  0.1310 -0.1084  0.0689
19786SOL    HW159936   4.400   9.035   5.923 -0.9638  1.6694  2.2574
19786SOL    HW259937   4.367   8.890   5.900  3.4088  0.7272  0.9901
19787SOL     OW59938   1.029   2.065   6.145 -0.1122  0.3961  0.4601
19787SOL    HW159939   1.051   1.972   6.140 -2.7029 -0.2415 -3.3417
19787SOL    HW259940   0.940   2.067   6.179 -0.6174  1.2878 -0.8250
19788SOL     OW59941   9.759   5.784   6.762 -0.2956  0.2351 -0.6798
19788SOL    HW159942   9.775   5.693   6.787  1.0335  0.5279 -0.3534
19788SOL    HW259943   9.699   5.817   6.829  1.1211  0.2540  0.6517
19789SOL     OW59944   5.775   3.710   6.672 -0.2975 -0.4953  0.2131
19789SOL    HW159945   5.685   3.724   6.645  0.3481  0.8479 -1.4150
19789SOL    HW259946   5.826   3.773   6.622  1.2488  1.0938  3.4775
19790SOL     OW59947   0.770   8.842   9.974  0.0507 -0.1893 -0.0208
19790SOL    HW159948   0.862   8.816   9.975 -0.1255 -0.8801 -0.6707
19790SOL    HW259949   0.752   8.863   9.882  0.0741  1.8850  0.3990
19791SOL     OW59950   1.340   7.616   0.158 -0.0283  0.6739 -0.1970
19791SOL    HW159951   1.388   7.616   0.242 -0.3209  0.6984 -0.0276
19791SOL    HW259952   1.382   7.548   0.106 -1.0650 -0.6942  0.6795
19792SOL     OW59953   4.561   3.707   5.046 -0.7755 -0.1675 -0.0908
19792SOL    HW159954   4.496   3.759   4.999 -0.6470 -1.2571 -1.5723
19792SOL    HW259955   4.627   3.770   5.075 -1.0294  0.6048 -1.1275
19793SOL     OW59956   8.330   9.797   0.356  0.5613  0.5487  0.1903
19793SOL    HW159957   8.278   9.795   0.276  0.1800  0.2523  0.4436
19793SOL    HW259958   8.283   9.741   0.417  1.2063  0.2293  0.4076
19794SOL     OW59959   5.973   0.256   2.713  0.4264 -0.0364 -0.2966
19794SOL    HW159960   6.058   0.237   2.751 -0.3282 -1.2746  0.8893
19794SOL    HW259961   5.968   0.352   2.709  1.9727  0.0446 -0.7036
19795SOL     OW59962   2.282   9.150   3.867 -0.0947  0.2777 -0.0963
19795SOL    HW159963   2.359   9.201   3.892  0.4476 -0.8486  0.6308
19795SOL    HW259964   2.318   9.067   3.835 -0.9740  0.1057 -0.6576
19796SOL     OW59965   8.044   6.406   4.192  0.0537  0.2751 -0.6266
19796SOL    HW159966   7.998   6.403   4.108  0.6832  0.4090 -0.9872
19796SOL    HW259967   8.101   6.329   4.191 -1.8430 -1.2516  0.8416
19797SOL     OW59968   5.004   0.149   8.331  0.3721 -0.4256  0.6753
19797SOL    HW159969   5.069   0.081   8.351 -0.6161 -1.0615  1.9213
19797SOL    HW259970   4.962   0.167   8.415  1.3426  2.5901  0.6560
19798SOL     OW59971   2.531   3.107   7.443 -0.4913 -0.7118 -0.2001
19798SOL    HW159972   2.520   3.116   7.348 -0.6926  1.6779 -0.0168
19798SOL    HW259973   2.626   3.105   7.455 -0.4453 -0.1863 -0.4190
19799SOL     OW59974   3.040   3.648   0.036  0.3558 -0.0535  0.1894
19799SOL    HW159975   3.042   3.734   0.077 -1.7440 -0.2863  0.9196
19799SOL    HW259976   2.947   3.632   0.019  0.7415 -1.9847 -0.3174
19800SOL     OW59977   1.851   3.019   8.245  0.1998 -0.0089 -0.1490
19800SOL    HW159978   1.879   3.091   8.188  0.7646 -0.6703 -0.7323
19800SOL    HW259979   1.792   2.967   8.191  0.5619 -0.5180 -0.0682
19801SOL     OW59980   5.164   7.543   3.904 -0.8823 -0.2070  0.1557
19801SOL    HW159981   5.183   7.554   3.811  0.0523  0.0923  0.3711
19801SOL    HW259982   5.070   7.531   3.908 -0.6565 -3.2520 -1.1239
19802SOL     OW59983   2.678   1.103   9.802  0.6401 -0.2078  0.5440
19802SOL    HW159984   2.748   1.167   9.811  0.1605  0.5941 -1.0186
19802SOL    HW259985   2.612   1.130   9.866 -0.8822  2.7871 -2.0000
19803SOL     OW59986   3.174   5.984   0.684 -0.0571 -0.1291 -0.2757
19803SOL    HW159987   3.113   6.054   0.661  0.7841  0.6293 -0.2716
19803SOL    HW259988   3.125   5.903   0.670 -1.4377  0.4806  0.8220
19804SOL     OW59989   1.357   7.060   2.912  0.1028  0.0357 -0.3059
19804SOL    HW159990   1.450   7.060   2.887  0.0478 -0.7821 -0.5393
19804SOL    HW259991   1.339   6.969   2.936 -0.5145  0.2934  0.2293
19805SOL     OW59992   1.506   4.587   4.650 -0.0319 -0.0659 -0.3682
19805SOL    HW159993   1.540   4.607   4.737 -0.5155  2.8356 -0.7356
19805SOL    HW259994   1.566   4.631   4.589 -0.2310 -1.2484 -1.4690
19806SOL     OW59995   7.032   4.707   0.560  0.2451 -0.4773  0.2982
19806SOL    HW159996   6.954   4.734   0.512  0.4081 -0.4291  0.0572
19806SOL    HW259997   7.005   4.630   0.610 -0.0428 -0.2688  0.4650
19807SOL     OW59998   7.461   9.992   2.352  0.4712  0.0030  0.3704
19807SOL    HW159999   7.370   9.972   2.333  0.6620  0.4280 -1.2171
19807SOL    HW260000   7.511   9.925   2.304  0.9946  0.4503  0.2717
19808SOL     OW60001   1.384   4.652   4.986  0.4319 -0.1200 -0.1988
19808SOL    HW160002   1.316   4.684   4.927  0.0692  0.7377  0.6519
19808SOL    HW260003   1.391   4.559   4.966 -1.4393 -0.3712  0.1023
19809SOL     OW60004   6.656   1.814   0.527  0.1322  0.5851 -0.5387
19809SOL    HW160005   6.734   1.868   0.527 -0.7137  1.8576  0.2359
19809SOL    HW260006   6.601   1.849   0.457  0.0357  0.0072 -0.7656
19810SOL     OW60007   4.611   0.806   0.350  0.0576 -0.1114 -0.1597
19810SOL    HW160008   4.629   0.883   0.296  0.1952 -1.8305 -2.7409
19810SOL    HW260009   4.690   0.793   0.402 -0.1294  1.6723  0.6375
19811SOL     OW60010   4.173   9.759   1.742 -0.4832  0.2156 -0.2436
19811SOL    HW160011   4.262   9.792   1.729 -0.3685  0.0727  0.1533
19811SOL    HW260012   4.184   9.669   1.771 -0.7783  0.0260 -0.7058
19812SOL     OW60013   1.976   2.707   2.508 -0.6308  0.0798  0.1786
19812SOL    HW160014   2.037   2.779   2.496 -0.8628  0.4762  1.2458
19812SOL    HW260015   2.019   2.632   2.467  0.7102  0.2793  1.1524
19813SOL     OW60016   4.983   6.137   1.897 -0.1998 -0.4894 -0.1476
19813SOL    HW160017   5.011   6.225   1.873  1.4955 -0.5803  1.3159
19813SOL    HW260018   4.983   6.136   1.993 -0.7225 -1.9275 -0.1248
19814SOL     OW60019   9.986   5.100   4.423 -0.1470  0.7475  0.1537
19814SOL    HW160020   9.937   5.170   4.466 -3.5275 -0.6645 -1.1036
19814SOL    HW260021   9.945   5.019   4.454  1.4634 -0.5678 -0.9719
19815SOL     OW60022   6.391   4.856   7.423  0.1139  0.2779 -0.7225
19815SOL    HW160023   6.425   4.901   7.501  1.0854  1.9763 -2.0457
19815SOL    HW260024   6.297   4.877   7.423 -0.0650 -0.4175  0.3881
19816SOL     OW60025   0.355   4.987   6.314 -0.1022 -0.5092  0.0390
19816SOL    HW160026   0.442   4.958   6.342  0.1359  0.2630  0.1500
19816SOL    HW260027   0.361   4.992   6.219  0.6695  1.5176  0.1378
19817SOL     OW60028   9.096   5.443   1.889 -0.3684 -0.4188  0.6226
19817SOL    HW160029   9.039   5.367   1.882 -1.1250  0.2070 -0.1947
19817SOL    HW260030   9.176   5.410   1.929 -0.9878 -1.4791  1.0061
19818SOL     OW60031   1.082   3.725   7.304  0.1621 -0.1218 -0.0751
19818SOL    HW160032   0.987   3.722   7.317 -0.1481  1.6370 -1.5180
19818SOL    HW260033   1.115   3.775   7.378  0.0717 -1.1576  0.7015
19819SOL     OW60034   8.281   9.136   3.437  0.1955  0.7521 -0.0164
19819SOL    HW160035   8.271   9.149   3.343 -1.7951  1.3788  0.2153
19819SOL    HW260036   8.310   9.221   3.470  1.3354  0.4047 -0.1040
19820SOL     OW60037   0.988   7.636   3.613  0.1269 -0.2646 -0.0003
19820SOL    HW160038   1.044   7.563   3.637  0.2292 -0.6144 -1.2252
19820SOL    HW260039   1.044   7.713   3.621  0.1557 -0.3742  0.8413
19821SOL     OW60040   8.743   4.271   5.387  0.2924  0.0108 -0.1799
19821SOL    HW160041   8.808   4.313   5.331  0.2320 -0.0734 -0.3151
19821SOL    HW260042   8.678   4.236   5.326  0.9167 -1.2604 -0.1517
19822SOL     OW60043   8.175   1.681   6.254 -0.0023 -0.3521 -0.0781
19822SOL    HW160044   8.184   1.700   6.347  0.6639  1.3539 -0.4521
19822SOL    HW260045   8.091   1.636   6.247 -0.1830 -0.2779  1.3098
19823SOL     OW60046   5.260   3.331   2.536  0.0875 -0.1342 -0.1410
19823SOL    HW160047   5.307   3.411   2.511 -2.3094  1.4695  0.0370
19823SOL    HW260048   5.216   3.303   2.456  1.9903 -2.1866 -0.5598
19824SOL     OW60049   0.525   5.893   6.695 -0.1787 -0.2091  0.4308
19824SOL    HW160050   0.453   5.910   6.756  0.1566 -0.3335  0.8666
19824SOL    HW260051   0.522   5.967   6.634  0.1586  0.5117  1.2589
19825SOL     OW60052   0.463   7.604   9.696  0.3797  0.2101 -0.6880
19825SOL    HW160053   0.512   7.590   9.777  0.6840  0.4277 -0.8317
19825SOL    HW260054   0.530   7.626   9.631  0.0874  0.5393 -0.8819
19826SOL     OW60055   5.043   2.497   3.614 -0.4375 -0.2431 -0.3855
19826SOL    HW160056   5.012   2.418   3.569 -1.0133  0.2111 -0.7969
19826SOL    HW260057   5.080   2.551   3.544 -0.9017  0.2586 -0.2492
19827SOL     OW60058   0.993   6.099   4.868 -0.0149  0.1331 -0.1462
19827SOL    HW160059   0.964   6.110   4.959  0.7690 -0.2812  0.1641
19827SOL    HW260060   1.088   6.108   4.873  0.0879 -0.5482 -0.8279
19828SOL     OW60061   7.169   2.975   5.503 -0.7599  0.4311  0.1584
19828SOL    HW160062   7.085   3.019   5.484 -1.2304 -0.6331 -0.3282
19828SOL    HW260063   7.165   2.955   5.596 -1.7168 -0.9207 -0.1455
19829SOL     OW60064   1.817   5.076   5.601 -0.0354  0.3304  0.1158
19829SOL    HW160065   1.858   5.062   5.686 -0.0777 -0.0661  0.0725
19829SOL    HW260066   1.876   5.137   5.557  0.3528  0.0067  0.1722
19830SOL     OW60067   8.156   2.094   8.585 -0.5133 -0.4735  0.0704
19830SOL    HW160068   8.110   2.104   8.668 -0.3174  0.7145  0.0589
19830SOL    HW260069   8.087   2.082   8.520 -0.8543  1.3334  0.0465
19831SOL     OW60070   8.717   6.369   7.548  0.2933  0.4026  0.4012
19831SOL    HW160071   8.714   6.342   7.640  2.2780 -2.5156 -0.2449
19831SOL    HW260072   8.707   6.288   7.498 -0.0550  1.8033 -1.9875
19832SOL     OW60073   6.845   7.857   5.059 -0.4136  0.2383 -0.3990
19832SOL    HW160074   6.856   7.797   4.986 -1.2646 -1.8187  1.0681
19832SOL    HW260075   6.803   7.805   5.127 -1.0305  2.4676  1.0448
19833SOL     OW60076   7.071   1.696   4.254  0.0463  0.3612 -0.0145
19833SOL    HW160077   7.005   1.698   4.323 -0.4209  0.0667 -0.4403
19833SOL    HW260078   7.093   1.788   4.240  0.4034  0.4002  0.7561
19834SOL     OW60079   7.671   7.417   6.495  0.3035  0.0902 -0.2694
19834SOL    HW160080   7.688   7.431   6.589  1.0292  0.4132 -0.4435
19834SOL    HW260081   7.597   7.356   6.494 -0.0885  0.5285  0.5112
19835SOL     OW60082   9.605   6.152   0.689  0.0102  0.0012 -0.3924
19835SOL    HW160083   9.668   6.177   0.757  0.1298 -0.9494 -0.1299
19835SOL    HW260084   9.530   6.117   0.737 -0.0204 -0.4256 -0.7431
19836SOL     OW60085   0.192   1.093   6.594  0.0110  0.5314  0.3593
19836SOL    HW160086   0.103   1.075   6.562  0.6141 -0.7448 -0.7553
19836SOL    HW260087   0.207   1.185   6.573 -0.6368  0.4514 -0.5553
19837SOL     OW60088   1.196   8.490   2.077  0.0381  0.2253 -0.5436
19837SOL    HW160089   1.276   8.543   2.075  0.0632  0.2612  0.6233
19837SOL    HW260090   1.154   8.507   1.993  1.0120  0.5875 -0.9784
19838SOL     OW60091   9.974   1.198   8.448 -0.0435 -0.2726 -0.7994
19838SOL    HW160092   9.899   1.241   8.407 -0.1261  1.3152  0.8570
19838SOL    HW260093   9.936   1.148   8.520  0.4152  0.0036 -0.3601
19839SOL     OW60094   9.126   1.656   8.953  0.2543 -0.0013  0.2894
19839SOL    HW160095   9.161   1.597   9.020 -1.1562  1.1930  2.1866
19839SOL    HW260096   9.057   1.705   8.998 -1.6387  0.0108 -2.3819
19840SOL     OW60097   4.027   6.810   1.832  0.1971  0.2646 -0.1251
19840SOL    HW160098   4.011   6.770   1.917  0.3790 -1.7748 -0.9930
19840SOL    HW260099   4.121   6.832   1.833 -0.0109  1.1735  0.5410
19841SOL     OW60100   9.318   0.171   5.005  0.0584  0.2936 -0.4409
19841SOL    HW160101   9.394   0.125   4.969  0.7164  0.2493  0.9116
19841SOL    HW260102   9.340   0.264   4.996  0.2650  0.2815 -0.1044
19842SOL     OW60103   5.547   8.698   8.086 -0.1698  0.1174  0.1225
19842SOL    HW160104   5.486   8.662   8.022 -0.2784 -0.0146  0.2970
19842SOL    HW260105   5.607   8.752   8.035  1.0060 -1.5806 -0.4111
19843SOL     OW60106   9.123   8.090   4.791 -0.2371  0.0174 -0.1172
19843SOL    HW160107   9.195   8.052   4.842  0.4374  0.1213 -0.9737
19843SOL    HW260108   9.166   8.148   4.728 -1.0788  0.1368 -0.5984
19844SOL     OW60109   1.334   0.066   3.692 -0.0034  0.2517 -0.1176
19844SOL    HW160110   1.316  -0.011   3.637  2.0192 -0.6308  0.3645
19844SOL    HW260111   1.250   0.085   3.734 -1.2313  0.0070 -2.2896
19845SOL     OW60112   6.994   5.040   8.667 -0.2530  0.0859 -0.3591
19845SOL    HW160113   7.059   5.092   8.713 -0.9805  1.4904 -0.8706
19845SOL    HW260114   7.045   4.975   8.618  0.7136  0.8342 -0.3630
19846SOL     OW60115   5.349   5.571   7.987 -0.1546 -0.0907  0.2254
19846SOL    HW160116   5.346   5.607   7.898 -1.2106 -1.0879 -0.1639
19846SOL    HW260117   5.282   5.620   8.035  1.4937  1.5593  0.9418
19847SOL     OW60118   1.614   2.169   2.980 -1.0017  0.4676  0.3564
19847SOL    HW160119   1.547   2.102   2.971  0.4060 -0.9699  0.2821
19847SOL    HW260120   1.678   2.149   2.911  0.5874  0.4957  1.7654
19848SOL     OW60121   6.726   5.689   2.343 -0.6453 -0.2203  0.3108
19848SOL    HW160122   6.698   5.662   2.256 -0.5211 -1.4414  0.6323
19848SOL    HW260123   6.821   5.688   2.339 -0.5933  1.9902 -0.1955
19849SOL     OW60124   0.920   9.006   0.780 -0.2659  0.6368  0.4919
19849SOL    HW160125   0.960   9.029   0.696  0.3460  1.8768  1.1048
19849SOL    HW260126   0.958   8.921   0.803  1.0922  1.2290  0.4760
19850SOL     OW60127   7.092   1.627   3.311  0.2573 -0.1755 -0.2367
19850SOL    HW160128   7.079   1.704   3.256  1.2595  0.1957  0.0291
19850SOL    HW260129   7.086   1.553   3.250  2.5292  0.2735 -1.1297
19851SOL     OW60130   9.290   3.618   4.257 -0.8502  0.4843  0.1746
19851SOL    HW160131   9.362   3.573   4.213 -0.8429  0.8437 -0.1901
19851SOL    HW260132   9.318   3.626   4.348 -0.5368  0.4037  0.0843
19852SOL     OW60133   4.094   7.268   6.693 -0.1145  0.4502 -0.1822
19852SOL    HW160134   4.013   7.318   6.687  0.2288  1.1116  0.5986
19852SOL    HW260135   4.163   7.334   6.687  0.3609 -0.0316 -0.0634
19853SOL     OW60136   8.685   0.192   7.426  0.1226  0.1933  0.3922
19853SOL    HW160137   8.716   0.124   7.366  0.8821  0.8807 -0.0131
19853SOL    HW260138   8.705   0.157   7.513 -1.5079 -1.0630  0.3131
19854SOL     OW60139   1.373   8.680   1.984 -0.0610  0.2527 -0.4592
19854SOL    HW160140   1.350   8.773   1.990  0.1755  0.2467  0.5581
19854SOL    HW260141   1.467   8.679   1.965  0.1604  0.2118  0.6177
19855SOL     OW60142   1.851   9.084   9.660  0.2678 -0.6777  0.3709
19855SOL    HW160143   1.888   9.104   9.575 -0.6345 -1.0041 -0.1063
19855SOL    HW260144   1.902   9.138   9.721  0.0181  0.5969 -0.5136
19856SOL     OW60145   3.208   8.765   9.151  0.3706 -0.6093 -0.9932
19856SOL    HW160146   3.249   8.730   9.230 -1.1270  0.7701  0.4849
19856SOL    HW260147   3.268   8.834   9.122  0.3066 -0.2292 -0.2586
19857SOL     OW60148   7.602   4.280   6.542 -0.3687 -0.2808  0.1684
19857SOL    HW160149   7.598   4.263   6.636 -1.2633  1.0495  0.3893
19857SOL    HW260150   7.695   4.284   6.523 -0.0571 -3.4536  0.4072
19858SOL     OW60151   6.611   4.706   1.412 -0.0512 -0.3270 -0.4635
19858SOL    HW160152   6.633   4.640   1.478  1.7941 -0.1298 -0.8267
19858SOL    HW260153   6.566   4.774   1.461  0.4558 -0.6126  0.4242
19859SOL     OW60154   5.780   4.624   5.947 -0.5713 -0.5220 -0.5747
19859SOL    HW160155   5.828   4.642   5.866 -0.4813 -1.2422 -0.6870
19859SOL    HW260156   5.791   4.704   6.000  0.2242 -0.4407 -0.8525
19860SOL     OW60157   7.127   5.551   1.992 -0.1558 -0.0070  0.4566
19860SOL    HW160158   7.073   5.510   1.924 -0.1130  1.0528 -0.2368
19860SOL    HW260159   7.093   5.640   2.000  1.8517  0.9260 -0.4658
19861SOL     OW60160   7.955   3.449   2.240  0.4957 -0.2340  0.1362
19861SOL    HW160161   7.865   3.456   2.208 -0.6301 -1.0429  2.8199
19861SOL    HW260162   7.957   3.504   2.319  2.2175 -0.5866  0.3778
19862SOL     OW60163   1.145   7.258   7.678 -0.1595  0.3597  0.1887
19862SOL    HW160164   1.143   7.341   7.726  2.3492 -0.0482  1.1359
19862SOL    HW260165   1.202   7.274   7.603 -0.9834 -0.0896 -0.5547
19863SOL     OW60166   6.405   2.255   2.605 -0.1423  0.8970 -0.7729
19863SOL    HW160167   6.448   2.226   2.525 -1.3776  0.6796 -1.3709
19863SOL    HW260168   6.471   2.243   2.673 -0.2793 -2.6368 -1.0742
19864SOL     OW60169   8.546   7.342   9.301  0.2748  0.5638  0.2882
19864SOL    HW160170   8.524   7.413   9.241 -1.0091 -0.7982 -0.9327
19864SOL    HW260171   8.641   7.350   9.314  0.5582  0.9801 -1.8118
19865SOL     OW60172   1.127   3.274   2.422 -0.5741  0.9794  0.1284
19865SOL    HW160173   1.202   3.334   2.422  1.2967 -1.2147 -0.0860
19865SOL    HW260174   1.166   3.187   2.413 -3.1485 -0.3144  0.5315
19866SOL     OW60175   7.156   3.420   5.745 -0.4282 -0.4566 -0.2246
19866SOL    HW160176   7.190   3.402   5.832  0.2699  0.1512 -0.3591
19866SOL    HW260177   7.206   3.495   5.715 -0.3465 -0.9306 -1.3275
19867SOL     OW60178   9.526   5.769   0.280 -0.0325 -0.0909 -0.5533
19867SOL    HW160179   9.541   5.825   0.356  1.8114 -0.7446 -0.3774
19867SOL    HW260180   9.592   5.798   0.216  0.6657 -1.7175 -0.6165
19868SOL     OW60181   7.434   9.842   3.675  0.5603 -0.1153 -0.1669
19868SOL    HW160182   7.379   9.849   3.753 -1.1528  2.0157 -1.4632
19868SOL    HW260183   7.408   9.759   3.634  0.6706 -0.6897  0.9002
19869SOL     OW60184   5.846   1.326   9.091  0.2042  0.7790 -0.6723
19869SOL    HW160185   5.922   1.350   9.145  0.1979  1.7879 -1.0968
19869SOL    HW260186   5.772   1.361   9.140 -0.0832 -0.7645  0.0731
19870SOL     OW60187   2.373   3.557   0.431  0.2940 -0.7915  0.3732
19870SOL    HW160188   2.403   3.492   0.494  0.9057 -0.3900  0.5052
19870SOL    HW260189   2.338   3.628   0.484  2.2916  0.2731  0.3527
19871SOL     OW60190   1.832   2.621   2.714  0.4574 -0.2262 -0.4725
19871SOL    HW160191   1.840   2.528   2.694  1.1815 -0.1998 -0.3570
19871SOL    HW260192   1.894   2.663   2.655  0.3420  0.1509 -0.3250
19872SOL     OW60193   1.317   8.482   8.359  0.9518  0.0090  0.8182
19872SOL    HW160194   1.267   8.459   8.437  0.6280 -0.0327  0.5975
19872SOL    HW260195   1.399   8.519   8.394  1.3690 -1.2164  1.1834
19873SOL     OW60196   7.139   0.309   7.476  0.1828 -0.4717  0.4990
19873SOL    HW160197   7.193   0.313   7.397  0.5114 -1.5007  0.6552
19873SOL    HW260198   7.167   0.384   7.528  1.2487 -0.8019  0.4278
19874SOL     OW60199   0.474   4.643   9.634 -0.9043 -0.2680 -0.0144
19874SOL    HW160200   0.432   4.664   9.718  0.2699  0.7980  0.3473
19874SOL    HW260201   0.417   4.682   9.568 -0.1855  1.7912  0.5035
19875SOL     OW60202   4.168   3.544   3.810  0.1089 -0.3073  0.2494
19875SOL    HW160203   4.234   3.484   3.775  2.3520  1.8862  0.4101
19875SOL    HW260204   4.170   3.528   3.905  1.2989  0.4863  0.3892
19876SOL     OW60205   6.758  10.014   4.345 -0.5124 -0.0328  0.2097
19876SOL    HW160206   6.719   9.970   4.421  1.5658 -0.7871  0.8974
19876SOL    HW260207   6.760   9.947   4.277  1.9693 -0.8749  1.0253
19877SOL     OW60208   1.768   8.938   0.275  0.3588 -0.0169 -0.0758
19877SOL    HW160209   1.794   8.875   0.208 -0.0459  0.4849 -0.7190
19877SOL    HW260210   1.723   9.007   0.226 -1.8703 -0.6718  0.9251
19878SOL     OW60211   6.104   1.381   6.330 -0.2872  0.1759  0.0585
19878SOL    HW160212   6.071   1.420   6.411  0.5141 -0.0793  0.5227
19878SOL    HW260213   6.033   1.392   6.267 -0.3443  1.7713  0.3625
19879SOL     OW60214   3.648   2.325   5.511 -0.4335 -0.1686 -0.1331
19879SOL    HW160215   3.663   2.393   5.577 -1.0461 -0.6303  0.4954
19879SOL    HW260216   3.731   2.318   5.464 -0.5319  1.4432 -0.6112
19880SOL     OW60217   1.986   4.724   8.807 -0.1819  0.0130  0.0107
19880SOL    HW160218   1.963   4.816   8.823  0.4870  0.2262 -0.2152
19880SOL    HW260219   1.979   4.682   8.893 -1.1027  0.1295  0.0046
19881SOL     OW60220   4.873   6.651   4.566 -0.0331  0.2109 -0.0751
19881SOL    HW160221   4.798   6.598   4.539 -1.5956  1.9655  0.6010
19881SOL    HW260222   4.854   6.675   4.657  1.4371  0.5825  0.1591
19882SOL     OW60223   4.455   6.149   6.791 -0.0469 -0.4712  0.0451
19882SOL    HW160224   4.503   6.110   6.864 -1.3712 -2.7069 -0.1800
19882SOL    HW260225   4.365   6.155   6.822 -0.5406 -1.0165 -1.2305
19883SOL     OW60226   6.734   9.400   3.538 -0.5467  0.4440  0.7382
19883SOL    HW160227   6.676   9.324   3.529 -0.4685  0.4435  0.1896
19883SOL    HW260228   6.818   9.363   3.565 -0.6061  0.3733  0.8277
19884SOL     OW60229   3.481   0.006   7.098 -0.3545 -0.2290 -0.2852
19884SOL    HW160230   3.517   0.094   7.109  0.4953 -0.6579  0.5321
19884SOL    HW260231   3.548  -0.052   7.134 -1.0655 -1.1879 -0.4588
19885SOL     OW60232   2.428   2.170   3.275  0.4135 -0.1854 -0.2183
19885SOL    HW160233   2.340   2.145   3.245  0.6732  0.4231 -1.5628
19885SOL    HW260234   2.487   2.115   3.224  0.8726  0.8819 -0.8774
19886SOL     OW60235   0.757   3.148   1.737 -0.1940  0.5472  0.4025
19886SOL    HW160236   0.768   3.205   1.813 -1.0370  1.5586 -0.2096
19886SOL    HW260237   0.664   3.154   1.716  0.2882  1.5786 -1.6781
19887SOL     OW60238   9.982   8.747   5.809  0.1800 -0.0936 -0.1262
19887SOL    HW160239   9.916   8.770   5.874 -2.3116 -1.8769 -1.8463
19887SOL    HW260240   9.952   8.788   5.728  1.6780 -0.2266 -0.7930
19888SOL     OW60241   2.587   4.422   5.222  0.2456  0.0877  0.3614
19888SOL    HW160242   2.632   4.389   5.300  2.0954  1.3673 -0.0789
19888SOL    HW260243   2.658   4.438   5.160 -1.0135  0.8078 -0.9304
19889SOL     OW60244   2.057   9.597   8.895 -0.1595  0.3233 -0.0773
19889SOL    HW160245   2.119   9.662   8.862 -1.0171  1.6553  0.8392
19889SOL    HW260246   2.085   9.515   8.854  1.6927  1.0215 -0.3360
19890SOL     OW60247   7.220   0.469   2.530 -0.8716  0.3659 -0.3242
19890SOL    HW160248   7.191   0.420   2.454 -1.4526  0.7089 -0.3360
19890SOL    HW260249   7.258   0.549   2.494 -1.4681  0.6911 -0.2537
19891SOL     OW60250   5.010   4.587   9.084  0.2315 -0.1651 -0.8787
19891SOL    HW160251   5.061   4.666   9.068  0.0747  0.0029 -0.5613
19891SOL    HW260252   5.023   4.533   9.006  0.0869  0.3083 -1.2356
19892SOL     OW60253   3.276   1.801   9.899 -0.1332 -0.1454  0.2493
19892SOL    HW160254   3.225   1.728   9.934  0.3361 -0.1883  0.8667
19892SOL    HW260255   3.241   1.878   9.943  2.1443 -0.4550  2.8942
19893SOL     OW60256   3.320   0.644   9.841 -0.5011  0.5794 -0.2219
19893SOL    HW160257   3.302   0.712   9.906 -1.2950  0.6379 -0.4808
19893SOL    HW260258   3.322   0.563   9.891 -0.6802  0.6709 -0.0654
19894SOL     OW60259   8.078   6.630   4.537 -0.4443  0.1310  0.5342
19894SOL    HW160260   8.026   6.675   4.603  0.4781 -0.8848  2.0276
19894SOL    HW260261   8.018   6.565   4.501 -1.3820  1.6214 -0.7002
19895SOL     OW60262   5.955   0.250   9.836 -0.0682  0.0628  0.2085
19895SOL    HW160263   5.867   0.215   9.848  0.2256 -0.3363  1.2694
19895SOL    HW260264   6.013   0.177   9.854  0.5137  0.6934  0.9722
19896SOL     OW60265   8.150   1.451   2.278 -0.5842 -0.6892 -0.1457
19896SOL    HW160266   8.244   1.440   2.292 -0.5495 -2.1623 -1.3563
19896SOL    HW260267   8.135   1.544   2.295  1.0856 -0.4128  0.0337
19897SOL     OW60268   0.341   0.139   0.802  0.1503 -0.2584  0.5600
19897SOL    HW160269   0.248   0.118   0.805 -0.0158  0.5182  1.1005
19897SOL    HW260270   0.385   0.057   0.826 -0.4311 -0.3272  1.4070
19898SOL     OW60271   2.092   6.263   5.989 -0.9494  0.4094 -0.2266
19898SOL    HW160272   2.166   6.313   6.024 -0.8187  0.6630 -0.8503
19898SOL    HW260273   2.080   6.298   5.900 -0.2454 -1.2975 -1.0394
19899SOL     OW60274   0.873   4.595   5.945  0.1639  0.4972  0.1226
19899SOL    HW160275   0.825   4.614   5.864  0.1560 -0.9970 -0.2364
19899SOL    HW260276   0.961   4.630   5.930  0.2203  0.0418 -0.6057
19900SOL     OW60277   5.239   3.450   7.719 -0.0793  0.2628 -0.5507
19900SOL    HW160278   5.233   3.419   7.628 -1.6068 -0.1994 -0.3154
19900SOL    HW260279   5.275   3.375   7.767 -0.1984  0.1715 -0.6051
19901SOL     OW60280   0.172   6.716   5.194  0.4996 -0.1848 -0.3968
19901SOL    HW160281   0.262   6.705   5.222  0.7193 -1.3438 -1.4868
19901SOL    HW260282   0.119   6.695   5.271  1.1350  2.0099  0.7202
19902SOL     OW60283   9.603   0.399   2.110 -0.0914 -0.3635  0.1157
19902SOL    HW160284   9.544   0.421   2.039 -1.2524 -3.2892  0.0191
19902SOL    HW260285   9.588   0.467   2.176 -1.2194  0.7125 -1.1866
19903SOL     OW60286   7.013   2.352   0.021  0.0193  0.6263 -0.0756
19903SOL    HW160287   7.016   2.448   0.020 -0.3459  0.6703 -2.3845
19903SOL    HW260288   6.937   2.332   0.076 -0.9781  1.7400 -0.9833
19904SOL     OW60289   9.694   2.293   7.015  0.0503  0.8819  0.1828
19904SOL    HW160290   9.659   2.335   6.936 -0.5596  0.6919  0.3454
19904SOL    HW260291   9.784   2.325   7.021  0.8235 -0.7422 -1.7546
19905SOL     OW60292   7.026   1.610   3.672  0.0423 -0.3416  0.1183
19905SOL    HW160293   7.035   1.534   3.615 -1.8239 -0.4235 -0.1319
19905SOL    HW260294   7.113   1.623   3.709  0.3678 -2.7196  0.3163
19906SOL     OW60295   8.378   1.660   6.683 -0.4930  0.3816  0.1192
19906SOL    HW160296   8.450   1.630   6.628  0.8692  0.5341  1.7442
19906SOL    HW260297   8.383   1.605   6.762 -0.2468  2.3527  1.5555
19907SOL     OW60298   4.609   8.013   4.393  0.5936  0.2731 -0.7641
19907SOL    HW160299   4.688   7.959   4.386  1.0806  0.5793  1.4483
19907SOL    HW260300   4.575   8.018   4.304  0.6777 -3.3922 -1.1384
19908SOL     OW60301   6.344   2.147   0.009  0.5305  0.0186  0.1902
19908SOL    HW160302   6.400   2.111   0.077  1.6687 -1.8891 -1.6459
19908SOL    HW260303   6.404   2.188  -0.053  0.0820 -2.4769 -2.0620
19909SOL     OW60304   5.247   9.403   0.631 -0.3958 -0.3465 -0.2778
19909SOL    HW160305   5.230   9.348   0.555 -2.1513 -1.1046  0.6195
19909SOL    HW260306   5.333   9.376   0.662 -0.8509 -1.9913 -0.3800
19910SOL     OW60307   3.338   2.700   7.836 -0.2453  0.1258  0.1810
19910SOL    HW160308   3.357   2.792   7.818  0.4866 -0.1026 -0.2672
19910SOL    HW260309   3.346   2.692   7.931  2.5871 -0.0601  0.0108
19911SOL     OW60310   5.146   3.398   5.886 -0.0909 -0.2816 -0.2329
19911SOL    HW160311   5.133   3.303   5.886 -1.3672 -0.1435  1.1407
19911SOL    HW260312   5.108   3.427   5.969 -1.0042  1.5959 -1.2622
19912SOL     OW60313   7.372   8.526   5.028  0.4000 -0.5823  0.7288
19912SOL    HW160314   7.328   8.516   5.112 -0.7255  2.1468  0.5759
19912SOL    HW260315   7.326   8.466   4.969 -1.1500  0.0096  1.2845
19913SOL     OW60316   7.127   3.570   4.424  0.0654 -0.5223 -0.1753
19913SOL    HW160317   7.074   3.646   4.402  1.6901  0.7170 -0.0484
19913SOL    HW260318   7.176   3.597   4.502  1.3792 -1.3186 -0.6931
19914SOL     OW60319   2.735   4.219   9.559  0.6896 -0.0258 -0.4905
19914SOL    HW160320   2.654   4.250   9.518 -0.8240 -1.7149  1.0700
19914SOL    HW260321   2.749   4.280   9.632  0.0083 -0.5541  0.0933
19915SOL     OW60322   2.896   4.639   7.502  0.3443 -0.5239 -0.1894
19915SOL    HW160323   2.886   4.697   7.577  0.1629 -1.7905  0.8129
19915SOL    HW260324   2.815   4.650   7.452  1.4501  2.1074 -1.5647
19916SOL     OW60325   6.658   7.539   1.293 -0.9597 -0.8354 -0.2557
19916SOL    HW160326   6.693   7.629   1.290 -1.6713 -0.5650 -1.2845
19916SOL    HW260327   6.592   7.541   1.362 -0.9831 -0.5499 -0.2842
19917SOL     OW60328   0.504   9.408   9.612  0.0647 -0.3886  0.4184
19917SOL    HW160329   0.566   9.336   9.626 -0.0616 -0.4201  0.8446
19917SOL    HW260330   0.427   9.383   9.662 -0.6197 -0.7409 -0.7813
19918SOL     OW60331   9.914   9.184   4.924  0.3877 -0.0156  0.1345
19918SOL    HW160332   9.876   9.271   4.938 -0.2835 -0.0650 -1.2585
19918SOL    HW260333  10.002   9.201   4.890  0.5944  0.1084  0.7225
19919SOL     OW60334   1.669   6.667   4.363  0.1514 -0.0317  0.1871
19919SOL    HW160335   1.655   6.712   4.280 -1.5693 -0.2749  0.3174
19919SOL    HW260336   1.750   6.706   4.398  1.1660 -0.2419 -1.7723
19920SOL     OW60337   1.083   4.220   0.753 -0.5983  0.0939 -0.3571
19920SOL    HW160338   1.007   4.185   0.800 -0.0072  1.0505  1.4166
19920SOL    HW260339   1.152   4.154   0.765 -0.9663 -0.5534 -1.5691
19921SOL     OW60340   9.576   9.198   8.053 -0.1209  0.2443 -0.3868
19921SOL    HW160341   9.499   9.190   7.996 -0.5055 -1.3918  0.3027
19921SOL    HW260342   9.542   9.228   8.137  0.1571  0.6615 -0.4221
19922SOL     OW60343   0.614   2.777   6.524  0.6088  0.1535 -0.9770
19922SOL    HW160344   0.612   2.866   6.489  0.7648 -0.2705 -2.0783
19922SOL    HW260345   0.593   2.721   6.450  2.5471 -0.8741 -0.7977
19923SOL     OW60346   8.401   9.750   8.497 -0.2438  0.6591 -0.5820
19923SOL    HW160347   8.408   9.751   8.401 -0.1021  1.8539 -0.5843
19923SOL    HW260348   8.440   9.834   8.523 -0.7769  0.5805  0.4827
19924SOL     OW60349   5.052   1.555   6.696 -0.2551  0.2263 -0.2857
19924SOL    HW160350   4.975   1.610   6.709 -2.3986 -2.3182 -1.2388
19924SOL    HW260351   5.072   1.563   6.603  0.5136  0.6826 -0.0896
19925SOL     OW60352   1.510   8.346   2.488  0.1155 -0.9386 -0.1347
19925SOL    HW160353   1.598   8.383   2.480 -0.2920  0.2247  0.4116
19925SOL    HW260354   1.454   8.408   2.440 -0.3798 -1.7751 -0.6557
19926SOL     OW60355   0.529   2.954   5.334 -1.2162  0.0518 -0.1434
19926SOL    HW160356   0.471   2.964   5.259 -0.4679  1.6047 -0.5665
19926SOL    HW260357   0.617   2.966   5.298 -0.6771 -1.2973  0.6455
19927SOL     OW60358   4.236   8.306   7.099  0.0311 -0.0320 -0.1600
19927SOL    HW160359   4.273   8.321   7.186  0.7444 -2.5999  0.0927
19927SOL    HW260360   4.216   8.393   7.065  1.2485  1.1381  1.9154
19928SOL     OW60361   3.519  -0.029   4.556  0.2324  0.2730  0.0280
19928SOL    HW160362   3.531   0.060   4.525 -1.8258  0.7171  0.3378
19928SOL    HW260363   3.545  -0.026   4.648 -1.0011  0.8965  0.3783
19929SOL     OW60364   9.033   6.982   7.767 -0.5318 -0.1605  0.2026
19929SOL    HW160365   9.022   7.041   7.842 -1.9713 -0.5223  0.3124
19929SOL    HW260366   9.094   6.915   7.799 -1.8767 -0.8731  1.4700
19930SOL     OW60367   7.696   2.046   8.143  0.2878 -0.1317  0.3737
19930SOL    HW160368   7.729   2.114   8.202 -2.4353  2.0660 -0.3867
19930SOL    HW260369   7.735   1.965   8.175  3.5639  1.6924  1.4718
19931SOL     OW60370   8.568   3.407   5.266  0.5541 -0.1089  0.0570
19931SOL    HW160371   8.553   3.467   5.339  1.0626  1.2417 -0.9181
19931SOL    HW260372   8.494   3.346   5.271 -0.6042  1.2492  0.4403
19932SOL     OW60373   7.628   9.773   2.237  0.3016  0.1838 -0.5052
19932SOL    HW160374   7.642   9.714   2.311  2.3922 -0.6631 -1.4732
19932SOL    HW260375   7.628   9.716   2.160 -2.0024  1.0166 -1.2001
19933SOL     OW60376   7.832   1.497   7.266  0.4071 -0.0197 -0.0385
19933SOL    HW160377   7.750   1.461   7.299  1.4481 -2.7842 -0.2509
19933SOL    HW260378   7.853   1.568   7.328 -0.9757 -0.7532  1.3510
19934SOL     OW60379   2.499   8.869   6.168  0.2264  0.0377 -0.2800
19934SOL    HW160380   2.409   8.894   6.146 -0.4912 -1.0631  1.2319
19934SOL    HW260381   2.547   8.952   6.166 -1.2550  0.9906  0.8243
19935SOL     OW60382   7.373   5.205   2.677  0.4052  0.1650  0.5413
19935SOL    HW160383   7.409   5.289   2.706 -0.9395  0.9876 -0.0460
19935SOL    HW260384   7.366   5.213   2.582 -0.1690 -0.4268  0.5215
19936SOL     OW60385   5.877   8.241   0.416 -0.2974 -0.1723 -0.1274
19936SOL    HW160386   5.876   8.198   0.501  0.6180 -1.5222 -0.7737
19936SOL    HW260387   5.840   8.177   0.355  0.2169  0.2940 -0.9525
19937SOL     OW60388   8.138   4.267   4.596  0.3168 -0.2687  0.6043
19937SOL    HW160389   8.090   4.351   4.596 -0.4642 -0.6717 -0.7432
19937SOL    HW260390   8.196   4.273   4.671  0.2539  1.4755  0.5765
19938SOL     OW60391   6.469   7.738   8.980  0.5491  0.1937  0.0324
19938SOL    HW160392   6.418   7.669   9.023 -0.5466  1.0893  0.2051
19938SOL    HW260393   6.554   7.736   9.025  0.4740 -0.9038  0.1593
19939SOL     OW60394   3.879   1.662   2.008  0.2369 -0.5018  0.3877
19939SOL    HW160395   3.907   1.753   2.012 -0.6972  0.0023 -2.2330
19939SOL    HW260396   3.820   1.652   2.083  0.2292  1.0937  0.6368
19940SOL     OW60397   1.743   1.653   3.556  0.1332  0.1587 -0.9763
19940SOL    HW160398   1.811   1.693   3.502 -0.1141 -0.2859 -1.6213
19940SOL    HW260399   1.723   1.571   3.512 -0.3411 -0.0294 -0.4121
19941SOL     OW60400   9.135   0.035   4.825 -0.0235  0.4465  0.0315
19941SOL    HW160401   9.198   0.103   4.850 -0.0320  0.5038 -0.1058
19941SOL    HW260402   9.187  -0.031   4.780 -0.0706  0.5206 -0.1318
19942SOL     OW60403   1.520   4.761   1.784 -0.9705 -0.2457  0.0058
19942SOL    HW160404   1.500   4.690   1.722  1.3435 -0.2774 -0.8232
19942SOL    HW260405   1.616   4.764   1.786 -1.0040  1.5852  1.5372
19943SOL     OW60406   7.313   3.191   2.250  0.3400  0.0515 -0.6063
19943SOL    HW160407   7.257   3.129   2.296 -1.2830  1.7652 -0.1211
19943SOL    HW260408   7.271   3.276   2.264  0.9337  0.9358 -3.5704
19944SOL     OW60409   8.606   5.411   7.285  0.1769 -0.2699  0.8550
19944SOL    HW160410   8.561   5.493   7.267 -2.5525 -1.9279 -0.5620
19944SOL    HW260411   8.698   5.434   7.288 -0.4338  2.7045 -0.2587
19945SOL     OW60412   5.706   4.209   9.863  0.0301 -0.3754 -0.1513
19945SOL    HW160413   5.783   4.257   9.895  1.0322 -1.4628 -0.8207
19945SOL    HW260414   5.733   4.117   9.868 -1.6842 -0.8713  0.7179
19946SOL     OW60415   5.759   3.586   1.427  0.2663  0.0493 -0.3031
19946SOL    HW160416   5.698   3.548   1.363 -0.8706 -0.6963  1.1469
19946SOL    HW260417   5.730   3.677   1.437 -1.2396 -0.5134  0.9916
19947SOL     OW60418   5.445   7.797   4.524  0.3630 -0.5807  0.0407
19947SOL    HW160419   5.361   7.825   4.559  0.0259  3.2039 -3.1257
19947SOL    HW260420   5.424   7.753   4.441  1.3962  0.7541 -0.9865
19948SOL     OW60421   9.480   3.267   7.669 -0.2076  0.0627  0.1563
19948SOL    HW160422   9.395   3.311   7.679  0.3223  1.5220 -1.3265
19948SOL    HW260423   9.465   3.201   7.602 -0.3004 -0.0361  0.2743
19949SOL     OW60424   4.309   4.026   4.144  0.5057 -0.0481  0.2270
19949SOL    HW160425   4.396   3.988   4.130  0.4636  0.5903 -2.0738
19949SOL    HW260426   4.311   4.057   4.235  2.5719 -0.3115  0.3168
19950SOL     OW60427   2.635   8.829   1.484  0.0588 -0.2446 -0.3650
19950SOL    HW160428   2.700   8.884   1.526 -0.0675 -0.1234 -0.3279
19950SOL    HW260429   2.616   8.872   1.401 -0.9925  0.4716  0.2261
19951SOL     OW60430   4.085   0.662   8.356 -0.3456  0.3060 -0.0129
19951SOL    HW160431   4.030   0.739   8.345  1.0224  1.6460  1.9502
19951SOL    HW260432   4.092   0.651   8.451  1.5132 -0.7247 -0.2313
19952SOL     OW60433   3.479   9.767   6.896 -0.3579  0.4058  0.1580
19952SOL    HW160434   3.524   9.797   6.817  2.1449 -0.6680  1.0752
19952SOL    HW260435   3.488   9.839   6.958  0.3652  0.1160  0.4076
19953SOL     OW60436   0.630   6.933   6.147 -0.1389  0.2229 -0.2988
19953SOL    HW160437   0.573   7.002   6.181  1.2254  1.1011  0.2786
19953SOL    HW260438   0.676   6.899   6.223  0.8076  0.1941 -0.8658
19954SOL     OW60439   8.510   8.401   7.117 -0.1499  0.1008  0.5641
19954SOL    HW160440   8.521   8.359   7.202  1.2567  0.4281  0.5722
19954SOL    HW260441   8.549   8.488   7.128  0.3520  0.0245 -0.4946
19955SOL     OW60442   5.101   0.564   0.962  0.1949  0.2694  0.1972
19955SOL    HW160443   5.043   0.612   0.904  0.0806 -1.1005 -0.8644
19955SOL    HW260444   5.189   0.596   0.940  0.1713 -0.3582 -0.8829
19956SOL     OW60445   5.620   2.152   0.559 -0.1506 -0.3859  0.2525
19956SOL    HW160446   5.544   2.184   0.510  0.7391 -0.1899 -1.0486
19956SOL    HW260447   5.683   2.224   0.555  1.5949 -1.9183 -2.0719
19957SOL     OW60448   4.018   4.902   3.390 -0.1640  0.2631  0.2738
19957SOL    HW160449   3.924   4.892   3.405 -0.4253 -2.5531 -2.3608
19957SOL    HW260450   4.059   4.845   3.455 -0.5728 -1.6123 -1.0335
19958SOL     OW60451   0.486   3.770   5.433  0.1886 -0.0857 -0.0504
19958SOL    HW160452   0.510   3.734   5.518  1.2571  1.2112  0.2217
19958SOL    HW260453   0.512   3.701   5.370 -1.3855 -1.4061  0.6848
19959SOL     OW60454   3.418   7.152   5.587  0.3816  0.2646  0.0988
19959SOL    HW160455   3.421   7.104   5.670  2.1028 -0.2754 -0.2467
19959SOL    HW260456   3.356   7.103   5.533 -1.4763  1.1387  1.3333
19960SOL     OW60457   5.340   5.338   1.952  0.0067  0.6177  0.0264
19960SOL    HW160458   5.405   5.274   1.982 -0.9839 -0.3264  0.2058
19960SOL    HW260459   5.299   5.369   2.032 -0.3700  0.5467 -0.1389
19961SOL     OW60460   8.245   2.419   6.263  0.9722 -0.3050  0.3097
19961SOL    HW160461   8.285   2.462   6.187 -1.1610  2.7567  0.7217
19961SOL    HW260462   8.276   2.470   6.338  1.3302 -1.9253  1.3073
19962SOL     OW60463   6.991   0.623   2.093 -0.3174 -0.4184 -0.1298
19962SOL    HW160464   6.915   0.618   2.035 -0.5852  1.1324  0.0404
19962SOL    HW260465   6.955   0.626   2.181 -0.1336  1.0411 -0.0785
19963SOL     OW60466   8.607   6.792   4.099  0.2007 -0.0322  0.1992
19963SOL    HW160467   8.668   6.755   4.162  0.7258 -0.3589 -0.4888
19963SOL    HW260468   8.522   6.792   4.145  0.5211 -0.4921  0.8085
19964SOL     OW60469   7.888   9.761   8.750  0.4746  0.7654 -0.4105
19964SOL    HW160470   7.843   9.771   8.666  0.5293 -0.0523 -0.5455
19964SOL    HW260471   7.951   9.690   8.735 -1.4218 -1.4052  1.0879
19965SOL     OW60472   1.858   7.681   2.615  0.4265 -0.3529  0.2919
19965SOL    HW160473   1.862   7.709   2.706 -3.1861 -0.9308  0.7701
19965SOL    HW260474   1.801   7.746   2.573 -0.9491 -2.0490 -0.6113
19966SOL     OW60475   3.214   8.236   5.287 -0.8790  0.2808 -0.0071
19966SOL    HW160476   3.239   8.324   5.258  1.1450 -0.3609 -0.3866
19966SOL    HW260477   3.298   8.193   5.307 -1.8157 -1.6100  0.0469
19967SOL     OW60478   6.512   0.641   4.744 -0.0986 -0.1424  0.0196
19967SOL    HW160479   6.541   0.719   4.790  0.1540 -0.0693 -0.2587
19967SOL    HW260480   6.589   0.612   4.695 -0.0605 -0.8188  0.4690
19968SOL     OW60481   1.634   2.670   5.332  0.0006  0.1941 -0.1572
19968SOL    HW160482   1.577   2.746   5.320 -0.1446 -0.0943 -1.4291
19968SOL    HW260483   1.663   2.676   5.423  0.0509  1.8086 -0.2480
19969SOL     OW60484   2.563   0.091   8.636 -0.3895 -0.0391  0.1019
19969SOL    HW160485   2.554   0.186   8.643  1.2899  0.1211  0.5144
19969SOL    HW260486   2.525   0.058   8.718  2.0114  0.5613  1.5680
19970SOL     OW60487   8.634   4.974   2.866  0.4517  0.0209  0.3449
19970SOL    HW160488   8.639   4.883   2.896 -1.6020  0.2420  1.5377
19970SOL    HW260489   8.636   5.025   2.947 -0.1925  0.9375 -0.2134
19971SOL     OW60490   0.759   8.253   9.760  0.3050  0.1416 -0.5206
19971SOL    HW160491   0.774   8.188   9.829  2.2132 -0.0141 -1.0163
19971SOL    HW260492   0.805   8.331   9.791  0.9190  0.1667 -1.4413
19972SOL     OW60493   0.929   4.577   2.152  0.1279  0.3566  0.2253
19972SOL    HW160494   0.940   4.518   2.227  0.3112  2.0687  1.6126
19972SOL    HW260495   0.834   4.580   2.138 -0.3058  2.6887  2.7556
19973SOL     OW60496   0.753   8.779   6.110  0.1680  0.0121  0.2943
19973SOL    HW160497   0.767   8.734   6.194 -1.1272  0.5951  0.8500
19973SOL    HW260498   0.739   8.708   6.047 -1.6793 -0.4106  1.1255
19974SOL     OW60499   0.602   7.653   7.520 -0.7963  0.0904 -0.4206
19974SOL    HW160500   0.529   7.637   7.460  0.2414 -0.4867 -1.5843
19974SOL    HW260501   0.680   7.641   7.465  0.2640 -2.2086  1.4385
19975SOL     OW60502   1.752   9.423   4.985  0.1569  0.1183  0.0555
19975SOL    HW160503   1.731   9.490   5.051 -1.2793  1.1884 -1.4132
19975SOL    HW260504   1.702   9.346   5.014 -1.0601  0.8045 -0.1233
19976SOL     OW60505   4.276   1.382   4.398  0.2061 -0.5420 -0.5219
19976SOL    HW160506   4.354   1.428   4.365  0.4790 -1.0240 -0.5701
19976SOL    HW260507   4.312   1.305   4.443 -0.1661  0.0889  0.8861
19977SOL     OW60508   9.610   4.879   1.115  0.1903 -0.0613 -0.2589
19977SOL    HW160509   9.530   4.827   1.128 -0.4148  0.4509 -1.7999
19977SOL    HW260510   9.671   4.819   1.072 -0.3601  0.3560 -1.6490
19978SOL     OW60511   7.443   0.591   6.283  0.5530  0.4328  0.2219
19978SOL    HW160512   7.410   0.644   6.356 -3.3662  0.6425 -1.4755
19978SOL    HW260513   7.482   0.654   6.223 -2.0897  1.2883 -0.7447
19979SOL     OW60514   8.398   9.123   0.302 -0.0381 -0.3367  0.0503
19979SOL    HW160515   8.344   9.077   0.366 -1.0002  1.0750  0.2806
19979SOL    HW260516   8.448   9.186   0.354 -0.1320  0.1753 -0.4692
19980SOL     OW60517   8.704   6.779   8.186 -0.1378  0.1734 -0.3887
19980SOL    HW160518   8.751   6.862   8.174 -0.4005  0.4266  0.2469
19980SOL    HW260519   8.758   6.731   8.249  0.2081 -0.3031 -1.0356
19981SOL     OW60520   0.414   3.289   5.016  0.2633  0.2517 -0.2299
19981SOL    HW160521   0.375   3.228   4.952  0.1202  1.0025 -0.8643
19981SOL    HW260522   0.406   3.242   5.099 -0.4581 -0.3287 -0.6021
19982SOL     OW60523   3.591   9.591   2.638 -0.2341  0.2329  0.2347
19982SOL    HW160524   3.570   9.654   2.570  1.1870  1.2329  0.6879
19982SOL    HW260525   3.555   9.630   2.718 -1.7214 -0.8402  0.1316
19983SOL     OW60526   0.238   6.818   0.437  0.3929  0.3011  0.2404
19983SOL    HW160527   0.145   6.836   0.447 -0.6328 -2.8470 -1.9951
19983SOL    HW260528   0.251   6.734   0.482  1.1183 -1.3711 -2.7846
19984SOL     OW60529   2.317   0.392   5.584  0.3674  0.5481 -0.0907
19984SOL    HW160530   2.328   0.298   5.567 -0.6538  0.2875  0.5799
19984SOL    HW260531   2.286   0.428   5.501 -1.1271 -0.0718  0.1622
19985SOL     OW60532   6.921   0.123   4.912 -0.1346 -0.0043 -0.2780
19985SOL    HW160533   6.893   0.100   5.000 -2.3417  0.7546 -0.7300
19985SOL    HW260534   6.892   0.214   4.900  2.4002  0.8192 -0.9048
19986SOL     OW60535   9.381   1.389   6.397  0.2527  0.3022  0.7588
19986SOL    HW160536   9.438   1.448   6.445  0.4783  0.2083  0.6087
19986SOL    HW260537   9.437   1.316   6.370 -0.3487 -0.7740  2.2848
19987SOL     OW60538   5.546   3.559   5.901 -0.3099  0.0631 -0.0770
19987SOL    HW160539   5.496   3.591   5.976 -0.7669  1.1387 -0.8075
19987SOL    HW260540   5.607   3.630   5.881 -1.2264  0.4709 -1.6356
19988SOL     OW60541   9.369   5.691   7.361 -0.3763 -0.3766 -0.5061
19988SOL    HW160542   9.328   5.605   7.372 -1.7301  0.0683 -1.8084
19988SOL    HW260543   9.304   5.753   7.395  0.7113  0.1474  0.6994
19989SOL     OW60544   5.983   2.941   4.671  0.8851  0.1391 -0.8601
19989SOL    HW160545   5.964   2.910   4.759 -1.4062 -1.8601 -1.9383
19989SOL    HW260546   6.077   2.922   4.659  0.9933 -0.5315  0.7736
19990SOL     OW60547   3.039   5.449   2.691 -0.2436  1.0321 -0.8794
19990SOL    HW160548   3.057   5.399   2.612 -1.9245 -0.9244 -0.1312
19990SOL    HW260549   2.986   5.390   2.745 -0.5822  2.9081  0.9829
19991SOL     OW60550   6.700   5.395   4.497  0.2728  0.7279 -0.0466
19991SOL    HW160551   6.776   5.437   4.456  0.0198  1.7208  0.4616
19991SOL    HW260552   6.640   5.376   4.424  0.6950  0.6040 -0.3617
19992SOL     OW60553   7.615   5.218   6.185 -0.0073  0.4888  0.1136
19992SOL    HW160554   7.599   5.308   6.159  1.9615  1.0469  0.6537
19992SOL    HW260555   7.622   5.221   6.281  0.5446 -0.1441  0.1050
19993SOL     OW60556   7.301   7.735   5.452 -0.0582  0.1510  0.6852
19993SOL    HW160557   7.321   7.701   5.539  0.8813 -0.1025  0.3791
19993SOL    HW260558   7.338   7.823   5.452 -1.4097  0.7484  1.0521
19994SOL     OW60559   4.198   1.901   3.739 -0.1380 -0.2035 -0.0548
19994SOL    HW160560   4.179   1.959   3.666  1.5405  1.4026  0.7178
19994SOL    HW260561   4.283   1.861   3.717 -0.7002 -1.4661 -0.0150
19995SOL     OW60562   3.108   3.084   4.559 -0.5107  0.2574 -0.2804
19995SOL    HW160563   3.101   2.990   4.539  0.5338 -0.7328  3.2518
19995SOL    HW260564   3.047   3.098   4.632  0.9482  1.7753  0.7185
19996SOL     OW60565   5.352   0.740   8.168  0.1007 -0.0926 -0.4981
19996SOL    HW160566   5.309   0.759   8.251  1.7050 -1.1404  0.6258
19996SOL    HW260567   5.373   0.647   8.173  0.0026 -0.2384 -2.2071
19997SOL     OW60568   0.501   1.802   3.869 -0.4355 -0.0695 -0.3197
19997SOL    HW160569   0.479   1.893   3.853  0.7807  0.2479 -0.3127
19997SOL    HW260570   0.503   1.794   3.965  1.3466  0.4281 -0.2708
19998SOL     OW60571   8.161   0.920   2.968  0.2583  0.1690  0.5322
19998SOL    HW160572   8.104   0.987   2.931  1.9106  1.1499 -0.3766
19998SOL    HW260573   8.154   0.846   2.908 -0.9839 -0.2034  1.1150
19999SOL     OW60574   7.632   7.360   1.612  0.2566 -0.0834  0.0106
19999SOL    HW160575   7.599   7.381   1.525  0.5848 -0.1839 -0.1412
19999SOL    HW260576   7.681   7.437   1.639  0.6289 -0.2642 -0.1330
20000SOL     OW60577   5.259   3.851   7.801  0.0857 -0.1310  0.0261
20000SOL    HW160578   5.268   3.852   7.896 -0.6987 -0.6498  0.1180
20000SOL    HW260579   5.309   3.775   7.772  0.0774 -0.1469  0.0539
20001SOL     OW60580   3.570   4.808   5.921  1.2373  0.1209  0.0662
20001SOL    HW160581   3.475   4.808   5.912  1.2452 -0.6621 -0.1168
20001SOL    HW260582   3.596   4.898   5.901  0.4083  0.7594  1.6498
20002SOL     OW60583   7.863   6.064   0.269 -0.3175 -0.0673 -0.6201
20002SOL    HW160584   7.927   6.003   0.233 -0.6718 -0.4785 -0.5589
20002SOL    HW260585   7.906   6.103   0.345 -0.5544 -1.2081  0.1255
20003SOL     OW60586   9.005   1.387   4.788 -0.0907  0.1366  0.0869
20003SOL    HW160587   8.920   1.415   4.754  0.0402 -0.0746 -0.4089
20003SOL    HW260588   9.069   1.422   4.727  0.1830  0.2713  0.4444
20004SOL     OW60589   1.261   7.398   0.466  0.1210 -0.2604 -0.3838
20004SOL    HW160590   1.190   7.335   0.480  0.2501 -0.2734  0.2923
20004SOL    HW260591   1.323   7.352   0.410 -0.0272 -0.5514 -0.3106
20005SOL     OW60592   7.383   6.084   0.015 -0.4066  0.4834 -0.1094
20005SOL    HW160593   7.388   6.141   0.092 -1.3133  1.2801 -0.6252
20005SOL    HW260594   7.422   6.002   0.045  0.5561  1.2236  0.7694
20006SOL     OW60595   3.107   8.227   3.892 -0.0089  0.0282  0.0693
20006SOL    HW160596   3.084   8.292   3.958  0.5840  0.1566  0.1585
20006SOL    HW260597   3.102   8.274   3.809 -0.8037 -0.1465  0.0101
20007SOL     OW60598   2.177   1.939   8.967  0.1837  0.0125  0.1459
20007SOL    HW160599   2.257   1.987   8.988 -0.1226 -0.1189  1.7256
20007SOL    HW260600   2.206   1.850   8.949  0.3356 -0.2043  1.4077
20008SOL     OW60601   0.764   4.435   6.886 -0.2298  0.4178 -0.1380
20008SOL    HW160602   0.702   4.459   6.818 -0.1586  0.4810 -0.1802
20008SOL    HW260603   0.809   4.357   6.852 -0.0108  0.6046 -0.2742
20009SOL     OW60604   7.632   8.737   3.323  0.6652 -0.3619 -0.3458
20009SOL    HW160605   7.618   8.747   3.417  1.1983  0.9025 -0.3806
20009SOL    HW260606   7.572   8.668   3.297 -1.2055  0.8778  0.5124
20010SOL     OW60607   2.043   1.719   6.110 -0.2791  0.4633 -0.2616
20010SOL    HW160608   2.124   1.745   6.066 -0.1613 -0.4902 -0.6337
20010SOL    HW260609   1.990   1.799   6.112 -0.1829  0.6074 -1.9192
20011SOL     OW60610   2.720   2.183   8.947  0.2800  0.7690  0.4985
20011SOL    HW160611   2.637   2.229   8.936 -0.4889 -0.1704  2.0810
20011SOL    HW260612   2.733   2.179   9.042  1.5854 -0.0582  0.3086
20012SOL     OW60613   3.030   5.497   8.507 -0.9041  0.4834  0.1286
20012SOL    HW160614   3.115   5.453   8.509 -0.7911  0.6834  1.9457
20012SOL    HW260615   3.051   5.591   8.508 -1.1430  0.5378  0.2552
20013SOL     OW60616   3.962   3.048   7.936 -0.0098 -0.1481  0.7463
20013SOL    HW160617   3.971   3.129   7.886 -1.5192  1.1167  2.4101
20013SOL    HW260618   3.943   2.981   7.870  0.6021  0.9453 -0.5933
20014SOL     OW60619   4.137   6.367   0.122 -0.2810 -0.0483 -0.0183
20014SOL    HW160620   4.163   6.445   0.172  1.0163  0.0070 -0.7511
20014SOL    HW260621   4.088   6.314   0.185 -1.9725  1.7183  0.2937
20015SOL     OW60622   2.769   8.877   8.968  0.4309  0.8299 -0.3587
20015SOL    HW160623   2.805   8.873   8.879  0.9499  1.0324 -0.1667
20015SOL    HW260624   2.845   8.863   9.025 -0.0830 -0.4593  0.0479
20016SOL     OW60625   7.018   7.083   1.012 -0.1033  0.1640  0.3352
20016SOL    HW160626   6.958   7.111   1.081  0.2725 -0.0150  0.7383
20016SOL    HW260627   7.055   7.001   1.044  0.0098  0.0287 -0.1221
20017SOL     OW60628   4.295   3.758   0.426  0.2032 -0.3458  0.0035
20017SOL    HW160629   4.366   3.776   0.365  0.8795  1.6381  1.2956
20017SOL    HW260630   4.263   3.844   0.452 -1.9073 -1.1807  0.3650
20018SOL     OW60631   0.285   0.160   3.360 -0.2081  0.2975  0.2149
20018SOL    HW160632   0.213   0.216   3.333  0.7604  2.0144  1.0367
20018SOL    HW260633   0.247   0.101   3.425 -0.9916  0.7723  0.1946
20019SOL     OW60634   3.586   5.709   6.004 -1.0053 -0.6526  0.7464
20019SOL    HW160635   3.629   5.770   5.945 -0.4041 -0.8289  0.9990
20019SOL    HW260636   3.503   5.752   6.026 -0.6369  0.0223  0.8428
20020SOL     OW60637   4.713   8.209   3.261 -0.2923 -0.1018 -0.0636
20020SOL    HW160638   4.799   8.242   3.288 -0.4372 -1.4407  2.2581
20020SOL    HW260639   4.719   8.201   3.166  1.2934  2.1309 -0.2267
20021SOL     OW60640   5.538   7.947   0.777 -0.0008 -0.2083  0.4946
20021SOL    HW160641   5.448   7.935   0.746 -0.3841 -0.8894  1.8024
20021SOL    HW260642   5.533   8.022   0.836  0.5426  0.5160 -0.3583
20022SOL     OW60643   7.890   4.899   1.359  0.0383  0.3325  0.5551
20022SOL    HW160644   7.926   4.951   1.430  2.1305 -1.8804  1.2408
20022SOL    HW260645   7.892   4.809   1.391 -2.6345 -0.3594 -0.8889
20023SOL     OW60646   7.622   2.993   3.947  0.8737  0.1625  0.0957
20023SOL    HW160647   7.565   3.032   4.014  0.1106 -1.1114  0.2153
20023SOL    HW260648   7.627   2.901   3.970 -3.0756 -1.4490 -3.9761
20024SOL     OW60649   0.090   0.265   8.308 -0.6963 -0.5651 -0.2163
20024SOL    HW160650   0.179   0.250   8.276 -1.0757 -0.0425 -1.5963
20024SOL    HW260651   0.047   0.180   8.298 -1.3955  0.0297 -3.1881
20025SOL     OW60652   5.801   7.718   1.089  0.1473  0.2848  0.1197
20025SOL    HW160653   5.775   7.764   1.009 -0.9699  1.9662  1.3743
20025SOL    HW260654   5.782   7.626   1.071  0.4052  0.5453 -1.7050
20026SOL     OW60655   4.742   0.965   9.481 -0.2782  0.1460 -0.1383
20026SOL    HW160656   4.654   0.992   9.507  0.0434 -0.3354  1.5799
20026SOL    HW260657   4.785   1.046   9.454 -0.6450  0.7052  0.9096
20027SOL     OW60658   1.529   0.710   4.587 -0.0031  0.6448  0.5467
20027SOL    HW160659   1.552   0.619   4.609  0.1756  0.7968  0.9870
20027SOL    HW260660   1.599   0.763   4.626 -1.3701  1.1616  2.3993
20028SOL     OW60661   0.705   8.875   1.515  0.2299 -0.6108  0.5467
20028SOL    HW160662   0.624   8.917   1.487  0.2260 -2.1847 -2.0606
20028SOL    HW260663   0.692   8.858   1.609 -1.6611  0.8183  0.6030
20029SOL     OW60664   7.885   7.594   7.598  0.3794 -0.2292  0.3606
20029SOL    HW160665   7.951   7.542   7.644  1.4394 -0.6413 -1.5261
20029SOL    HW260666   7.915   7.596   7.507 -3.1525 -2.0936 -1.0674
20030SOL     OW60667   5.922   4.573   8.657 -0.2883  0.0820  0.0403
20030SOL    HW160668   5.894   4.610   8.574  0.1541  0.8341  0.2205
20030SOL    HW260669   5.998   4.625   8.683 -1.5574  1.1578  1.8592
20031SOL     OW60670   8.334   6.214   3.315  0.4283  0.4119 -0.5530
20031SOL    HW160671   8.240   6.232   3.316  0.2759 -0.3749  0.0248
20031SOL    HW260672   8.374   6.301   3.319 -0.2776  0.6897  1.3099
20032SOL     OW60673   0.544   2.050   1.132  0.4175 -0.0579  0.3377
20032SOL    HW160674   0.466   2.031   1.183 -0.0593 -0.9193 -0.6763
20032SOL    HW260675   0.559   2.144   1.145 -1.5619  0.4163 -0.4947
20033SOL     OW60676   7.920   1.604   9.021  0.3418 -0.8788 -0.2982
20033SOL    HW160677   7.861   1.618   8.947  1.2207  0.2534 -0.8280
20033SOL    HW260678   8.001   1.572   8.981  1.3274  1.1070 -0.0660
20034SOL     OW60679   3.750   6.459   6.371 -0.0925 -0.3776  0.1515
20034SOL    HW160680   3.821   6.503   6.418  1.1374 -1.2337 -0.8501
20034SOL    HW260681   3.782   6.370   6.356 -1.9588 -1.2124  0.8904
20035SOL     OW60682   3.017   2.951   7.610 -0.8882  0.0090  0.5467
20035SOL    HW160683   3.012   2.902   7.692 -1.3653  1.2911  1.3257
20035SOL    HW260684   3.098   3.002   7.617 -0.0736 -1.1027 -0.5231
20036SOL     OW60685   7.069   6.114   6.490 -0.1301  0.2367  0.0346
20036SOL    HW160686   7.065   6.018   6.482  1.6017  0.1174  0.2705
20036SOL    HW260687   7.059   6.146   6.400  0.7614 -0.2412 -0.2428
20037SOL     OW60688   0.790   4.203   4.468  0.3507  0.0822  0.0487
20037SOL    HW160689   0.781   4.251   4.550  0.4641  0.5730 -0.2230
20037SOL    HW260690   0.739   4.254   4.405  0.4823 -0.1506 -0.2468
20038SOL     OW60691   6.956   1.724   6.216  0.7760 -0.5191 -0.0349
20038SOL    HW160692   6.936   1.679   6.298 -0.8735 -0.4071 -0.3417
20038SOL    HW260693   6.967   1.816   6.241 -0.2583 -0.3920  0.0218
20039SOL     OW60694   3.930   3.747   2.917  0.2261 -0.2065 -0.1459
20039SOL    HW160695   3.897   3.665   2.881 -2.1261  1.0049 -1.0138
20039SOL    HW260696   4.018   3.755   2.882  0.2003 -1.9760 -0.7004
20040SOL     OW60697   6.628   6.664   0.224  0.5265 -0.2583 -0.4213
20040SOL    HW160698   6.607   6.758   0.227  1.5657 -0.0090  2.0219
20040SOL    HW260699   6.647   6.647   0.132  0.1096  1.8988 -0.9759
20041SOL     OW60700   3.256   1.847   8.683  0.8957 -0.2590 -0.6866
20041SOL    HW160701   3.198   1.889   8.747  1.1026 -0.0540 -0.6335
20041SOL    HW260702   3.265   1.757   8.714  2.3646  0.2699  0.5301
20042SOL     OW60703   8.210   2.763   7.566 -0.2504 -0.3817 -0.2642
20042SOL    HW160704   8.305   2.755   7.570 -0.3021 -0.5045  1.2960
20042SOL    HW260705   8.182   2.774   7.657 -1.8077 -1.2759 -0.5833
20043SOL     OW60706   6.096   1.867   8.794 -0.3854 -0.2125 -0.2736
20043SOL    HW160707   6.130   1.879   8.882  2.5911  0.6022 -1.3887
20043SOL    HW260708   6.174   1.857   8.740 -2.0804 -0.4305 -2.8581
20044SOL     OW60709   9.637   8.897   2.046  0.0412 -0.1154  0.1190
20044SOL    HW160710   9.632   8.893   2.141  2.6646 -0.7463  0.3044
20044SOL    HW260711   9.584   8.973   2.022  0.4312  0.8742  2.1963
20045SOL     OW60712   2.866   9.218   0.046  0.0020  0.1498  0.4813
20045SOL    HW160713   2.876   9.305   0.007  2.2952 -0.0528  0.4777
20045SOL    HW260714   2.953   9.178   0.039 -0.4084 -1.2914  2.5378
20046SOL     OW60715   6.066   2.184   6.759 -0.4126  0.3299 -0.2664
20046SOL    HW160716   6.118   2.119   6.805  0.2163  1.4044  0.5873
20046SOL    HW260717   6.011   2.133   6.700  0.9954 -0.8856 -0.5828
20047SOL     OW60718   4.439   0.475   8.144  0.0649  0.0312 -0.3992
20047SOL    HW160719   4.352   0.509   8.122 -2.2185 -3.5969  1.9899
20047SOL    HW260720   4.486   0.472   8.060 -1.9845  2.1774 -1.7516
20048SOL     OW60721   9.621   1.798   4.872  0.7135  0.1744 -0.0809
20048SOL    HW160722   9.685   1.769   4.936 -0.2080 -1.0967  0.2995
20048SOL    HW260723   9.625   1.733   4.802  0.4719  0.5735 -0.4694
20049SOL     OW60724   8.582   5.591   9.239 -0.6486  0.0057 -0.3707
20049SOL    HW160725   8.585   5.555   9.328 -1.0100 -0.2710 -0.4726
20049SOL    HW260726   8.651   5.545   9.192  0.7334  1.3743  0.2180
20050SOL     OW60727   0.651   7.730   1.327  0.3661 -0.4928  0.2444
20050SOL    HW160728   0.709   7.653   1.320  0.5689 -0.6590  2.7810
20050SOL    HW260729   0.659   7.757   1.419 -0.6814  1.8179 -0.2890
20051SOL     OW60730   8.856   4.915   0.757 -0.0064  0.1222  0.2414
20051SOL    HW160731   8.866   5.006   0.785 -0.1955  0.1485  0.2219
20051SOL    HW260732   8.762   4.903   0.745 -0.0038 -0.1487  0.4833
20052SOL     OW60733   6.547   5.663   0.256 -0.1411 -0.4367 -0.0049
20052SOL    HW160734   6.635   5.624   0.257 -0.8198 -2.0499 -0.4483
20052SOL    HW260735   6.539   5.706   0.341  1.0927 -0.2168  0.0203
20053SOL     OW60736   5.839   5.742   5.535  0.2989 -0.7008 -0.0965
20053SOL    HW160737   5.851   5.823   5.585  1.5775 -1.7354  1.3771
20053SOL    HW260738   5.756   5.754   5.489 -0.0866  0.9950  0.9508
20054SOL     OW60739   7.529   6.186   6.284 -0.4201  0.1409  0.4451
20054SOL    HW160740   7.502   6.155   6.197 -0.6963  0.2290  0.4974
20054SOL    HW260741   7.598   6.126   6.311 -0.3799  0.0723  0.1923
20055SOL     OW60742   0.263   3.422   3.049  0.3966  0.0454 -0.0634
20055SOL    HW160743   0.308   3.444   3.131  0.5617  0.4803 -0.2661
20055SOL    HW260744   0.228   3.334   3.064 -0.6796  0.6109  0.9425
20056SOL     OW60745   9.900   3.953   6.768 -0.1369 -0.6390 -0.6426
20056SOL    HW160746   9.937   3.925   6.852 -1.1964 -1.6840 -0.5020
20056SOL    HW260747   9.926   4.045   6.760 -0.5225 -0.3327  1.1320
20057SOL     OW60748  -0.028   7.413   4.660 -0.4372 -0.1948 -0.2067
20057SOL    HW160749   0.037   7.468   4.703 -0.6051  0.2571 -0.5189
20057SOL    HW260750   0.020   7.370   4.590 -0.8248  1.5420 -1.6277
20058SOL     OW60751   4.325   8.084   6.964 -0.4133  0.6073 -0.4860
20058SOL    HW160752   4.315   8.167   7.011  1.3284  0.2268  0.6456
20058SOL    HW260753   4.238   8.045   6.965 -0.5164  0.7667  2.2066
20059SOL     OW60754   2.521   5.033   4.937  0.9752 -0.5030  0.6886
20059SOL    HW160755   2.580   5.081   4.879 -1.0898  0.6825 -0.5314
20059SOL    HW260756   2.503   4.951   4.890  1.1778 -0.6101  0.7945
20060SOL     OW60757   4.498   3.406   3.634 -0.0287 -0.1655  0.1616
20060SOL    HW160758   4.429   3.340   3.628 -0.8524  0.7910 -1.0615
20060SOL    HW260759   4.566   3.374   3.574  0.4325 -0.8710  1.0270
20061SOL     OW60760   0.966   8.995   6.065 -0.1247 -0.0306 -0.0069
20061SOL    HW160761   0.886   8.944   6.058 -0.1623  0.1981 -1.7632
20061SOL    HW260762   0.952   9.053   6.140 -0.6159 -1.6205  1.1685
20062SOL     OW60763   0.607   3.989   4.409 -0.3984 -0.5364  0.8987
20062SOL    HW160764   0.534   4.047   4.390  0.3161  0.5132  1.2529
20062SOL    HW260765   0.677   4.047   4.439  0.6086 -1.5030  0.5135
20063SOL     OW60766   1.263   0.127   7.069  0.2594  0.1433  0.6624
20063SOL    HW160767   1.205   0.060   7.033 -1.3640  1.0721  1.3841
20063SOL    HW260768   1.314   0.158   6.994  0.2957 -1.1554  0.1297
20064SOL     OW60769   3.825   7.113   5.060 -0.2978  0.0614  0.1192
20064SOL    HW160770   3.845   7.204   5.038  0.1337 -0.0571  0.0157
20064SOL    HW260771   3.870   7.099   5.144 -1.1254  0.2196  0.5973
20065SOL     OW60772   6.113   0.307   8.834  0.9213 -0.1352  0.3923
20065SOL    HW160773   6.092   0.395   8.804 -3.0752 -1.8105 -2.7985
20065SOL    HW260774   6.038   0.282   8.889  0.0267 -2.5340 -1.6845
20066SOL     OW60775   8.525   2.257   3.077  0.4370  0.2284 -0.5747
20066SOL    HW160776   8.533   2.313   3.155 -1.2719  0.0762 -0.2482
20066SOL    HW260777   8.541   2.168   3.109 -1.4730  0.0166 -0.0956
20067SOL     OW60778   5.345   8.735   7.031 -0.0990 -0.0174 -0.3841
20067SOL    HW160779   5.376   8.816   7.072 -1.8220 -0.0814  1.1611
20067SOL    HW260780   5.253   8.753   7.009 -1.9689 -2.7198  3.8192
20068SOL     OW60781   7.670   4.143   7.128 -0.3136  0.0455  0.3840
20068SOL    HW160782   7.626   4.221   7.163 -1.5538  0.1760 -1.3173
20068SOL    HW260783   7.642   4.072   7.185 -1.4217  0.4113  0.3241
20069SOL     OW60784   7.503   6.079   9.550 -0.1858 -0.4013 -0.2447
20069SOL    HW160785   7.593   6.049   9.537  0.2201 -0.2528  1.8818
20069SOL    HW260786   7.467   6.087   9.462  1.4148 -1.8687 -1.0848
20070SOL     OW60787   3.498   5.413   0.481 -0.1440 -0.0724  0.2656
20070SOL    HW160788   3.417   5.456   0.508 -0.6067 -1.2193  0.7523
20070SOL    HW260789   3.567   5.474   0.508 -0.8258  0.9305 -0.1775
20071SOL     OW60790   5.192   6.662   2.145  0.0917  0.9674  0.5741
20071SOL    HW160791   5.156   6.680   2.059  0.6204 -0.4593  0.0243
20071SOL    HW260792   5.115   6.661   2.203 -0.1557  2.9197  0.3320
20072SOL     OW60793   0.193   4.817   3.165 -0.3518  0.1851 -0.1887
20072SOL    HW160794   0.245   4.745   3.132 -0.2611 -0.3005  0.9733
20072SOL    HW260795   0.216   4.891   3.109 -1.4606 -0.9666 -2.2883
20073SOL     OW60796   1.218   9.754   8.190  0.1430 -0.0810 -0.1210
20073SOL    HW160797   1.168   9.835   8.201 -1.4362 -0.8318 -1.3147
20073SOL    HW260798   1.257   9.763   8.103  0.7234 -0.2157  0.1235
20074SOL     OW60799   5.577   5.913   0.806  0.2529 -0.6074 -0.0648
20074SOL    HW160800   5.499   5.955   0.770 -0.0259 -1.4026 -0.4190
20074SOL    HW260801   5.606   5.972   0.876 -0.7444 -0.3647  0.1653
20075SOL     OW60802   6.994   6.910   4.165  0.0274 -0.3212  0.4704
20075SOL    HW160803   6.993   6.892   4.071  4.0316 -0.0187  0.2143
20075SOL    HW260804   7.038   6.995   4.173 -1.3862  0.2944  2.6094
20076SOL     OW60805   8.445   1.449   1.193 -0.2121 -0.0582 -0.5266
20076SOL    HW160806   8.460   1.397   1.273  2.4152 -1.4005 -1.7710
20076SOL    HW260807   8.521   1.506   1.187  0.1504 -0.6824 -2.5642
20077SOL     OW60808   7.783   1.653   0.473  0.2773  0.6299  0.3920
20077SOL    HW160809   7.873   1.667   0.500  0.8408 -0.1822 -0.9640
20077SOL    HW260810   7.775   1.559   0.462 -0.6103  0.7327  0.0869
20078SOL     OW60811   7.755   1.200   6.496 -0.3175 -0.0962 -0.3629
20078SOL    HW160812   7.822   1.151   6.448  0.9377  0.6501  0.5839
20078SOL    HW260813   7.766   1.291   6.468 -1.1845 -0.0094 -0.4597
20079SOL     OW60814   4.929   7.729   0.400 -0.4369 -0.2717 -0.2872
20079SOL    HW160815   4.906   7.693   0.486 -0.2042 -1.5021 -0.7262
20079SOL    HW260816   5.024   7.727   0.397 -0.3715  1.2181  0.0118
20080SOL     OW60817   9.186   9.575   5.614  0.5640 -0.0020 -0.3980
20080SOL    HW160818   9.136   9.649   5.581  0.6243  0.3281  0.2241
20080SOL    HW260819   9.247   9.614   5.677 -0.4592 -0.7345  1.1222
20081SOL     OW60820   8.824   0.238   9.155 -0.5310 -0.0356  0.2234
20081SOL    HW160821   8.743   0.201   9.121 -0.4722  1.6949 -2.0074
20081SOL    HW260822   8.839   0.317   9.104  1.8734  0.4502  1.4852
20082SOL     OW60823   9.133   9.128   5.401  0.3202  0.3043 -0.1025
20082SOL    HW160824   9.047   9.116   5.442  0.5909 -2.0944 -0.1082
20082SOL    HW260825   9.178   9.191   5.458 -0.1639 -1.1472  2.0021
20083SOL     OW60826   3.861   0.817   0.919  0.4248 -0.5689  0.0566
20083SOL    HW160827   3.824   0.730   0.900  0.2859 -0.3112 -0.8907
20083SOL    HW260828   3.850   0.827   1.013  0.8588 -1.7726  0.2543
20084SOL     OW60829   8.751   6.339   9.142 -0.4149  0.2801 -0.1366
20084SOL    HW160830   8.812   6.365   9.073 -1.0327 -0.2464 -0.8996
20084SOL    HW260831   8.752   6.412   9.203  2.6807 -0.6302  1.0853
20085SOL     OW60832   4.288   7.491   4.335 -0.1083 -0.0068 -0.3364
20085SOL    HW160833   4.305   7.398   4.352  0.4959  0.1106 -0.2457
20085SOL    HW260834   4.242   7.522   4.412 -0.7637 -0.3433 -0.5841
20086SOL     OW60835   5.663   6.687   5.589 -0.0273 -0.2241 -0.2943
20086SOL    HW160836   5.651   6.764   5.534  0.0431 -0.6304 -0.8823
20086SOL    HW260837   5.589   6.689   5.650  0.0087  0.3415 -0.2664
20087SOL     OW60838   1.917   0.022   9.878  0.0146  0.2752 -0.6871
20087SOL    HW160839   1.942  -0.007   9.791  3.4617  1.7451 -0.3382
20087SOL    HW260840   1.995   0.011   9.931 -1.0105  2.3075  1.4608
20088SOL     OW60841   0.279   8.148   6.626 -0.0288 -0.5150 -0.3029
20088SOL    HW160842   0.275   8.203   6.548 -2.4959  1.4220  1.0644
20088SOL    HW260843   0.192   8.110   6.634  0.4483 -1.4321  1.0230
20089SOL     OW60844   4.851   5.351   1.756  0.3105 -0.0489  0.0595
20089SOL    HW160845   4.766   5.308   1.747 -0.1753  0.9708 -0.4499
20089SOL    HW260846   4.904   5.315   1.686  0.0593 -0.1462 -0.0815
20090SOL     OW60847   9.195   4.339   4.625  0.0670  0.6139 -0.1064
20090SOL    HW160848   9.284   4.371   4.607 -0.2146  1.2777 -0.3607
20090SOL    HW260849   9.142   4.378   4.556 -0.6680  1.4197  0.8960
20091SOL     OW60850   1.099   8.978   1.411 -0.0624 -0.0143 -0.3455
20091SOL    HW160851   1.132   9.058   1.371 -0.0187  0.4745  0.6200
20091SOL    HW260852   1.059   8.928   1.339 -0.2322  0.9491 -0.9256
20092SOL     OW60853   8.385   4.259   9.368  0.0372  0.1493  0.3837
20092SOL    HW160854   8.325   4.195   9.406  0.4132 -0.2724  0.2784
20092SOL    HW260855   8.386   4.331   9.431 -0.0742 -0.1315  0.7083
20093SOL     OW60856   0.299   9.499   1.434 -0.2764  0.6907  0.3677
20093SOL    HW160857   0.344   9.582   1.445 -0.1380  0.5311  1.0748
20093SOL    HW260858   0.220   9.507   1.487 -0.4905  0.5338  0.0783
20094SOL     OW60859   3.011   2.161   5.199  0.0846 -0.0357  0.5369
20094SOL    HW160860   2.931   2.161   5.147 -0.2190  1.4048  0.9467
20094SOL    HW260861   3.075   2.208   5.145 -1.0347  4.1991  2.4352
20095SOL     OW60862   5.067   0.250   6.711  0.0569  0.3095  0.0904
20095SOL    HW160863   5.040   0.339   6.732  0.7563  0.3613  0.8189
20095SOL    HW260864   4.995   0.214   6.660 -0.4881  1.0938  0.2993
20096SOL     OW60865   1.862   4.968   6.917  0.0173 -0.2799 -0.0087
20096SOL    HW160866   1.878   5.047   6.865  0.1899 -0.7765 -0.7339
20096SOL    HW260867   1.900   4.987   7.002  0.2218  0.3516 -0.2334
20097SOL     OW60868   3.215   6.344   3.451  0.0869 -0.2000 -0.7462
20097SOL    HW160869   3.304   6.376   3.441 -0.1985  0.5584 -0.9360
20097SOL    HW260870   3.221   6.278   3.520  0.2356  2.3280  1.8668
20098SOL     OW60871   7.790   9.265   7.411 -0.1563 -0.2566  0.6913
20098SOL    HW160872   7.725   9.306   7.354  0.5089  0.0059  0.1121
20098SOL    HW260873   7.801   9.177   7.376  0.3641 -0.0456  0.3049
20099SOL     OW60874   1.293   1.359   5.765 -0.9128 -0.1736  0.1748
20099SOL    HW160875   1.230   1.393   5.702  0.2934 -0.4637 -1.2272
20099SOL    HW260876   1.325   1.437   5.811 -0.2705  0.3160 -1.0461
20100SOL     OW60877   0.298   4.303   4.886  0.3408 -0.2273  0.1683
20100SOL    HW160878   0.352   4.292   4.808  1.2606 -0.4685  0.8251
20100SOL    HW260879   0.261   4.217   4.902  0.3061 -0.2236  0.1065
20101SOL     OW60880   9.109   9.625   2.664 -0.8099  0.1972  0.5513
20101SOL    HW160881   9.111   9.648   2.571 -0.9059 -1.1809  0.1701
20101SOL    HW260882   9.177   9.678   2.704 -1.1963  1.2810 -0.1897
20102SOL     OW60883   9.505   6.787   3.203 -0.2197 -0.1839  0.1793
20102SOL    HW160884   9.452   6.721   3.248  0.6467 -1.0620 -0.0588
20102SOL    HW260885   9.449   6.819   3.133  0.0423 -2.1665 -0.9941
20103SOL     OW60886   5.744   5.095   9.426 -0.1820  0.0472 -0.6842
20103SOL    HW160887   5.710   5.122   9.511  0.0010 -0.5945 -0.3965
20103SOL    HW260888   5.811   5.029   9.446  0.4619  0.4885 -1.2895
20104SOL     OW60889   4.869   6.759   3.328 -0.1826 -0.4730 -0.3547
20104SOL    HW160890   4.825   6.676   3.346 -1.4828  0.2147 -0.2004
20104SOL    HW260891   4.961   6.736   3.318 -0.2211 -1.6963  1.5136
20105SOL     OW60892   0.612   0.809   7.694 -0.1342  0.0506  0.0095
20105SOL    HW160893   0.568   0.873   7.637  0.6391  0.4661 -0.1393
20105SOL    HW260894   0.542   0.751   7.724 -0.2516 -2.0826 -3.7586
20106SOL     OW60895   5.677   5.212   7.853  0.3276 -0.5297  0.3373
20106SOL    HW160896   5.607   5.277   7.860  1.5313  0.9084 -0.3210
20106SOL    HW260897   5.662   5.169   7.769  0.5790  0.2017 -0.0838
20107SOL     OW60898   1.885   6.411   1.978  0.5624  0.2940 -0.1123
20107SOL    HW160899   1.819   6.345   2.001  0.2822  0.5512 -0.1695
20107SOL    HW260900   1.939   6.418   2.057 -1.7916  2.8537  1.4426
20108SOL     OW60901   8.625   9.394   4.831 -0.3841 -0.1891 -0.0189
20108SOL    HW160902   8.645   9.376   4.923  3.5669  0.2681 -0.6397
20108SOL    HW260903   8.660   9.319   4.783 -0.0627  0.7413 -1.2966
20109SOL     OW60904   2.890   0.853   1.588  0.1987 -0.1292  0.0472
20109SOL    HW160905   2.921   0.868   1.677  1.4832  0.7090 -0.5253
20109SOL    HW260906   2.861   0.761   1.588  0.6069 -0.2695  1.1943
20110SOL     OW60907   9.430   6.112   7.522 -0.1140  0.5099 -0.2262
20110SOL    HW160908   9.443   6.028   7.567  0.3485  0.8512  0.2896
20110SOL    HW260909   9.455   6.094   7.431 -1.8206 -0.3951 -0.5606
20111SOL     OW60910   4.573   2.856   6.236  0.4986  0.2815  0.4078
20111SOL    HW160911   4.500   2.878   6.293 -0.2085  1.1227 -0.7734
20111SOL    HW260912   4.618   2.939   6.221 -0.5219  0.4988 -1.8331
20112SOL     OW60913   5.235   3.626   6.242  0.5336 -0.2019  0.0250
20112SOL    HW160914   5.306   3.683   6.210  1.2206 -0.3017  1.3068
20112SOL    HW260915   5.269   3.537   6.233  0.1698 -0.3093 -0.2993
20113SOL     OW60916   2.960   1.357   4.169 -0.1511  0.2852 -0.4174
20113SOL    HW160917   2.883   1.328   4.121 -0.5160 -0.2923  0.4714
20113SOL    HW260918   2.924   1.397   4.249  0.4653 -0.5187  0.2829
20114SOL     OW60919   6.827   6.992   2.493 -0.3292  0.3475  0.0157
20114SOL    HW160920   6.759   6.995   2.426  0.2676  0.9792 -0.5673
20114SOL    HW260921   6.843   7.084   2.515  1.7446  0.3501 -1.2965
20115SOL     OW60922   7.552   7.400   7.285  0.3192 -0.2024  0.5350
20115SOL    HW160923   7.622   7.452   7.244 -0.7718  0.5026 -0.4851
20115SOL    HW260924   7.496   7.373   7.212 -0.4167 -0.8515  1.3236
20116SOL     OW60925   7.323   6.867   4.612  0.6329  0.1990  0.2126
20116SOL    HW160926   7.402   6.815   4.600 -0.7180 -2.2798  1.1552
20116SOL    HW260927   7.260   6.829   4.549 -0.6064  0.1919  1.4117
20117SOL     OW60928   7.484   5.759   2.162 -0.6203  0.6781 -0.0162
20117SOL    HW160929   7.448   5.818   2.096  0.2827  1.4658  0.1766
20117SOL    HW260930   7.536   5.815   2.219  1.8953 -0.5329 -0.9851
20118SOL     OW60931   1.714   5.685   5.566  0.2297  0.2695  0.1646
20118SOL    HW160932   1.692   5.615   5.628  1.9008 -0.9991 -0.6045
20118SOL    HW260933   1.809   5.687   5.565  0.2253  2.0076 -0.4973
20119SOL     OW60934   3.099   3.864   7.401  0.2802  0.1322  0.0759
20119SOL    HW160935   3.043   3.923   7.351  1.0889  0.3025 -0.6476
20119SOL    HW260936   3.114   3.790   7.343 -1.3759 -1.2179  1.2572
20120SOL     OW60937   8.342   9.213   7.667 -0.3049 -0.2917 -0.0833
20120SOL    HW160938   8.248   9.195   7.671 -0.3665  0.0400 -0.0158
20120SOL    HW260939   8.368   9.186   7.579 -0.5419 -0.0160 -0.2393
20121SOL     OW60940   1.686   8.641   2.152  0.0040 -0.3620  0.1507
20121SOL    HW160941   1.664   8.585   2.077 -0.5450 -0.7610  0.6026
20121SOL    HW260942   1.744   8.708   2.116  0.8432 -1.3446 -0.3586
20122SOL     OW60943   4.052   3.337   8.440  0.1064  0.4017  0.4926
20122SOL    HW160944   4.081   3.282   8.367  0.1568  0.4256  0.4949
20122SOL    HW260945   4.070   3.426   8.412  4.5144  0.3666  2.2987
20123SOL     OW60946   0.520   8.928   4.814 -0.2983 -0.1736  0.5409
20123SOL    HW160947   0.604   8.972   4.821 -0.0552 -0.5245 -0.1194
20123SOL    HW260948   0.467   8.967   4.883  0.7257 -0.6746  1.6520
20124SOL     OW60949   9.200   4.792   8.947  0.1769  0.2374  0.1030
20124SOL    HW160950   9.210   4.784   9.042  0.3875  0.1584  0.0757
20124SOL    HW260951   9.174   4.705   8.918 -1.7601  0.7131  0.3087
20125SOL     OW60952   7.431   5.920   0.241  0.2907 -0.2784 -0.3005
20125SOL    HW160953   7.489   5.988   0.275  2.0216 -1.8180 -0.0000
20125SOL    HW260954   7.378   5.894   0.315  0.6914 -0.2976 -0.0175
20126SOL     OW60955   3.679   4.132   3.483 -0.0978  0.1568  0.2480
20126SOL    HW160956   3.761   4.094   3.450 -0.0582  0.1368  0.3695
20126SOL    HW260957   3.617   4.120   3.412 -0.1958 -0.5108  0.4455
20127SOL     OW60958   5.043   1.360   3.650 -0.1594 -0.0202  0.2120
20127SOL    HW160959   4.958   1.402   3.657  0.0791  0.2271  2.0414
20127SOL    HW260960   5.104   1.419   3.694  0.9888 -0.1935 -1.0515
20128SOL     OW60961   0.620   2.074  10.002  0.5005  0.2429  0.4352
20128SOL    HW160962   0.627   1.980  10.020 -2.1448  0.0439  0.7291
20128SOL    HW260963   0.658   2.085   9.915  0.7638 -1.0892  0.3652
20129SOL     OW60964   8.072   8.071   4.984 -0.6654  0.2748 -0.6432
20129SOL    HW160965   8.014   8.147   4.977 -0.2835  0.6940  0.5398
20129SOL    HW260966   8.122   8.086   5.064  0.1476 -0.7274 -0.9410
20130SOL     OW60967   4.550   8.165   2.740  0.5350 -0.3133 -0.3391
20130SOL    HW160968   4.530   8.117   2.660 -0.5685  0.5316 -0.6009
20130SOL    HW260969   4.478   8.145   2.799  0.2041  0.7701 -0.3522
20131SOL     OW60970   0.009   1.799   7.389 -0.0198 -0.0380  0.0500
20131SOL    HW160971   0.088   1.832   7.433  0.4341  0.7782 -1.3219
20131SOL    HW260972   0.042   1.734   7.327 -0.2820  1.1333 -1.3453
20132SOL     OW60973   2.382   7.006   4.775  0.2488 -0.2441 -0.3374
20132SOL    HW160974   2.455   7.046   4.823  1.2758  1.4946 -3.0755
20132SOL    HW260975   2.354   7.075   4.714 -1.8086 -1.8534 -1.3173
20133SOL     OW60976   0.962   1.924   4.783  0.6181 -0.3195  0.0573
20133SOL    HW160977   0.949   1.946   4.875  1.5193  1.6046 -0.2226
20133SOL    HW260978   0.957   1.829   4.780 -2.8074 -0.3148  1.5250
20134SOL     OW60979   4.869   7.263   1.825 -0.0160 -0.3141  0.1943
20134SOL    HW160980   4.931   7.332   1.850  0.8886 -0.5568 -1.2659
20134SOL    HW260981   4.904   7.228   1.743 -2.0107 -0.5783 -0.5963
20135SOL     OW60982   6.917   0.631   7.116 -0.0645 -0.0207 -0.4131
20135SOL    HW160983   6.964   0.702   7.073 -2.7358  1.6549 -0.8285
20135SOL    HW260984   6.951   0.629   7.205  0.7842  1.0669 -0.6959
20136SOL     OW60985   9.822   4.257   6.500  0.4881 -0.1481 -0.1472
20136SOL    HW160986   9.826   4.169   6.538  0.5132  0.4271  1.2388
20136SOL    HW260987   9.730   4.282   6.507  0.6383  0.2844  0.2768
20137SOL     OW60988   6.873   9.846   5.079  0.5674 -0.3208 -0.1038
20137SOL    HW160989   6.819   9.924   5.069  0.0096 -0.7565 -0.5735
20137SOL    HW260990   6.933   9.848   5.005  1.5186  0.4040  0.6683
20138SOL     OW60991   3.964   2.517   4.010  0.2126 -0.4163  0.0233
20138SOL    HW160992   3.894   2.477   3.958 -0.0571 -0.7132  0.6017
20138SOL    HW260993   4.045   2.488   3.968 -0.0007  0.9793 -1.4393
20139SOL     OW60994   6.538   5.226   2.035 -0.2789 -0.3190  0.3316
20139SOL    HW160995   6.633   5.241   2.038 -0.5203  1.3126  1.3065
20139SOL    HW260996   6.513   5.250   1.946  0.1256  0.0123  0.2995
20140SOL     OW60997   6.445   1.771   2.084  0.5646 -0.0958 -0.0041
20140SOL    HW160998   6.398   1.693   2.057 -0.6083  0.0907  1.4009
20140SOL    HW260999   6.392   1.844   2.050  1.0204  0.0998 -0.3029
20141SOL     OW61000   4.731   8.044   6.573  0.0695 -0.0816  0.6979
20141SOL    HW161001   4.731   7.975   6.639  1.1317  1.2088  2.1409
20141SOL    HW261002   4.638   8.058   6.553 -0.1952 -1.4031  0.9056
20142SOL     OW61003   7.342   9.164   1.873 -0.0422 -0.3869  0.9696
20142SOL    HW161004   7.250   9.183   1.891 -0.6636 -3.3168  1.3115
20142SOL    HW261005   7.350   9.069   1.881  2.8544 -0.3304  0.1219
20143SOL     OW61006   0.275   3.187   7.073  0.5131  0.1458 -0.0454
20143SOL    HW161007   0.221   3.265   7.082 -1.7819 -0.8916 -3.0610
20143SOL    HW261008   0.314   3.195   6.986  1.9508 -1.0995  0.4351
20144SOL     OW61009   4.870   4.593   2.631 -0.2736  0.4394  0.3745
20144SOL    HW161010   4.916   4.596   2.715  0.9201 -1.2200 -0.1825
20144SOL    HW261011   4.925   4.645   2.572 -0.7196  0.9750  0.4220
20145SOL     OW61012   5.194   5.526   5.739  0.5361 -0.1343  0.8920
20145SOL    HW161013   5.289   5.536   5.735  0.5082  0.0254  0.6273
20145SOL    HW261014   5.180   5.447   5.792  0.8589 -1.1490 -0.4813
20146SOL     OW61015   7.902   4.521   5.611 -0.8535  0.6928  0.9837
20146SOL    HW161016   7.958   4.598   5.614  1.2157 -0.4494 -2.1649
20146SOL    HW261017   7.820   4.552   5.572 -0.5172  1.5451  0.9387
20147SOL     OW61018   0.182   3.864   9.032  0.0434  0.1636 -0.1000
20147SOL    HW161019   0.141   3.948   9.056 -1.8712 -0.7532  0.0612
20147SOL    HW261020   0.226   3.882   8.949 -0.0717  1.4140  0.0824
20148SOL     OW61021   8.136   4.149   0.383  0.2553  0.4540  0.7116
20148SOL    HW161022   8.117   4.083   0.450  0.1606 -0.3086 -0.0453
20148SOL    HW261023   8.225   4.129   0.354 -0.7986 -1.3401 -1.6716
20149SOL     OW61024   7.547   8.954   4.116  0.1536 -0.0647  0.2547
20149SOL    HW161025   7.462   8.988   4.145  0.7034  2.3121 -0.6311
20149SOL    HW261026   7.525   8.892   4.046 -0.8788 -0.1920  0.6647
20150SOL     OW61027   2.575   0.090   5.290  0.1254  0.1537 -0.0579
20150SOL    HW161028   2.519   0.013   5.298 -0.1460  0.4844  1.4613
20150SOL    HW261029   2.537   0.154   5.349  0.0334  1.6805 -1.6902
20151SOL     OW61030   3.378   7.312   0.791  0.4306  0.1110 -0.3725
20151SOL    HW161031   3.372   7.398   0.750 -0.2783  0.1892 -0.1143
20151SOL    HW261032   3.297   7.304   0.842  1.4232  0.1606  1.2946
20152SOL     OW61033   2.903   2.770   9.989 -0.2213 -0.0373  0.3776
20152SOL    HW161034   2.996   2.762   9.969  0.0229  0.0019  1.4251
20152SOL    HW261035   2.882   2.861   9.970 -0.9515 -0.8005 -3.3198
20153SOL     OW61036   5.869   4.332   1.284  0.5513 -0.1604 -0.0572
20153SOL    HW161037   5.776   4.311   1.279  0.3939  0.0848  1.5366
20153SOL    HW261038   5.913   4.248   1.271  0.1315 -0.2967 -0.6993
20154SOL     OW61039   8.016   1.047   5.483 -0.5735  0.4512 -0.5031
20154SOL    HW161040   8.038   1.131   5.523 -2.8568 -0.2387  2.5184
20154SOL    HW261041   8.077   0.984   5.522  1.2362  0.6033 -2.8719
20155SOL     OW61042   2.213   2.717   9.945 -0.1649 -0.0084  0.1329
20155SOL    HW161043   2.209   2.720   9.849  0.8023 -0.7623  0.0588
20155SOL    HW261044   2.122   2.704   9.972 -0.2838 -1.1788 -0.7492
20156SOL     OW61045   4.604   9.219   9.642  0.6971 -0.5205 -0.4678
20156SOL    HW161046   4.699   9.222   9.637  0.6765 -1.0114 -1.4218
20156SOL    HW261047   4.581   9.130   9.617 -0.0320 -0.3104 -0.5878
20157SOL     OW61048   0.798   7.297   3.858  0.1770  0.0139  0.1891
20157SOL    HW161049   0.811   7.248   3.777 -2.0743 -0.5423  0.0787
20157SOL    HW261050   0.804   7.389   3.832 -1.6328 -0.1213 -0.9217
20158SOL     OW61051   6.266   7.561   4.263 -0.4138 -0.0093  0.1192
20158SOL    HW161052   6.311   7.574   4.347  0.0325  0.0485 -0.1269
20158SOL    HW261053   6.324   7.504   4.213 -0.6632 -0.0190 -0.1652
20159SOL     OW61054   0.660   0.024   1.321 -0.5897  0.1113  0.4326
20159SOL    HW161055   0.608  -0.039   1.271 -0.3347 -0.4068  0.8166
20159SOL    HW261056   0.705   0.076   1.255 -1.6363  0.6002  0.0937
20160SOL     OW61057   2.108   6.841   1.902  0.6155 -0.4364 -0.5024
20160SOL    HW161058   2.124   6.931   1.929 -1.9103 -0.7475  2.5339
20160SOL    HW261059   2.036   6.847   1.839 -1.6637 -0.3893  1.9534
20161SOL     OW61060   6.977   7.865   9.034 -0.0153  0.2398  0.1584
20161SOL    HW161061   7.017   7.842   9.118 -0.0444  0.3911  0.2148
20161SOL    HW261062   7.051   7.884   8.977 -0.0143  1.8836  0.6517
20162SOL     OW61063   9.045   5.173   5.157 -0.3750 -0.3561  0.4962
20162SOL    HW161064   9.099   5.163   5.235 -1.1725 -0.9391  0.9923
20162SOL    HW261065   8.955   5.162   5.189 -0.6911 -1.0199 -0.5580
20163SOL     OW61066   9.039   1.866   6.932 -0.2617 -0.0503  0.2506
20163SOL    HW161067   8.966   1.834   6.880  0.4968 -0.7959 -0.3748
20163SOL    HW261068   9.072   1.942   6.884  0.5239 -0.8198 -0.4560
20164SOL     OW61069   4.796   8.145   2.594 -0.3387  0.7749 -0.1585
20164SOL    HW161070   4.739   8.151   2.670  0.0070 -1.7271  0.3753
20164SOL    HW261071   4.884   8.164   2.627 -0.3664  1.0188 -0.2227
20165SOL     OW61072   0.761   3.074   0.545 -0.0673 -0.0675  0.4327
20165SOL    HW161073   0.823   3.096   0.615  0.7505  0.6297 -0.4753
20165SOL    HW261074   0.703   3.150   0.539  1.9732  1.4654 -1.8570
20166SOL     OW61075   7.954   1.083   6.319 -0.2923  0.3173  0.4800
20166SOL    HW161076   8.019   1.034   6.369 -0.5880 -0.0471  0.5106
20166SOL    HW261077   8.006   1.131   6.254 -0.1120 -1.4662 -0.7615
20167SOL     OW61078   3.599   2.513   2.048 -0.2429 -0.6255  0.1635
20167SOL    HW161079   3.631   2.442   1.993 -1.1381 -0.1981 -0.9548
20167SOL    HW261080   3.505   2.515   2.033 -0.4212 -0.0761  1.2321
20168SOL     OW61081   0.148   0.669   0.860  0.1324  0.5669  0.4483
20168SOL    HW161082   0.189   0.640   0.778 -0.4717 -1.7499  0.8776
20168SOL    HW261083   0.074   0.722   0.832 -1.0724 -1.5516 -0.6494
20169SOL     OW61084   6.368   5.740   8.160  0.1840  0.2177  0.3661
20169SOL    HW161085   6.451   5.785   8.143  0.2149  0.0766  0.1404
20169SOL    HW261086   6.323   5.797   8.223 -0.6689  1.6689 -1.4334
20170SOL     OW61087   8.376   8.907   8.182  0.1576 -0.5362 -0.0893
20170SOL    HW161088   8.282   8.898   8.197  0.1851 -0.3500  0.1996
20170SOL    HW261089   8.382   8.971   8.110  0.0589 -0.6765 -0.2220
20171SOL     OW61090   2.407   8.536   4.571  0.2206 -0.4285  0.2195
20171SOL    HW161091   2.336   8.495   4.621  0.7706  0.1532  1.5269
20171SOL    HW261092   2.447   8.463   4.524 -1.0186 -0.8179 -0.2900
20172SOL     OW61093   6.050   5.882   3.943  0.3370 -0.2441  0.2564
20172SOL    HW161094   6.032   5.816   4.010 -0.5997 -1.2128 -0.9131
20172SOL    HW261095   5.965   5.926   3.930  1.0065  1.4918  1.2656
20173SOL     OW61096   0.575   5.405   9.393  0.2600 -0.2933  0.3329
20173SOL    HW161097   0.654   5.367   9.355 -0.7649 -1.0276 -1.1582
20173SOL    HW261098   0.505   5.377   9.335 -0.8789  1.8796  0.5773
20174SOL     OW61099   9.834   0.321   0.298 -0.0924  0.3008  0.1078
20174SOL    HW161100   9.862   0.372   0.374  1.7849 -0.7986  0.2159
20174SOL    HW261101   9.907   0.262   0.281 -0.1525  0.9475 -2.9682
20175SOL     OW61102   3.105   3.582   6.566  0.1807 -0.1102 -0.0824
20175SOL    HW161103   3.053   3.574   6.646  0.8152 -0.3816  0.3090
20175SOL    HW261104   3.040   3.588   6.496 -0.3840 -1.0507  0.3339
20176SOL     OW61105   1.389   5.905   9.004  0.5640  0.3005 -0.0770
20176SOL    HW161106   1.481   5.916   8.980  0.4160  0.7737 -0.4390
20176SOL    HW261107   1.342   5.970   8.951  0.0388  0.1699  0.2195
20177SOL     OW61108   7.268   8.378   0.602 -0.1101 -0.1959  0.9953
20177SOL    HW161109   7.354   8.418   0.617 -0.6076  1.0117  0.7338
20177SOL    HW261110   7.238   8.416   0.520  0.3669 -2.8643 -0.5356
20178SOL     OW61111   4.032   4.444   1.510 -0.5097 -0.2288 -0.1359
20178SOL    HW161112   4.073   4.522   1.473 -0.1609 -0.7145 -0.7961
20178SOL    HW261113   4.105   4.383   1.522 -0.5568  0.0245  1.6891
20179SOL     OW61114   9.762   8.359   9.511  0.0334 -0.1797 -0.2098
20179SOL    HW161115   9.820   8.359   9.588 -0.3114  1.1918  0.0773
20179SOL    HW261116   9.818   8.390   9.440  0.2570 -1.1147 -0.4597
20180SOL     OW61117   6.989   1.942   9.389  0.0603 -0.0817  0.4367
20180SOL    HW161118   6.904   1.898   9.391 -0.6710  1.3052  2.0870
20180SOL    HW261119   6.984   1.999   9.313 -0.4203 -0.1119  0.4420
20181SOL     OW61120   2.444   9.012   6.889 -0.1162 -0.0031 -0.3446
20181SOL    HW161121   2.395   8.930   6.887  0.0557 -0.1049 -0.3810
20181SOL    HW261122   2.463   9.026   6.981 -1.2400  0.6504 -0.1920
20182SOL     OW61123   4.412   9.237   5.960 -0.4343 -0.6434 -0.9007
20182SOL    HW161124   4.368   9.250   6.044  0.7655 -1.6118 -0.0724
20182SOL    HW261125   4.367   9.295   5.899 -1.3887  0.0180  0.3937
20183SOL     OW61126   7.431   7.008   8.378  0.3893  0.1924  0.2086
20183SOL    HW161127   7.486   6.936   8.349  0.6211  0.2130  0.5954
20183SOL    HW261128   7.381   7.032   8.300  0.1550 -0.5189  0.1323
20184SOL     OW61129   9.449   1.661   3.994 -0.5710  0.3893  0.1790
20184SOL    HW161130   9.422   1.573   3.967 -0.1189  0.6283 -1.1787
20184SOL    HW261131   9.413   1.672   4.082 -3.9230  0.2633 -1.0335
20185SOL     OW61132   0.465   9.621   9.093  0.3798 -0.9489 -0.0905
20185SOL    HW161133   0.525   9.672   9.147  0.1482 -0.2573 -0.4713
20185SOL    HW261134   0.382   9.622   9.141 -0.2216  0.8383 -1.0664
20186SOL     OW61135   5.038   1.987   5.763 -0.1862  0.1491 -0.0931
20186SOL    HW161136   5.056   2.028   5.847  0.2234 -0.9557  0.3723
20186SOL    HW261137   5.026   1.894   5.783 -1.1963  0.0312 -1.1043
20187SOL     OW61138   3.864   6.722   5.998  0.6332 -0.0194 -0.2269
20187SOL    HW161139   3.932   6.773   6.040  1.6357 -0.0135 -1.7779
20187SOL    HW261140   3.782   6.753   6.037  1.3540  1.5077  0.1341
20188SOL     OW61141   3.373   5.055   7.464 -0.1226 -0.2080  0.2316
20188SOL    HW161142   3.386   5.060   7.558 -1.0705  3.1670  0.2787
20188SOL    HW261143   3.289   5.011   7.453 -0.3170 -0.0262  0.9907
20189SOL     OW61144   5.820   9.114   8.512  0.1189  0.1120 -0.4366
20189SOL    HW161145   5.808   9.158   8.596  0.7525  0.2726 -0.4262
20189SOL    HW261146   5.915   9.111   8.500  0.2429 -2.8659  0.4273
20190SOL     OW61147   2.326   4.620   1.717 -0.6024  0.5460  0.2747
20190SOL    HW161148   2.347   4.712   1.699  2.2953 -0.3429 -1.5535
20190SOL    HW261149   2.231   4.615   1.708 -0.6541  3.0228 -1.5760
20191SOL     OW61150   0.023   4.191   0.095 -0.0241 -0.3205  0.4897
20191SOL    HW161151  -0.008   4.263   0.151 -1.0952 -0.1700 -0.2599
20191SOL    HW261152   0.050   4.233   0.014  0.6368 -0.6289  0.5498
20192SOL     OW61153   8.991   6.592   5.405  0.2703  0.3576 -0.1974
20192SOL    HW161154   8.981   6.581   5.499 -0.7163  0.6967 -0.2455
20192SOL    HW261155   9.075   6.551   5.384  1.1497  1.4483  1.0230
20193SOL     OW61156   8.649   4.707   9.454  0.1916 -0.1875 -0.3343
20193SOL    HW161157   8.726   4.664   9.490  0.1122 -0.0466  0.0090
20193SOL    HW261158   8.575   4.659   9.491  0.1001  0.2781  0.0975
20194SOL     OW61159   0.801   3.318   8.310 -0.3303  0.1638 -0.2441
20194SOL    HW161160   0.864   3.256   8.346 -0.9968 -0.1463  0.4095
20194SOL    HW261161   0.829   3.403   8.345 -0.1066  0.0701 -0.1918
20195SOL     OW61162   5.806   3.506   7.601 -0.4838 -0.1555 -0.7569
20195SOL    HW161163   5.821   3.509   7.507 -0.1787 -1.9726 -0.7883
20195SOL    HW261164   5.807   3.598   7.628 -0.2196  0.3715 -2.4553
20196SOL     OW61165   6.594   1.323   4.608 -0.0984 -0.1342  0.3767
20196SOL    HW161166   6.505   1.356   4.593  0.3516  1.1883  0.5372
20196SOL    HW261167   6.648   1.401   4.619  1.2792 -0.8821 -0.7177
20197SOL     OW61168   3.438   0.740   4.178 -0.2060 -0.4595  0.2144
20197SOL    HW161169   3.527   0.703   4.177 -0.4571 -1.0633  0.0158
20197SOL    HW261170   3.449   0.826   4.220  0.9287  0.6377 -2.1224
20198SOL     OW61171   2.552   0.811   7.258  0.7744 -0.1374  0.4101
20198SOL    HW161172   2.530   0.891   7.304  0.9391 -0.3381  0.8468
20198SOL    HW261173   2.471   0.785   7.214  0.9346  0.6924 -0.3915
20199SOL     OW61174   0.549   9.335   7.105 -0.0734  0.0602  0.7363
20199SOL    HW161175   0.612   9.346   7.177 -0.1135 -0.1134  0.8013
20199SOL    HW261176   0.602   9.304   7.032 -0.0157  0.3444  0.6585
20200SOL     OW61177   9.180   5.806   2.106  0.7533 -0.0637 -0.5318
20200SOL    HW161178   9.152   5.801   2.197  0.7610 -2.4199 -0.5931
20200SOL    HW261179   9.150   5.892   2.076 -0.4474  0.2042  1.2887
20201SOL     OW61180   5.430   7.375   8.211 -0.1219 -0.2839 -0.0575
20201SOL    HW161181   5.524   7.358   8.214 -0.0850 -0.4503 -1.5833
20201SOL    HW261182   5.401   7.336   8.129 -0.9462  2.4897 -1.2150
20202SOL     OW61183   9.027   0.690   4.581 -0.2557  0.4094 -0.1556
20202SOL    HW161184   9.100   0.748   4.562  0.6889 -0.7172 -0.1020
20202SOL    HW261185   9.031   0.676   4.676 -1.6466  1.7314  0.1399
20203SOL     OW61186   7.023   1.613   1.326  0.5146 -0.0012  0.1482
20203SOL    HW161187   6.940   1.578   1.293  0.0663 -0.2910  1.5140
20203SOL    HW261188   7.090   1.554   1.290  0.0722 -0.1772 -0.4023
20204SOL     OW61189   1.546   6.611   5.243  0.2864 -0.1398 -0.4412
20204SOL    HW161190   1.524   6.588   5.153 -0.2656 -1.4405  0.0040
20204SOL    HW261191   1.489   6.557   5.297  1.8818 -0.7662  0.7105
20205SOL     OW61192   0.186   1.458   8.290 -0.6230  0.2350  0.0653
20205SOL    HW161193   0.165   1.368   8.316 -0.6554 -0.1248 -1.1460
20205SOL    HW261194   0.251   1.448   8.221  0.9870  1.2250  1.3652
20206SOL     OW61195   0.922   6.487   6.244  0.2092 -0.4159 -0.0422
20206SOL    HW161196   0.920   6.451   6.333  0.3695  1.6645  0.8636
20206SOL    HW261197   0.833   6.522   6.231  0.7865  1.2452  0.2091
20207SOL     OW61198   9.853   9.613   6.684 -0.5862  0.2867 -0.4844
20207SOL    HW161199   9.777   9.555   6.689 -0.0094 -0.6075 -1.6626
20207SOL    HW261200   9.815   9.699   6.662 -1.3098  0.0230 -0.3101
20208SOL     OW61201   0.679   5.445   5.588  0.6661 -0.1057 -0.2827
20208SOL    HW161202   0.711   5.403   5.667 -0.1730 -0.3794 -0.0730
20208SOL    HW261203   0.679   5.376   5.521 -0.7920 -0.5082  0.0837
20209SOL     OW61204   1.583   6.073   4.433  0.8544  0.0813 -0.2735
20209SOL    HW161205   1.602   6.100   4.523 -1.0995  0.8049 -0.0277
20209SOL    HW261206   1.523   6.000   4.442  1.4234 -0.4927 -1.0114
20210SOL     OW61207   2.147   1.628   9.151  0.5758  0.3705  0.3986
20210SOL    HW161208   2.196   1.668   9.079  2.8924 -0.1585  1.5634
20210SOL    HW261209   2.177   1.536   9.151 -1.2574 -0.2595  0.5404
20211SOL     OW61210   4.574   6.089   1.743 -0.3047 -0.2465 -0.0742
20211SOL    HW161211   4.661   6.128   1.732 -1.3072  1.6992 -1.8857
20211SOL    HW261212   4.561   6.035   1.665 -1.7547  1.7689 -1.3257
20212SOL     OW61213   4.717   3.106   7.572 -0.0163  0.1142  0.1556
20212SOL    HW161214   4.723   3.106   7.667  0.5071 -2.2985  0.1921
20212SOL    HW261215   4.626   3.130   7.554 -0.0485  0.8613  1.2409
20213SOL     OW61216   2.931   8.551   8.693 -0.4337  0.0522 -0.6084
20213SOL    HW161217   3.015   8.595   8.709 -0.4934  0.6932 -1.9197
20213SOL    HW261218   2.867   8.604   8.741 -0.4551  1.2391 -1.8786
20214SOL     OW61219   2.090   8.914   7.072 -0.0815 -0.1087 -0.4125
20214SOL    HW161220   2.092   8.822   7.044 -4.6841 -1.7565  3.3248
20214SOL    HW261221   2.151   8.918   7.145  0.1013 -0.1986 -0.5590
20215SOL     OW61222   2.487   8.575   5.658 -0.1979  0.4712  0.0557
20215SOL    HW161223   2.582   8.580   5.670 -0.3226 -0.0654  1.4836
20215SOL    HW261224   2.471   8.486   5.627 -0.2947  0.3622  0.4234
20216SOL     OW61225   1.454   5.922   1.185 -0.1242  0.1720  0.4066
20216SOL    HW161226   1.365   5.890   1.197  0.7498 -3.9785 -2.0354
20216SOL    HW261227   1.507   5.865   1.241  1.2545 -0.1750 -1.1677
20217SOL     OW61228   3.793   8.645   7.437 -0.3206 -0.0662  0.2584
20217SOL    HW161229   3.731   8.634   7.509  0.1226  1.2344  0.8626
20217SOL    HW261230   3.878   8.657   7.479  0.4498 -2.0656 -0.5588
20218SOL     OW61231   3.962   9.511   8.354  0.2339  0.5287  0.4249
20218SOL    HW161232   3.905   9.502   8.278  0.1717 -2.6721  0.7203
20218SOL    HW261233   4.046   9.539   8.318  0.2017 -0.9168 -0.8628
20219SOL     OW61234   7.539   8.678   9.518 -0.1897  0.0024  0.5521
20219SOL    HW161235   7.486   8.690   9.596  0.2701  1.0624  0.7250
20219SOL    HW261236   7.570   8.766   9.497  1.3928 -0.5651  0.3909
20220SOL     OW61237   4.301   8.576   3.332  0.2196  0.0820  0.2875
20220SOL    HW161238   4.390   8.592   3.302  0.5434 -1.0433  0.5929
20220SOL    HW261239   4.305   8.491   3.377 -1.2252 -0.5630 -0.7095
20221SOL     OW61240   1.888   0.866   3.675 -0.3201 -0.2382  0.0600
20221SOL    HW161241   1.906   0.806   3.747  0.8598 -0.5035 -0.4262
20221SOL    HW261242   1.906   0.953   3.711  3.5967 -0.5319 -0.7259
20222SOL     OW61243   1.883   9.286   3.326  0.0085 -0.4687 -0.1398
20222SOL    HW161244   1.934   9.249   3.254 -0.8442  1.0267 -1.5727
20222SOL    HW261245   1.950   9.315   3.389  0.7264 -3.0977  0.4397
20223SOL     OW61246   9.342   8.568   6.425 -0.0911 -0.5789 -0.2084
20223SOL    HW161247   9.382   8.493   6.469  1.1195  0.2141  0.1289
20223SOL    HW261248   9.258   8.536   6.392  0.3764 -2.0464 -0.0351
20224SOL     OW61249   3.290   2.207   7.079  0.0895 -0.0009  0.6630
20224SOL    HW161250   3.386   2.214   7.077  0.1762 -0.9597 -1.4377
20224SOL    HW261251   3.260   2.276   7.020 -0.2552 -1.8635 -1.4992
20225SOL     OW61252   0.570   0.393   1.593  0.2455  0.4805  0.1155
20225SOL    HW161253   0.565   0.488   1.582  0.3580  0.6041  0.9948
20225SOL    HW261254   0.484   0.368   1.628 -0.3923 -0.0037 -1.7018
20226SOL     OW61255   1.804   2.449   6.050  0.0451  0.5804 -0.3554
20226SOL    HW161256   1.823   2.460   6.143 -1.2505  0.8988 -0.1044
20226SOL    HW261257   1.757   2.528   6.026 -0.7055 -0.0411 -0.9707
20227SOL     OW61258   1.710   7.719   3.973  0.6628 -0.5086 -0.1286
20227SOL    HW161259   1.701   7.638   3.924  0.5172 -0.5090 -0.1014
20227SOL    HW261260   1.681   7.697   4.062  1.0868 -0.5527  0.0032
20228SOL     OW61261   5.608   9.903   0.516  0.0757 -0.0932  0.7521
20228SOL    HW161262   5.581   9.994   0.508  0.8979 -0.0381 -2.2270
20228SOL    HW261263   5.703   9.904   0.504  0.0087 -1.4061 -0.0805
20229SOL     OW61264   2.849   2.946   3.473  0.0735 -0.2956  0.9578
20229SOL    HW161265   2.790   3.015   3.442  1.6090  0.6417 -0.0376
20229SOL    HW261266   2.876   2.975   3.560  1.9141  1.2250 -0.0631
20230SOL     OW61267   7.691   5.929   6.887  0.6382 -0.3293 -0.4223
20230SOL    HW161268   7.783   5.935   6.861  0.6719  2.0214  0.0269
20230SOL    HW261269   7.676   6.006   6.942 -1.4764 -0.9405 -0.0368
20231SOL     OW61270   0.219   0.651   3.930  0.0248 -0.1462  0.1707
20231SOL    HW161271   0.242   0.648   4.023 -0.4824 -2.3773  0.2674
20231SOL    HW261272   0.263   0.730   3.898  3.2114 -1.1718  1.5494
20232SOL     OW61273   2.341   5.510   7.202 -0.6502 -1.0841  0.6346
20232SOL    HW161274   2.341   5.414   7.209  0.8252 -1.0503  1.6348
20232SOL    HW261275   2.394   5.539   7.277  0.3436  0.4294 -0.5862
20233SOL     OW61276   0.529   6.875   0.807  0.2196 -0.7024  0.1532
20233SOL    HW161277   0.475   6.801   0.838 -1.1319  0.1709 -0.0278
20233SOL    HW261278   0.468   6.931   0.760  0.8262  1.4109  1.7252
20234SOL     OW61279   7.900   6.184   1.968 -0.3571 -0.3770 -0.4481
20234SOL    HW161280   7.828   6.221   1.915  0.9111  0.0699 -1.9487
20234SOL    HW261281   7.972   6.176   1.906  0.4833 -2.1195  0.7060
20235SOL     OW61282   5.437   9.219   6.066  0.6567 -0.2990 -0.1121
20235SOL    HW161283   5.502   9.282   6.035 -0.0949  0.9212  0.7297
20235SOL    HW261284   5.443   9.146   6.004  0.7523  1.0852 -1.7983
20236SOL     OW61285   1.834   9.811   7.324  0.1629  0.0180 -0.1401
20236SOL    HW161286   1.922   9.821   7.362 -0.3179 -1.5062  1.5288
20236SOL    HW261287   1.835   9.724   7.285 -0.0012  0.7896 -1.9458
20237SOL     OW61288   4.228   5.395   1.443  0.2624  0.3209 -0.8820
20237SOL    HW161289   4.310   5.362   1.406 -0.1197  1.2748 -2.6532
20237SOL    HW261290   4.255   5.440   1.523  1.6402  1.6410 -2.0402
20238SOL     OW61291   9.284   1.124   6.973  0.0475  0.4835 -0.0785
20238SOL    HW161292   9.312   1.055   6.913 -1.7751 -0.9466  0.6081
20238SOL    HW261293   9.230   1.182   6.919 -1.8124 -0.9499  0.1613
20239SOL     OW61294   0.359   8.177   6.289 -0.4318 -0.0786 -0.2841
20239SOL    HW161295   0.335   8.085   6.282  0.7053 -0.4797  0.7349
20239SOL    HW261296   0.407   8.196   6.209  1.0987 -0.9580  0.3819
20240SOL     OW61297   0.028   1.483   5.277 -0.1244 -0.5355 -0.1913
20240SOL    HW161298   0.078   1.453   5.353 -1.7524 -4.0186 -0.3378
20240SOL    HW261299  -0.050   1.523   5.315 -0.5010 -1.4382  0.0102
20241SOL     OW61300   3.539   0.996   9.854 -0.0151 -0.5187  0.2959
20241SOL    HW161301   3.469   0.931   9.848  1.3028 -2.1072  1.1886
20241SOL    HW261302   3.502   1.067   9.906 -1.0032 -1.2517  0.6196
20242SOL     OW61303   6.352   7.887   7.013 -0.2143 -0.5640  0.4101
20242SOL    HW161304   6.300   7.809   7.029 -0.3593 -0.4942  0.2863
20242SOL    HW261305   6.355   7.933   7.097 -1.0891 -0.1248  0.2145
20243SOL     OW61306   6.384   1.930   8.425 -0.6331 -0.5653 -0.4110
20243SOL    HW161307   6.312   1.980   8.388 -0.9949 -0.1835  0.7822
20243SOL    HW261308   6.343   1.853   8.463 -0.8179  0.8383  2.4976
20244SOL     OW61309   3.101   5.237   6.921 -0.7359  0.7912 -0.1202
20244SOL    HW161310   3.079   5.271   6.834 -1.3143 -0.7251 -0.6030
20244SOL    HW261311   3.018   5.208   6.957 -0.2786 -0.0222  0.2896
20245SOL     OW61312   3.711   7.059   2.945  0.3230 -0.2737  0.6187
20245SOL    HW161313   3.744   7.136   2.991  0.1296  0.5327 -0.5460
20245SOL    HW261314   3.669   7.094   2.867  0.5240 -1.5892 -0.1129
20246SOL     OW61315   6.275   2.716   1.660  0.3416 -0.0357  0.2327
20246SOL    HW161316   6.347   2.718   1.723 -0.3034 -0.6489  1.0196
20246SOL    HW261317   6.242   2.626   1.665 -2.1447  0.8402  1.8533
20247SOL     OW61318   7.214   3.856   8.723 -0.4880 -0.0566 -0.3576
20247SOL    HW161319   7.191   3.780   8.669 -2.0649 -0.7832  1.2280
20247SOL    HW261320   7.300   3.834   8.759 -1.2416 -1.5391  0.7003
20248SOL     OW61321   2.061   7.412   5.237 -0.6970  0.2478 -0.3013
20248SOL    HW161322   2.070   7.503   5.266 -1.8289 -0.1276  1.3930
20248SOL    HW261323   1.971   7.389   5.260  0.3190 -2.0895  1.6816
20249SOL     OW61324   8.672   5.602   1.059 -0.2168 -0.0434  0.2543
20249SOL    HW161325   8.599   5.657   1.085  0.4131  0.5418  0.7984
20249SOL    HW261326   8.714   5.650   0.988 -0.1821 -0.2463  0.1349
20250SOL     OW61327   7.271   6.028   2.829 -0.2172  0.1219  1.0049
20250SOL    HW161328   7.193   5.978   2.806 -0.4945  0.2139  1.6972
20250SOL    HW261329   7.271   6.101   2.767 -1.1060  0.5308  1.4553
20251SOL     OW61330   4.421   4.452   2.874 -0.3015 -0.3222  0.1321
20251SOL    HW161331   4.417   4.547   2.874  2.7470 -0.0490 -1.6942
20251SOL    HW261332   4.510   4.432   2.903 -1.0908 -2.6969  1.1642
20252SOL     OW61333   1.376   4.459   6.120  0.0541 -0.4210  0.0905
20252SOL    HW161334   1.373   4.485   6.028  0.9712 -0.3480  0.0732
20252SOL    HW261335   1.292   4.488   6.156  0.7567  1.9998 -0.0714
20253SOL     OW61336   8.005   6.813   7.620  0.0674  0.9465 -0.3479
20253SOL    HW161337   7.951   6.889   7.643 -2.3043 -0.4806 -0.7819
20253SOL    HW261338   7.985   6.797   7.528 -0.0554 -0.6064 -0.0842
20254SOL     OW61339   4.938   5.978   5.944 -0.0192  0.0834 -0.4668
20254SOL    HW161340   4.952   5.986   5.850 -1.5565  0.1311 -0.7157
20254SOL    HW261341   4.868   5.913   5.953  0.5196 -0.3725  0.6794
20255SOL     OW61342   4.102   5.126   0.713  0.3154  0.4335 -0.3895
20255SOL    HW161343   4.189   5.091   0.733 -0.8125 -2.9995 -0.7316
20255SOL    HW261344   4.094   5.115   0.618  0.3426  3.0495 -0.7529
20256SOL     OW61345   4.052   6.947   5.992  0.1519  0.1802 -0.7229
20256SOL    HW161346   4.119   6.884   5.968  2.1152  1.2996  1.3929
20256SOL    HW261347   4.053   7.011   5.921  1.1576  0.0380 -0.8516
20257SOL     OW61348   8.405   9.538   2.355  1.0366  0.0493 -0.4532
20257SOL    HW161349   8.450   9.579   2.428  0.6191  0.0179 -0.1790
20257SOL    HW261350   8.458   9.460   2.336  1.6892  0.5711 -0.8186
20258SOL     OW61351   2.170   5.008   2.114 -0.3370  0.2665 -0.0431
20258SOL    HW161352   2.082   5.006   2.078 -0.6580 -0.6109  0.7432
20258SOL    HW261353   2.218   4.940   2.067 -0.5482 -0.3645  0.6253
20259SOL     OW61354   9.046   2.570   3.976  0.6038 -0.7953 -0.0714
20259SOL    HW161355   8.978   2.522   4.024  0.2172  0.4187  0.6413
20259SOL    HW261356   9.084   2.629   4.041  1.4358 -0.5128 -0.7976
20260SOL     OW61357   1.220   4.064   8.238 -0.1388  0.2844  0.1716
20260SOL    HW161358   1.191   4.053   8.329 -0.7269 -0.6200 -0.1048
20260SOL    HW261359   1.271   3.985   8.219  0.4478  0.7224 -0.1232
20261SOL     OW61360   2.342   9.344   4.583 -0.1459  0.2155  0.1024
20261SOL    HW161361   2.387   9.285   4.644 -0.2745  1.6772  1.7002
20261SOL    HW261362   2.276   9.290   4.540  0.7537 -1.1365  0.3728
20262SOL     OW61363   4.619   8.792   1.360 -0.9856  0.5987 -0.0526
20262SOL    HW161364   4.575   8.877   1.360 -0.8212  0.6842 -0.3875
20262SOL    HW261365   4.672   8.792   1.280 -1.0316  0.1570 -0.0856
20263SOL     OW61366   3.574   2.309   4.760 -0.0695  0.3826  0.1951
20263SOL    HW161367   3.580   2.215   4.741 -0.2209  0.3050  0.5263
20263SOL    HW261368   3.578   2.315   4.855  2.1477  0.8811  0.1075
20264SOL     OW61369   2.720   1.002   4.153 -0.1498  0.4499  0.1349
20264SOL    HW161370   2.750   0.928   4.101  0.1071 -0.6640  1.7652
20264SOL    HW261371   2.675   1.059   4.091 -1.4555 -1.6819 -0.9901
20265SOL     OW61372   6.735   8.781   2.556 -0.4209  0.2518 -0.2676
20265SOL    HW161373   6.830   8.782   2.564 -0.4200 -0.2724 -0.1982
20265SOL    HW261374   6.707   8.709   2.613 -0.9364  1.0792  0.5620
20266SOL     OW61375   9.914   4.236   8.348 -0.3620  0.0493 -0.2456
20266SOL    HW161376   9.941   4.201   8.433 -2.7533 -1.7615 -0.1300
20266SOL    HW261377   9.838   4.291   8.368 -0.2567  0.5155 -1.0979
20267SOL     OW61378   9.807   8.016   7.694  0.0277  0.0388 -0.5528
20267SOL    HW161379   9.848   7.930   7.705  0.0810  0.2066  0.6718
20267SOL    HW261380   9.875   8.078   7.721 -0.0238  0.4780 -1.3843
20268SOL     OW61381   7.137   9.788   1.177  0.1311 -0.3325 -0.0968
20268SOL    HW161382   7.155   9.694   1.174  1.5138 -0.1028  0.4988
20268SOL    HW261383   7.059   9.796   1.232 -0.9297 -1.2367 -1.4119
20269SOL     OW61384   6.289   2.308   5.927 -0.2401  0.0267  0.1363
20269SOL    HW161385   6.384   2.310   5.942 -0.0017 -0.6513 -1.1013
20269SOL    HW261386   6.270   2.216   5.910 -1.3586 -0.0399  1.6265
20270SOL     OW61387   8.455   8.272   3.799 -0.6866 -0.5199 -0.0971
20270SOL    HW161388   8.525   8.217   3.835  0.2664  0.7575  0.0872
20270SOL    HW261389   8.475   8.276   3.705 -0.2500  0.1645  0.0131
20271SOL     OW61390   4.573   0.731   7.962 -0.1108  0.3924 -0.2988
20271SOL    HW161391   4.524   0.659   7.923  1.4177 -1.6460  1.3096
20271SOL    HW261392   4.657   0.731   7.917  1.1174 -1.0467  1.8063
20272SOL     OW61393   6.841   4.749   2.590  0.1808  0.4163 -0.1438
20272SOL    HW161394   6.747   4.738   2.580  0.3673 -2.5846  0.5495
20272SOL    HW261395   6.878   4.717   2.508  0.6508 -0.8924  0.5462
20273SOL     OW61396   5.040   2.313   4.002 -0.2946  0.1567  0.5348
20273SOL    HW161397   4.979   2.355   3.941  0.0316  0.2208  0.2461
20273SOL    HW261398   5.107   2.380   4.018 -0.2578  0.0597  0.7820
20274SOL     OW61399   5.614   7.642   3.489  0.1463 -0.2140  0.2363
20274SOL    HW161400   5.535   7.696   3.490 -1.2674 -2.2010  1.3775
20274SOL    HW261401   5.623   7.613   3.398  0.0148  0.6102 -0.0482
20275SOL     OW61402   3.546   3.109   8.039 -0.0350  0.5329 -0.5615
20275SOL    HW161403   3.573   3.139   8.126  1.3311 -0.3590 -0.6572
20275SOL    HW261404   3.474   3.048   8.056 -0.2109  0.8533 -0.1210
20276SOL     OW61405   3.342   2.452   2.052 -0.7496 -0.1598 -0.4529
20276SOL    HW161406   3.298   2.397   2.117 -1.1694  1.6911  0.9005
20276SOL    HW261407   3.272   2.499   2.008 -0.3752 -0.4979 -1.4624
20277SOL     OW61408   2.340   7.261   1.832  0.0847 -0.0491  0.7377
20277SOL    HW161409   2.408   7.302   1.779  0.4729 -2.2872 -0.6264
20277SOL    HW261410   2.388   7.221   1.905  0.1835 -1.0128  0.1636
20278SOL     OW61411   4.223   0.124   6.446  0.0340  0.4343 -0.1749
20278SOL    HW161412   4.258   0.212   6.454  0.3743  0.3331 -0.5283
20278SOL    HW261413   4.289   0.076   6.396 -0.4446  0.1479 -0.5362
20279SOL     OW61414   4.476   3.310   3.894 -0.2947  0.8517  0.4483
20279SOL    HW161415   4.491   3.338   3.804  0.1498 -1.8898 -0.4219
20279SOL    HW261416   4.400   3.361   3.923 -0.0512  2.2385 -1.2155
20280SOL     OW61417   6.330   8.776   9.252  0.2448  0.2300  0.2707
20280SOL    HW161418   6.383   8.852   9.227  0.7004 -0.5026 -1.0728
20280SOL    HW261419   6.241   8.798   9.225  0.4205  0.2000 -0.3520
20281SOL     OW61420   8.956   1.939   9.465  0.6450  0.1725  0.7102
20281SOL    HW161421   9.007   1.858   9.464 -0.4526 -0.5265  0.4028
20281SOL    HW261422   8.865   1.911   9.470  0.2240  1.3777  0.2820
20282SOL     OW61423   3.910   5.217   2.094  0.1224  0.1528  0.1475
20282SOL    HW161424   3.819   5.226   2.123 -0.1113 -0.3475 -0.4168
20282SOL    HW261425   3.961   5.251   2.167 -0.5563  1.7478 -0.0838
20283SOL     OW61426   8.948   7.088   9.547  1.0922 -0.0254  0.2991
20283SOL    HW161427   8.960   7.076   9.641  0.0298 -1.9996  0.2220
20283SOL    HW261428   8.882   7.024   9.522 -0.3221  1.9790 -1.4363
20284SOL     OW61429   0.419   2.088   6.419 -0.2013 -0.2901 -0.2050
20284SOL    HW161430   0.425   2.179   6.390  0.2731  0.0341  0.8931
20284SOL    HW261431   0.446   2.037   6.342 -1.0833  0.4492 -1.0322
20285SOL     OW61432   4.847   5.106   2.107  0.5261 -0.0815 -0.0007
20285SOL    HW161433   4.842   5.034   2.044  0.1439 -0.3147  0.2899
20285SOL    HW261434   4.840   5.064   2.193  0.9998  0.2370  0.1972
20286SOL     OW61435   4.897   4.692   0.787 -0.0836 -0.2325 -0.2599
20286SOL    HW161436   4.895   4.698   0.691  2.3223  0.7981 -0.2983
20286SOL    HW261437   4.878   4.782   0.816  0.2522 -0.3104  0.1972
20287SOL     OW61438   8.567   2.727   1.332  0.0887 -0.0145 -0.4676
20287SOL    HW161439   8.603   2.735   1.421  0.3589 -0.2708 -0.5524
20287SOL    HW261440   8.515   2.647   1.334 -0.8545  0.5811 -0.2236
20288SOL     OW61441   8.415   9.110   2.372 -0.0333  0.3213 -0.4078
20288SOL    HW161442   8.363   9.139   2.447  1.1885 -2.6361  1.8255
20288SOL    HW261443   8.354   9.110   2.298 -1.7724  1.6906  0.9596
20289SOL     OW61444   4.593   2.835   4.498  0.1608  0.2162  0.4438
20289SOL    HW161445   4.555   2.815   4.413  1.3796 -2.6092  0.4447
20289SOL    HW261446   4.546   2.913   4.528 -1.6520  0.1441 -1.9176
20290SOL     OW61447   1.148   7.767   5.059  0.1911 -0.1094 -0.0271
20290SOL    HW161448   1.214   7.775   5.128 -2.6115  1.2113  2.7577
20290SOL    HW261449   1.179   7.824   4.989  1.3985  1.4918  1.7237
20291SOL     OW61450   5.013   8.058   0.663 -0.1526  0.0630 -0.0702
20291SOL    HW161451   4.998   8.054   0.568 -1.3976 -0.5084  0.1424
20291SOL    HW261452   4.941   8.010   0.701 -0.3743  1.3783  1.2552
20292SOL     OW61453   2.771   7.075   6.057 -0.3117 -0.2928 -0.1886
20292SOL    HW161454   2.846   7.074   6.115 -0.2603 -0.8354 -0.2580
20292SOL    HW261455   2.696   7.087   6.115 -0.5117 -3.1620  0.3401
20293SOL     OW61456   3.416   6.835   8.893 -0.0204  0.5422  0.5580
20293SOL    HW161457   3.357   6.892   8.844  0.6712  0.7271 -0.0739
20293SOL    HW261458   3.488   6.817   8.833 -0.0605 -0.7382  0.8685
20294SOL     OW61459   0.502   2.371   7.881 -0.1199 -0.0694  0.1003
20294SOL    HW161460   0.585   2.404   7.845 -0.7299  1.5923  0.1110
20294SOL    HW261461   0.506   2.394   7.974 -0.9984  0.9604 -0.0970
20295SOL     OW61462   2.418   2.572   0.623  0.6818  0.1930 -0.1162
20295SOL    HW161463   2.419   2.634   0.550  1.9460 -0.9262 -1.0878
20295SOL    HW261464   2.404   2.626   0.701 -0.1561  1.4693 -1.1237
20296SOL     OW61465   0.218   3.156   2.998  0.2569 -0.0452 -0.4147
20296SOL    HW161466   0.134   3.136   2.957  0.2799 -0.7254 -0.1279
20296SOL    HW261467   0.220   3.103   3.078  0.7725  0.2925 -0.1964
20297SOL     OW61468   7.792   8.777   3.044  0.3607 -0.1675 -0.6870
20297SOL    HW161469   7.839   8.861   3.042  0.4479 -0.2111 -0.4640
20297SOL    HW261470   7.734   8.785   3.119 -0.0270 -0.0952 -0.9954
20298SOL     OW61471   8.693   5.275   9.156  0.1833 -0.1729 -0.0524
20298SOL    HW161472   8.619   5.222   9.187  0.0479  0.7535  1.3180
20298SOL    HW261473   8.769   5.237   9.201  0.5711 -1.1216 -1.4555
20299SOL     OW61474   5.960   1.487   0.201  0.3284 -0.1613 -0.6745
20299SOL    HW161475   5.978   1.581   0.201 -1.0667  0.1509 -2.1310
20299SOL    HW261476   5.878   1.479   0.153 -0.7406 -1.9249  1.2913
20300SOL     OW61477   9.212   4.856   2.900  0.2468  0.1840  0.3550
20300SOL    HW161478   9.279   4.920   2.876 -0.4452  1.2841  1.1947
20300SOL    HW261479   9.254   4.799   2.963  0.4627  0.7534  0.7373
20301SOL     OW61480   2.966   7.603   0.848  0.4357 -0.4639 -0.2657
20301SOL    HW161481   2.982   7.652   0.768 -0.9936 -0.5533 -0.6423
20301SOL    HW261482   2.977   7.512   0.823  0.4830 -0.4677 -0.2305
20302SOL     OW61483   1.481   4.027   1.561  0.8789 -0.5158  0.7569
20302SOL    HW161484   1.396   4.063   1.535  0.9787  0.9047  2.2677
20302SOL    HW261485   1.460   3.940   1.595  0.2248 -0.7369 -0.1725
20303SOL     OW61486   2.744   1.582   3.390  0.2762 -0.0862 -0.3508
20303SOL    HW161487   2.727   1.650   3.326 -0.0237  0.2410  0.0704
20303SOL    HW261488   2.800   1.519   3.344  3.9172  2.3115  0.3668
20304SOL     OW61489   7.655   8.865   2.507 -0.4522 -0.2426  0.1247
20304SOL    HW161490   7.662   8.809   2.584 -0.6239 -2.3471 -1.3158
20304SOL    HW261491   7.746   8.885   2.484 -0.3900  0.1127  0.6462
20305SOL     OW61492   4.476   9.059   0.837 -0.2386 -0.0125 -0.4542
20305SOL    HW161493   4.385   9.059   0.806 -0.2555  0.2692 -0.4068
20305SOL    HW261494   4.528   9.054   0.757 -0.2809  0.7812 -0.5407
20306SOL     OW61495   5.202   4.178   6.361  0.1626  0.0296  0.1681
20306SOL    HW161496   5.278   4.121   6.345  0.3918 -0.2600  2.0638
20306SOL    HW261497   5.222   4.258   6.313  0.2036 -1.1500 -1.9120
20307SOL     OW61498   1.686   3.161   8.495 -0.3652  0.4168  0.0518
20307SOL    HW161499   1.600   3.201   8.482 -0.8786 -0.5150  0.4913
20307SOL    HW261500   1.700   3.107   8.417 -0.4166  0.1453  0.2315
20308SOL     OW61501   0.100   7.647   1.367 -0.2994 -0.0565  0.3105
20308SOL    HW161502   0.040   7.657   1.293 -0.7372  0.6075  0.7400
20308SOL    HW261503   0.082   7.722   1.423 -0.3877 -0.8317  1.3743
20309SOL     OW61504   1.909   4.633   0.672 -0.4932  0.8409  0.5555
20309SOL    HW161505   1.817   4.653   0.654 -0.6117  0.2556  0.4839
20309SOL    HW261506   1.928   4.678   0.754 -0.0112  3.3554 -0.8333
20310SOL     OW61507   8.978   1.436   5.572  0.0184  0.0091  0.0174
20310SOL    HW161508   9.051   1.497   5.562  1.2251 -1.4524 -0.3535
20310SOL    HW261509   8.927   1.472   5.645  1.7998  0.3974  1.1330
20311SOL     OW61510   4.785   9.314   2.212  0.5374  0.0514 -0.3788
20311SOL    HW161511   4.879   9.311   2.234  1.0737  3.2347 -1.6531
20311SOL    HW261512   4.782   9.293   2.119  0.3174  2.0552 -0.8627
20312SOL     OW61513   0.240   7.372   0.982  0.2951 -0.9402 -0.0241
20312SOL    HW161514   0.173   7.305   0.968  1.2190 -1.5436 -1.9766
20312SOL    HW261515   0.226   7.435   0.911  0.4254  0.1367  0.8706
20313SOL     OW61516   5.099   9.065   9.151  0.1290 -0.2419  0.3053
20313SOL    HW161517   5.190   9.081   9.128 -0.2607  0.9419 -0.5318
20313SOL    HW261518   5.059   9.153   9.153 -0.5971 -0.5677  2.4118
20314SOL     OW61519   1.119   6.697   9.479  0.1657 -0.3381 -0.7624
20314SOL    HW161520   1.144   6.772   9.532 -0.3947 -0.0638 -0.8796
20314SOL    HW261521   1.195   6.638   9.483  0.0208 -0.4638  0.5723
20315SOL     OW61522   8.234   9.915   2.299  0.2953 -0.0111 -0.2918
20315SOL    HW161523   8.250   9.971   2.223  2.2881 -1.4366 -0.9973
20315SOL    HW261524   8.316   9.868   2.312 -1.6705 -4.0352 -0.8071
20316SOL     OW61525   3.020   5.494   1.403  0.0285  0.0202  0.1271
20316SOL    HW161526   3.115   5.505   1.394 -0.1760  1.3872 -0.7445
20316SOL    HW261527   3.008   5.457   1.490  1.2952  1.3763  0.9312
20317SOL     OW61528   7.846   1.212   9.936  0.2283 -0.2467  0.0426
20317SOL    HW161529   7.772   1.256   9.976 -1.2552 -1.1835 -1.5404
20317SOL    HW261530   7.892   1.281   9.888  0.2740  0.2926  0.8479
20318SOL     OW61531   0.478   5.850   2.529 -0.2929  0.1898  0.1206
20318SOL    HW161532   0.395   5.806   2.547 -0.5144  0.2026 -0.8192
20318SOL    HW261533   0.542   5.804   2.584 -1.2135  1.4000  2.3232
20319SOL     OW61534   4.168   0.304   0.556  0.0954  0.5831 -0.1618
20319SOL    HW161535   4.126   0.335   0.476 -0.3235 -0.0079 -0.1755
20319SOL    HW261536   4.181   0.210   0.541  1.5867  0.7687 -0.2325
20320SOL     OW61537   5.775   5.417   6.738 -0.3194 -0.1478 -0.1873
20320SOL    HW161538   5.752   5.482   6.804 -0.1350 -1.9264  1.7107
20320SOL    HW261539   5.869   5.405   6.748 -0.0927  0.2780 -1.5176
20321SOL     OW61540   7.635   8.958   9.554  0.1749  0.4900  0.4806
20321SOL    HW161541   7.710   8.927   9.605  2.1357  2.7338 -0.8037
20321SOL    HW261542   7.571   8.985   9.619  2.6972  3.5507  2.0177
20322SOL     OW61543   5.421   6.731   2.251 -0.2530  0.5423 -0.0245
20322SOL    HW161544   5.439   6.652   2.302 -1.5665  0.2975  0.1211
20322SOL    HW261545   5.350   6.704   2.192  2.8594 -0.0203 -3.9530
20323SOL     OW61546   7.045   0.327   9.622 -0.0271  0.2962  0.0190
20323SOL    HW161547   7.043   0.244   9.573 -0.4751  0.0572  0.4375
20323SOL    HW261548   7.136   0.356   9.615  1.1338 -2.1217  3.0127
20324SOL     OW61549   2.647   1.440   1.646  0.3331  0.4354 -0.4118
20324SOL    HW161550   2.622   1.382   1.718 -1.1023  0.6813 -0.6905
20324SOL    HW261551   2.639   1.386   1.567 -1.2267  1.0353 -0.6961
20325SOL     OW61552   9.526   6.810   4.136  0.5020  0.2953 -0.1354
20325SOL    HW161553   9.443   6.801   4.181  0.9831 -0.5246  0.6038
20325SOL    HW261554   9.537   6.728   4.087  2.5899 -1.3076  2.7322
20326SOL     OW61555   5.315   9.159   5.602 -0.0776 -0.4747  0.0402
20326SOL    HW161556   5.361   9.162   5.686  0.6442 -0.0321 -0.3649
20326SOL    HW261557   5.232   9.204   5.618  0.4521  0.4280  0.2743
20327SOL     OW61558   0.722   5.087   9.787  0.1773  0.8476 -0.1292
20327SOL    HW161559   0.639   5.125   9.819 -0.0546  2.0021 -1.9895
20327SOL    HW261560   0.765   5.158   9.741  2.3630  0.3261  0.9570
20328SOL     OW61561   3.240   8.552   6.701  0.2414 -0.5081  0.4105
20328SOL    HW161562   3.157   8.570   6.745  0.2318 -0.2844  0.3030
20328SOL    HW261563   3.250   8.457   6.707  0.2007 -0.4888  0.8220
20329SOL     OW61564   0.459   5.553   7.723  0.3609  0.4652 -0.2386
20329SOL    HW161565   0.490   5.464   7.742 -0.3901 -0.2141 -2.0150
20329SOL    HW261566   0.538   5.603   7.704  0.7789  0.1540  0.6375
20330SOL     OW61567   2.477   5.360   5.087 -0.5964  0.3936  0.4527
20330SOL    HW161568   2.486   5.354   5.182 -1.6387  0.3234  0.5570
20330SOL    HW261569   2.535   5.432   5.062 -0.4753  0.5502  1.1625
20331SOL     OW61570   3.170   8.026   4.083 -0.2653  0.1804 -0.0132
20331SOL    HW161571   3.115   8.068   4.017 -1.6572 -2.3604 -0.6015
20331SOL    HW261572   3.199   8.098   4.140  0.8143  2.4494 -3.1649
20332SOL     OW61573   4.220   7.519   6.890 -0.0397  0.4039  0.7272
20332SOL    HW161574   4.189   7.595   6.840  1.1881  0.3327 -0.1906
20332SOL    HW261575   4.176   7.527   6.974 -0.8811  1.4602  0.2213
20333SOL     OW61576   3.410   4.459   9.255  0.2177  0.0503  0.1814
20333SOL    HW161577   3.394   4.543   9.214 -3.0214 -1.1080 -1.2286
20333SOL    HW261578   3.440   4.403   9.184 -1.6691 -0.9766  0.1285
20334SOL     OW61579   9.777   9.748   1.914  0.8075 -0.1142 -0.1800
20334SOL    HW161580   9.769   9.723   1.822 -4.7880  0.2022 -0.1132
20334SOL    HW261581   9.767   9.666   1.962  0.4145  0.1120  0.1306
20335SOL     OW61582   5.915   3.549   3.599 -0.4535 -0.0306  0.4522
20335SOL    HW161583   5.876   3.515   3.680 -0.3813 -0.2802  0.3808
20335SOL    HW261584   5.840   3.571   3.544 -0.5025 -1.4501 -0.0852
20336SOL     OW61585   4.375   5.682   8.499  0.6107  0.0743 -0.0512
20336SOL    HW161586   4.285   5.656   8.482  0.8147  0.2513 -1.5926
20336SOL    HW261587   4.390   5.661   8.591  0.0473 -3.1530 -0.5642
20337SOL     OW61588   9.314   8.136   1.447  0.1353  0.0204  0.7484
20337SOL    HW161589   9.270   8.093   1.373 -0.8826  0.6104  0.9837
20337SOL    HW261590   9.368   8.068   1.487 -1.2537 -0.9882  0.9678
20338SOL     OW61591   9.138   4.880   3.879 -0.0999 -0.0621 -0.0888
20338SOL    HW161592   9.109   4.812   3.819 -2.2866  1.5874 -1.0887
20338SOL    HW261593   9.112   4.849   3.966 -0.4998 -0.7890 -0.4640
20339SOL     OW61594   9.054   0.414   0.712  0.1502  0.1772  0.5537
20339SOL    HW161595   9.117   0.347   0.739  1.1304 -0.2077 -2.2990
20339SOL    HW261596   8.975   0.366   0.691  0.8552 -0.1751 -1.4993
20340SOL     OW61597   6.620   5.680   2.811  0.1379  0.4135  0.2063
20340SOL    HW161598   6.621   5.589   2.783  0.5546  0.7713 -0.9702
20340SOL    HW261599   6.552   5.683   2.878 -0.7329 -0.5025 -0.6139
20341SOL     OW61600   3.991   0.409   5.622 -0.0568 -0.1048 -0.0266
20341SOL    HW161601   4.067   0.356   5.599  1.5125  0.7737  2.6532
20341SOL    HW261602   3.951   0.363   5.696 -1.4766  0.0464 -0.6731
20342SOL     OW61603   7.290   8.539   9.413  0.3624  0.4967 -0.3466
20342SOL    HW161604   7.326   8.620   9.450 -0.9062  0.8198  0.2514
20342SOL    HW261605   7.293   8.477   9.486  2.0159 -0.2338 -1.0140
20343SOL     OW61606   0.719   8.114   7.090  0.2810 -0.4612  0.2644
20343SOL    HW161607   0.787   8.080   7.032  0.3785 -0.3903  0.3383
20343SOL    HW261608   0.644   8.128   7.032  0.1076 -1.1858  0.3010
20344SOL     OW61609   4.888   5.937   7.079  0.3014  0.9385 -0.1289
20344SOL    HW161610   4.897   6.027   7.109  2.1067  0.5004  0.8032
20344SOL    HW261611   4.897   5.884   7.159  1.2779 -0.1202 -0.9089
20345SOL     OW61612   0.787   2.319   9.777  0.3038 -0.6442 -0.1205
20345SOL    HW161613   0.843   2.312   9.700  0.9868 -1.5955  0.4402
20345SOL    HW261614   0.747   2.232   9.786  1.0236 -0.8650  1.1786
20346SOL     OW61615   5.416   7.540   8.899 -0.1813 -0.3922 -0.1406
20346SOL    HW161616   5.343   7.537   8.960 -0.2089  1.3273 -0.0358
20346SOL    HW261617   5.465   7.460   8.915 -0.7932 -0.4855  1.3747
20347SOL     OW61618   3.006   6.984   8.063 -0.2347 -0.8927 -0.4803
20347SOL    HW161619   2.965   6.898   8.062 -0.0118 -1.0039 -0.1136
20347SOL    HW261620   3.099   6.967   8.081 -0.1736 -0.5850 -0.4935
20348SOL     OW61621   2.680   6.653   2.811 -0.1772  0.0983 -0.1883
20348SOL    HW161622   2.642   6.711   2.745 -0.1667  0.9276  0.5173
20348SOL    HW261623   2.773   6.650   2.790 -0.3964 -0.8625 -1.1122
20349SOL     OW61624   7.289   5.412   2.899 -0.7352  0.4747 -0.8074
20349SOL    HW161625   7.266   5.492   2.946  0.9010  0.1331  0.6716
20349SOL    HW261626   7.206   5.381   2.863 -2.0529  0.8996  1.6551
20350SOL     OW61627   8.171   7.331   9.853 -0.6143 -0.1579 -0.1045
20350SOL    HW161628   8.111   7.272   9.808  0.5900 -0.3583 -1.5132
20350SOL    HW261629   8.122   7.413   9.862 -1.5050 -0.6697 -0.1367
20351SOL     OW61630   0.347   4.267   5.670 -0.0631 -0.3055 -0.1446
20351SOL    HW161631   0.260   4.249   5.705 -0.2637  1.1060  0.1430
20351SOL    HW261632   0.335   4.270   5.575 -0.4589  0.5389 -0.0688
20352SOL     OW61633   4.316   3.412   5.923  0.2048 -0.0068 -0.8365
20352SOL    HW161634   4.283   3.349   5.858  0.8287 -0.7965 -0.4068
20352SOL    HW261635   4.358   3.358   5.990 -1.7042  0.6669  1.0170
20353SOL     OW61636   0.340   7.781   2.750  0.5214  0.0168  0.4871
20353SOL    HW161637   0.285   7.711   2.715  0.6533  0.1806 -0.0444
20353SOL    HW261638   0.385   7.818   2.674  0.5904  0.5625  0.7862
20354SOL     OW61639   4.401   1.428   9.508 -0.1859 -0.1631  0.7006
20354SOL    HW161640   4.482   1.451   9.462 -0.1798 -0.5799  0.4959
20354SOL    HW261641   4.426   1.421   9.600  0.3917 -1.9274  0.4543
20355SOL     OW61642   7.371   9.194   7.587 -0.0098  0.0695 -0.5510
20355SOL    HW161643   7.461   9.214   7.611 -0.1104  0.6884 -0.6938
20355SOL    HW261644   7.365   9.098   7.595  0.9416 -0.0842 -1.5277
20356SOL     OW61645   7.789   6.956   4.249 -0.0867 -0.3318 -0.5312
20356SOL    HW161646   7.694   6.965   4.253 -0.1231 -0.3315 -1.2337
20356SOL    HW261647   7.803   6.866   4.223  0.1553 -0.8050  1.1399
20357SOL     OW61648   2.791   1.231   6.302  0.6119 -0.2984  0.4423
20357SOL    HW161649   2.729   1.215   6.231  0.8076 -1.1002  0.4371
20357SOL    HW261650   2.852   1.296   6.267  0.6885 -0.6620 -0.1118
20358SOL     OW61651   2.580   8.086   4.899  0.1107  0.1853 -0.1008
20358SOL    HW161652   2.559   7.996   4.923 -0.1974  0.2313 -0.1973
20358SOL    HW261653   2.663   8.104   4.944  0.7482 -0.5156 -0.9685
20359SOL     OW61654   0.908   1.398   7.318 -0.1388 -0.0810  0.3632
20359SOL    HW161655   0.998   1.403   7.351  0.7188  0.8011 -1.9565
20359SOL    HW261656   0.873   1.486   7.332  0.0939  0.1820 -0.6785
20360SOL     OW61657   2.685   2.359   8.519  0.4016 -0.1632 -0.2376
20360SOL    HW161658   2.611   2.398   8.565  2.0158  2.0888  0.6457
20360SOL    HW261659   2.683   2.398   8.432 -0.5234 -1.6092 -0.9005
20361SOL     OW61660   3.554   4.317   9.041  1.5602  0.0201 -0.0283
20361SOL    HW161661   3.626   4.262   9.070  3.1080 -0.2045 -3.7008
20361SOL    HW261662   3.596   4.392   8.999 -0.1866 -0.5025 -3.0039
20362SOL     OW61663   4.812   4.290   3.095  0.1782 -0.3504 -0.0523
20362SOL    HW161664   4.773   4.314   3.011 -1.1218  1.1327  0.9204
20362SOL    HW261665   4.883   4.229   3.072  0.5725  0.8380 -2.2859
20363SOL     OW61666   8.645   2.289   0.429 -0.2356 -0.2449  0.2286
20363SOL    HW161667   8.667   2.249   0.513  2.6874  1.1037  0.2465
20363SOL    HW261668   8.664   2.382   0.441 -2.4791  0.4570 -1.1365
20364SOL     OW61669   3.904   2.084   2.304 -0.1535 -0.1001  0.1347
20364SOL    HW161670   3.870   2.057   2.218 -0.1833  0.3612  0.0023
20364SOL    HW261671   3.996   2.107   2.287 -0.6229  1.7034 -0.1322
20365SOL     OW61672   4.117   9.616   7.902  0.2056  0.1745 -0.1577
20365SOL    HW161673   4.074   9.532   7.917  2.4324 -0.5973  2.6520
20365SOL    HW261674   4.048   9.681   7.919 -0.6444 -1.0531  1.4037
20366SOL     OW61675   1.611   0.745   9.974  0.2673  0.3526 -0.6814
20366SOL    HW161676   1.685   0.735  10.035 -3.6699 -1.6577  4.5505
20366SOL    HW261677   1.608   0.662   9.927  0.5964 -0.0904  0.0618
20367SOL     OW61678   7.633   0.388   1.495  0.0962 -0.2356 -0.1208
20367SOL    HW161679   7.624   0.337   1.576 -0.2398 -2.2986 -1.3800
20367SOL    HW261680   7.543   0.413   1.472  0.2289  0.6951  0.3232
20368SOL     OW61681   3.059   0.165   7.878 -0.0248  0.1389 -0.3577
20368SOL    HW161682   3.009   0.084   7.878 -1.5505  0.9989 -2.0570
20368SOL    HW261683   3.113   0.160   7.798 -0.1009  0.7647 -0.4541
20369SOL     OW61684   9.276   6.610   6.954  0.1668  0.7704 -0.2767
20369SOL    HW161685   9.218   6.661   6.898 -0.2269  0.3195 -0.2848
20369SOL    HW261686   9.223   6.534   6.980  1.4897 -0.8988 -2.1716
20370SOL     OW61687   8.409   3.687   5.916 -0.3710  0.3837  0.4927
20370SOL    HW161688   8.342   3.712   5.852 -1.0646 -0.9931  0.6493
20370SOL    HW261689   8.379   3.726   5.998 -1.1606 -0.4923  0.6287
20371SOL     OW61690   0.209   7.212   7.328  0.6710  0.3228  0.1139
20371SOL    HW161691   0.173   7.148   7.388 -0.2779  0.1841 -0.5782
20371SOL    HW261692   0.271   7.263   7.380  2.5304 -2.0225  0.3536
20372SOL     OW61693   1.520   4.418   2.093 -0.8724 -0.4497  0.0529
20372SOL    HW161694   1.574   4.378   2.025 -0.9249  1.6703 -1.3176
20372SOL    HW261695   1.568   4.401   2.174  0.0854 -1.5618 -0.7113
20373SOL     OW61696   1.794   8.270   0.757  0.7098  0.2027 -0.5255
20373SOL    HW161697   1.840   8.316   0.687  0.4184 -1.4170 -1.8354
20373SOL    HW261698   1.731   8.214   0.712 -1.6126  1.2870  1.1464
20374SOL     OW61699   7.225   0.446   7.729 -0.0102  0.3029 -0.4236
20374SOL    HW161700   7.163   0.404   7.788 -0.2258 -1.3191 -1.7280
20374SOL    HW261701   7.294   0.381   7.716 -0.0364  0.5415 -2.0353
20375SOL     OW61702   1.758   5.399   5.156 -0.4468  0.6682  0.4596
20375SOL    HW161703   1.761   5.303   5.160 -2.8613  0.5720  1.5147
20375SOL    HW261704   1.850   5.426   5.161  0.3058 -1.5786 -0.0660
20376SOL     OW61705   6.691   0.782   3.326 -0.0678 -0.0556 -0.3589
20376SOL    HW161706   6.745   0.715   3.368  0.2219  0.1704 -0.3637
20376SOL    HW261707   6.739   0.806   3.247 -0.2473  0.0446 -0.4389
20377SOL     OW61708   4.450   9.635   1.651 -0.3426 -0.3375 -0.1654
20377SOL    HW161709   4.515   9.682   1.598  0.0326 -0.5032  0.1381
20377SOL    HW261710   4.500   9.602   1.725 -0.7226 -0.7141 -0.0744
20378SOL     OW61711   3.982   4.978   8.753 -0.2941  0.1316  0.0962
20378SOL    HW161712   4.030   5.025   8.821  1.3878  1.6303 -2.0020
20378SOL    HW261713   4.022   4.891   8.752  0.9925  0.7105 -0.2419
20379SOL     OW61714   0.586   8.143   2.940 -0.6439  0.4051 -0.1963
20379SOL    HW161715   0.579   8.107   2.851 -0.2832 -2.2112  0.7229
20379SOL    HW261716   0.497   8.169   2.963 -1.3630 -1.6679 -0.3482
20380SOL     OW61717   0.793   3.013   7.995  0.2044  0.5727  0.2131
20380SOL    HW161718   0.777   3.019   7.901  0.7647 -0.2867  0.0511
20380SOL    HW261719   0.885   2.990   8.002  0.6474  2.4571  1.0458
20381SOL     OW61720   7.460   9.000   4.679  0.2328  0.0068  0.2957
20381SOL    HW161721   7.402   8.968   4.609 -2.1800  1.2391  1.6111
20381SOL    HW261722   7.490   8.921   4.723 -1.2128 -0.6641  0.1361
20382SOL     OW61723   1.135   3.492   5.158  0.0158  0.3939  0.4294
20382SOL    HW161724   1.119   3.431   5.230  0.9319  1.2202  1.3637
20382SOL    HW261725   1.071   3.562   5.171 -0.8967 -0.2421 -0.5207
20383SOL     OW61726   9.522   3.459   2.836  0.5915  0.1693  0.0196
20383SOL    HW161727   9.597   3.454   2.776  1.0669 -2.0322  0.7054
20383SOL    HW261728   9.559   3.436   2.921 -0.3592  1.8407  0.9374
20384SOL     OW61729   6.240   0.931   9.554 -0.4878 -0.1606 -0.0561
20384SOL    HW161730   6.180   0.999   9.583  0.5458 -0.1267  2.2540
20384SOL    HW261731   6.195   0.849   9.575  1.1112 -0.1964  4.2077
20385SOL     OW61732   5.945   6.505   4.554  0.1964  0.4908 -0.3003
20385SOL    HW161733   5.898   6.437   4.603 -0.1873  0.0137 -1.2967
20385SOL    HW261734   5.981   6.563   4.622  0.1956 -0.4780  0.5634
20386SOL     OW61735   6.974   4.830   9.492  0.1113  0.0561 -0.3361
20386SOL    HW161736   6.897   4.878   9.523  0.5899  0.4925  0.1935
20386SOL    HW261737   7.008   4.786   9.570 -0.5700 -1.5473 -0.8837
20387SOL     OW61738   5.781   7.989   4.908 -0.6257 -0.0945  0.2093
20387SOL    HW161739   5.805   7.986   4.816 -0.8664 -0.5875  0.1573
20387SOL    HW261740   5.774   7.897   4.934 -2.6235 -0.0049  0.1583
20388SOL     OW61741   0.355   5.531   5.319  0.1546  0.4252 -0.0819
20388SOL    HW161742   0.430   5.501   5.269  0.7002  1.5140  0.0412
20388SOL    HW261743   0.287   5.549   5.254 -0.3528 -1.4654 -0.1156
20389SOL     OW61744   9.423   4.310   4.291  0.3816 -0.0155  0.6057
20389SOL    HW161745   9.342   4.261   4.279  0.1148  0.6896 -0.7101
20389SOL    HW261746   9.488   4.260   4.242  0.1637  0.7583 -0.5194
20390SOL     OW61747   8.206   4.220   5.335  0.5325 -0.7311 -0.2969
20390SOL    HW161748   8.273   4.285   5.315  1.0273 -0.9374  0.6203
20390SOL    HW261749   8.206   4.214   5.430 -0.1654 -1.3898 -0.3243
20391SOL     OW61750   0.258   3.231   4.070 -0.2678 -0.1637 -0.1229
20391SOL    HW161751   0.299   3.259   4.151 -1.0819  0.3858  0.1146
20391SOL    HW261752   0.250   3.310   4.017  1.7393 -0.7747 -1.4525
20392SOL     OW61753   6.165   3.093   9.201  0.1430 -0.0782  0.1981
20392SOL    HW161754   6.188   3.049   9.119  1.8015  1.7455 -0.4026
20392SOL    HW261755   6.092   3.151   9.177 -0.2012 -0.4645  0.3136
20393SOL     OW61756   4.606   1.691   2.251 -0.0911 -0.1760  0.2953
20393SOL    HW161757   4.541   1.711   2.184 -0.2763  1.9999  1.0710
20393SOL    HW261758   4.688   1.726   2.218  0.1756 -0.6153  0.4681
20394SOL     OW61759   7.557   6.660   9.166  0.3591  0.0338 -1.2496
20394SOL    HW161760   7.571   6.579   9.215  0.5236 -0.1163 -1.5378
20394SOL    HW261761   7.625   6.659   9.098  2.1936  1.7603  0.4266
20395SOL     OW61762   7.858   5.030   3.650 -0.3146  0.6453  0.2755
20395SOL    HW161763   7.869   4.941   3.616  0.2162  0.2476  1.4342
20395SOL    HW261764   7.786   5.022   3.713  0.2447  0.8473  0.9613
20396SOL     OW61765   4.059   0.447   2.005 -0.5317  0.8642  0.2452
20396SOL    HW161766   4.007   0.404   1.937 -0.2861  0.8252  0.0840
20396SOL    HW261767   3.997   0.460   2.077 -0.5858  0.1325  0.3457
20397SOL     OW61768   2.801   4.725   6.608 -0.1514  0.2034 -0.0220
20397SOL    HW161769   2.872   4.671   6.643  0.1468 -0.1833 -1.1815
20397SOL    HW261770   2.823   4.814   6.634 -0.1742 -0.1135  1.1393
20398SOL     OW61771   2.891   0.661   3.500  0.6968 -0.0422  0.2661
20398SOL    HW161772   2.800   0.683   3.515  1.1466  0.3985  2.7408
20398SOL    HW261773   2.893   0.624   3.412 -1.3455  2.7265 -1.0755
20399SOL     OW61774   7.474   1.188   3.546  0.0211  0.3818 -0.5040
20399SOL    HW161775   7.506   1.263   3.597  1.3757 -1.4477  1.5061
20399SOL    HW261776   7.430   1.133   3.610  0.7107 -1.4395 -1.5295
20400SOL     OW61777   5.707   4.716   8.134  0.3039 -0.3261 -0.3229
20400SOL    HW161778   5.698   4.666   8.053  0.9277  0.4749 -0.9082
20400SOL    HW261779   5.731   4.804   8.105 -1.8779  0.6519  0.6098
20401SOL     OW61780   0.926   3.998   7.398  0.1915 -0.5313 -0.3450
20401SOL    HW161781   0.841   4.006   7.355  0.5995 -1.5829 -1.4148
20401SOL    HW261782   0.960   4.087   7.402 -1.2128 -0.0126  0.6648
20402SOL     OW61783   0.665   6.192   2.309  0.0307  0.2720  0.0247
20402SOL    HW161784   0.721   6.186   2.386 -1.4625  0.7434  1.2041
20402SOL    HW261785   0.580   6.158   2.339 -1.3574  2.9544 -0.5804
20403SOL     OW61786   7.495   4.232   3.863 -0.4186 -0.2198  0.7774
20403SOL    HW161787   7.466   4.165   3.925 -0.6678 -0.8421  0.0075
20403SOL    HW261788   7.542   4.183   3.796 -0.3151  0.4201  0.3744
20404SOL     OW61789   6.282   7.186   5.077  0.0233  0.0799 -0.3018
20404SOL    HW161790   6.244   7.235   5.150 -1.0724 -1.3782  0.1484
20404SOL    HW261791   6.376   7.195   5.088 -0.0243 -1.6462  2.4507
20405SOL     OW61792   2.105   1.811   6.651 -0.2127  0.3282  0.4942
20405SOL    HW161793   2.182   1.867   6.650  0.9251 -1.1689 -0.9332
20405SOL    HW261794   2.093   1.787   6.743  0.0011  1.8701  0.9540
20406SOL     OW61795   3.320   3.481   4.516 -0.0554 -0.3751  0.3376
20406SOL    HW161796   3.228   3.484   4.491 -0.5588  1.2061  2.1088
20406SOL    HW261797   3.360   3.553   4.466  0.1678 -0.8369 -0.1621
20407SOL     OW61798   0.370   5.187   2.636  0.1545 -0.2066  0.0930
20407SOL    HW161799   0.398   5.255   2.698 -1.4753 -0.1554  0.8150
20407SOL    HW261800   0.302   5.229   2.583  0.0972 -0.8772 -0.3831
20408SOL     OW61801   1.448   1.896   3.180 -0.1429  0.0552 -0.0933
20408SOL    HW161802   1.451   1.913   3.086 -0.8416  1.2923  0.0919
20408SOL    HW261803   1.384   1.958   3.214 -0.4597 -0.8810  1.1028
20409SOL     OW61804   7.171   3.775   9.935 -0.3105 -1.0260  0.1570
20409SOL    HW161805   7.162   3.812  10.023 -1.5115 -0.8741 -0.0138
20409SOL    HW261806   7.130   3.689   9.941  0.0225 -1.2058 -0.1337
20410SOL     OW61807   9.919   5.179   4.992 -0.8120 -0.1504  0.5196
20410SOL    HW161808   9.990   5.196   4.930  0.5499 -1.7575  1.5347
20410SOL    HW261809   9.927   5.247   5.059 -3.5572  2.8917 -1.8935
20411SOL     OW61810   9.189   3.077   2.960  0.6700  0.2231  0.5054
20411SOL    HW161811   9.250   3.150   2.971  0.7368  0.2016  0.2790
20411SOL    HW261812   9.235   3.001   2.998  0.1839  0.4977  1.6882
20412SOL     OW61813   6.787   4.315   2.407 -0.3406  0.5608  0.0370
20412SOL    HW161814   6.754   4.377   2.342  0.9079  1.5782  0.3157
20412SOL    HW261815   6.856   4.267   2.361 -1.7381 -1.1570 -0.3807
20413SOL     OW61816   5.038   9.374   4.946  0.0458  0.5688  0.0578
20413SOL    HW161817   4.949   9.344   4.927  0.2741  0.4426 -0.8805
20413SOL    HW261818   5.092   9.330   4.880  0.5608  2.0169 -0.5233
20414SOL     OW61819   3.029   2.767   7.817  0.7036 -0.3570  0.2250
20414SOL    HW161820   3.098   2.702   7.811  0.7117 -0.2266 -1.2687
20414SOL    HW261821   2.951   2.717   7.842  0.6327 -1.0200 -1.2282
20415SOL     OW61822   0.096   7.847   5.181 -0.1429  0.2703 -0.5230
20415SOL    HW161823   0.093   7.885   5.268 -0.0530 -0.6135 -0.1215
20415SOL    HW261824   0.171   7.889   5.139  2.8242 -2.5184  1.4396
20416SOL     OW61825   1.659   9.219   0.506 -0.1189  0.1913  0.3818
20416SOL    HW161826   1.715   9.284   0.548  0.8525 -0.3102 -0.1134
20416SOL    HW261827   1.655   9.146   0.568  0.4249 -0.0954  0.0870
20417SOL     OW61828   9.723   4.576   6.412 -0.1807  0.1183 -0.0451
20417SOL    HW161829   9.805   4.547   6.372  0.1893  1.3744 -0.2461
20417SOL    HW261830   9.710   4.515   6.485  1.1500  0.1285  0.2405
20418SOL     OW61831   2.554   4.752   4.256  0.1450 -0.4409  0.3132
20418SOL    HW161832   2.479   4.764   4.198  0.2846 -0.1483  0.1917
20418SOL    HW261833   2.614   4.697   4.205 -1.0669 -2.9250  1.3731
20419SOL     OW61834   2.433   2.284   8.935 -0.0725 -0.6978  0.0240
20419SOL    HW161835   2.407   2.335   9.011  1.0821  0.4906 -0.3406
20419SOL    HW261836   2.406   2.194   8.955  0.1061 -0.3887  1.7642
20420SOL     OW61837   8.425   2.354   1.817 -0.2699  0.3539 -0.1292
20420SOL    HW161838   8.344   2.400   1.839 -0.2622  0.6757 -0.7484
20420SOL    HW261839   8.396   2.275   1.771 -0.2456  0.3926 -0.2127
20421SOL     OW61840   3.820   7.897   5.624  0.8300 -0.1182 -0.2017
20421SOL    HW161841   3.861   7.893   5.711  0.7067  0.6888 -0.1057
20421SOL    HW261842   3.763   7.820   5.621  1.1479 -0.3762  0.2725
20422SOL     OW61843   3.791   1.855   8.062 -0.2384  0.5560  0.5468
20422SOL    HW161844   3.700   1.823   8.059 -0.3640  0.9226  0.4473
20422SOL    HW261845   3.794   1.911   8.139  0.0290  0.1809  0.8167
20423SOL     OW61846   3.495   1.355   3.588  0.1702  0.0078 -0.2971
20423SOL    HW161847   3.439   1.356   3.665 -1.3279  1.5429 -1.3067
20423SOL    HW261848   3.439   1.322   3.518  1.4666 -1.2756 -0.7693
20424SOL     OW61849   2.714   2.514   1.688  0.1982 -0.7433 -0.0178
20424SOL    HW161850   2.804   2.492   1.667  0.2224 -1.6055  0.9263
20424SOL    HW261851   2.677   2.544   1.605  1.1671 -0.9973 -0.5559
20425SOL     OW61852   1.532   1.393   0.055 -0.1848  0.0906  0.1451
20425SOL    HW161853   1.456   1.347   0.021  0.3589  1.1057 -2.7179
20425SOL    HW261854   1.607   1.345   0.020  0.3990  1.9077 -1.3063
20426SOL     OW61855   1.844   3.466   1.444  0.3109 -0.2872  0.0296
20426SOL    HW161856   1.809   3.415   1.370 -0.4968  0.4132 -0.0859
20426SOL    HW261857   1.777   3.531   1.461  0.7053 -0.1532  1.1002
20427SOL     OW61858   7.024   4.875   3.370  0.4004  0.3735  0.6538
20427SOL    HW161859   6.972   4.855   3.447  0.1311 -0.4304  0.2675
20427SOL    HW261860   7.000   4.808   3.306 -0.9725  2.2329 -0.9053
20428SOL     OW61861   6.461   6.432   3.324  0.2360  0.2433  0.9391
20428SOL    HW161862   6.398   6.492   3.363 -1.0741 -1.5444  1.7345
20428SOL    HW261863   6.500   6.387   3.398 -0.8041 -1.7628  0.3519
20429SOL     OW61864   4.631   4.086   0.607  0.2460  0.1177  0.7561
20429SOL    HW161865   4.587   4.074   0.523  0.4027 -1.3548  0.8588
20429SOL    HW261866   4.713   4.129   0.586  1.0834 -1.7830 -0.1085
20430SOL     OW61867   7.376   9.890   1.198  0.6049 -0.0116  0.4946
20430SOL    HW161868   7.439   9.823   1.170  0.0354  0.4331 -2.0463
20430SOL    HW261869   7.295   9.841   1.214  0.6955 -0.1601  0.5038
20431SOL     OW61870   9.762   1.145   5.626  0.0085  0.4117  0.1184
20431SOL    HW161871   9.687   1.120   5.571 -0.3053  1.3010  0.1364
20431SOL    HW261872   9.772   1.239   5.612 -0.0820  0.6573  1.5911
20432SOL     OW61873   7.869   2.571   4.558 -0.7891  0.4633  0.0833
20432SOL    HW161874   7.900   2.488   4.592  2.7490  1.7422  0.3720
20432SOL    HW261875   7.815   2.607   4.629  0.4342 -0.1370  1.3779
20433SOL     OW61876   2.737   3.863   2.020  0.0238 -0.1980  0.0351
20433SOL    HW161877   2.661   3.826   1.976  0.0793 -0.2106 -0.0512
20433SOL    HW261878   2.740   3.954   1.989  1.5320 -0.8483 -2.0204
20434SOL     OW61879   9.945   2.701   5.474  0.7207  0.1453 -0.4000
20434SOL    HW161880   9.906   2.776   5.518  0.4393  0.5128 -1.2578
20434SOL    HW261881   9.911   2.625   5.522  1.7447  0.5806  1.0559
20435SOL     OW61882   0.671   9.721   7.251 -0.3760  0.5392 -0.1820
20435SOL    HW161883   0.690   9.806   7.289  0.0562  1.3938 -2.1693
20435SOL    HW261884   0.748   9.700   7.199 -0.9819 -0.4741 -0.7017
20436SOL     OW61885   3.267   3.777   4.691  0.2557 -0.1171  0.3934
20436SOL    HW161886   3.312   3.697   4.717  0.8820 -0.1018 -0.6217
20436SOL    HW261887   3.334   3.830   4.648  0.1614  1.5093  2.1250
20437SOL     OW61888   6.863   2.665   9.686  0.6719  0.0318 -0.2440
20437SOL    HW161889   6.949   2.654   9.725  1.0641 -0.1990 -1.1688
20437SOL    HW261890   6.840   2.756   9.705  0.9792  0.0080  0.2660
20438SOL     OW61891   9.446   7.588   9.501 -0.3313 -0.0585  0.0649
20438SOL    HW161892   9.505   7.656   9.470  0.0036 -0.5573 -0.4095
20438SOL    HW261893   9.483   7.506   9.468 -1.3421 -0.3748 -0.3401
20439SOL     OW61894   1.059   6.186   0.481  0.8859  0.0850 -0.4009
20439SOL    HW161895   1.064   6.098   0.444  0.0168  0.0158 -0.3843
20439SOL    HW261896   1.067   6.173   0.575 -1.1045 -0.1979 -0.2318
20440SOL     OW61897   6.760   8.082   1.267  0.8973  0.4937  0.1192
20440SOL    HW161898   6.692   8.112   1.326 -0.7282 -1.9126 -0.3885
20440SOL    HW261899   6.736   8.120   1.182  0.7874  0.4740  0.1414
20441SOL     OW61900   5.812   5.797   6.519  0.2948  0.2283  0.1981
20441SOL    HW161901   5.761   5.875   6.540  0.1130 -0.1142  1.0892
20441SOL    HW261902   5.748   5.734   6.488  0.5265  0.6350 -1.1629
20442SOL     OW61903   8.958   6.748   0.302 -0.1831  0.0160  0.2185
20442SOL    HW161904   8.913   6.665   0.319 -5.3955  2.2013 -1.1179
20442SOL    HW261905   8.968   6.788   0.388 -1.7272 -0.1783  0.5143
20443SOL     OW61906   3.201   3.230   0.975  0.0662  0.2566 -0.1684
20443SOL    HW161907   3.169   3.222   0.885 -1.4735  1.6823  0.1981
20443SOL    HW261908   3.180   3.321   1.000  3.6849  1.0999  0.4314
20444SOL     OW61909   1.481   0.943   0.819 -0.2692 -0.2918 -0.6371
20444SOL    HW161910   1.546   0.910   0.756 -0.0454 -1.1045  0.0033
20444SOL    HW261911   1.406   0.969   0.764  0.0554 -0.6593 -1.2692
20445SOL     OW61912   9.308   6.252   5.886  0.2548 -0.0140 -0.4043
20445SOL    HW161913   9.285   6.340   5.856 -2.2383  0.5478  2.6771
20445SOL    HW261914   9.392   6.263   5.931  0.1572  0.7010 -0.3815
20446SOL     OW61915   7.601   4.898   5.605  0.2368  0.4051  0.3360
20446SOL    HW161916   7.665   4.968   5.590  0.5918  0.0873  0.3582
20446SOL    HW261917   7.517   4.938   5.584  0.5017  0.6555 -0.2758
20447SOL     OW61918   8.599   5.126   8.027  0.1782  0.4028  0.6873
20447SOL    HW161919   8.535   5.054   8.027 -1.0057  1.2310 -3.0481
20447SOL    HW261920   8.683   5.084   8.044 -0.7549 -1.5117  0.8079
20448SOL     OW61921   3.062   0.783   1.396 -0.3664 -0.4382  0.0819
20448SOL    HW161922   3.001   0.854   1.376  0.2800 -0.0602 -0.5870
20448SOL    HW261923   3.058   0.775   1.491  0.8048  1.6788  0.3918
20449SOL     OW61924   2.358   3.834   3.960 -0.5993  0.1744  0.4452
20449SOL    HW161925   2.265   3.843   3.978 -0.5917 -0.0667  0.6083
20449SOL    HW261926   2.369   3.869   3.872 -0.8987 -0.1142  0.2911
20450SOL     OW61927   6.022   6.833   4.565 -0.3244 -0.0234  0.0075
20450SOL    HW161928   5.926   6.836   4.565 -0.3019  1.6276  0.5289
20450SOL    HW261929   6.044   6.782   4.642 -0.7580 -3.4743 -1.9563
20451SOL     OW61930   9.943   2.328   6.376 -0.6145  0.2257 -0.0880
20451SOL    HW161931  10.017   2.308   6.319  1.2449 -1.6126  2.6940
20451SOL    HW261932   9.944   2.424   6.385  2.0871  0.1961  0.6043
20452SOL     OW61933   0.632   5.019   5.319  0.1504 -0.0948  0.1129
20452SOL    HW161934   0.677   4.996   5.238  0.6076  0.3853  0.2318
20452SOL    HW261935   0.651   5.111   5.332 -0.9022  0.1365  0.1445
20453SOL     OW61936   5.746   0.720   9.050  0.1549 -0.4365  0.3329
20453SOL    HW161937   5.759   0.782   8.978  1.1104  0.8115  1.5273
20453SOL    HW261938   5.651   0.711   9.056  0.0760 -0.9488 -1.3861
20454SOL     OW61939   8.281   4.021   8.873  0.5334  0.1325 -0.2504
20454SOL    HW161940   8.285   4.036   8.779 -0.3886 -0.1533 -0.3452
20454SOL    HW261941   8.247   3.933   8.882 -0.0979  0.4290  0.3568
20455SOL     OW61942   1.238   6.801   3.310 -0.1624 -0.1870 -0.1081
20455SOL    HW161943   1.298   6.744   3.359  0.1054  1.2285  1.2963
20455SOL    HW261944   1.172   6.741   3.273  0.2924 -1.4357  1.0363
20456SOL     OW61945   4.941   0.587   2.985 -0.9134 -0.4453  0.2512
20456SOL    HW161946   4.896   0.576   2.901  0.9512 -2.4169 -0.5836
20456SOL    HW261947   5.013   0.647   2.966 -0.2749 -1.1718  0.3057
20457SOL     OW61948   7.736   7.909   9.479  0.0194 -0.1090 -0.2476
20457SOL    HW161949   7.800   7.878   9.414 -1.1930 -1.4104 -0.8685
20457SOL    HW261950   7.764   7.998   9.498  0.8932  0.0432 -1.9676
20458SOL     OW61951   8.778   3.653   9.890  0.2608 -0.1743 -0.8215
20458SOL    HW161952   8.691   3.625   9.860  0.5920  0.6026 -2.6347
20458SOL    HW261953   8.772   3.652   9.986 -2.3048  1.5168 -0.8885
20459SOL     OW61954   3.451   4.681   5.247  0.5952  0.0563  0.1357
20459SOL    HW161955   3.407   4.617   5.304 -0.0812  0.8818  0.5583
20459SOL    HW261956   3.380   4.722   5.198  0.8742  1.3735  0.7965
20460SOL     OW61957   9.191   7.953   0.198  0.2839 -0.3676  0.2523
20460SOL    HW161958   9.102   7.947   0.231 -0.2445  1.5302 -0.6619
20460SOL    HW261959   9.197   7.884   0.132 -0.8923  0.1748 -0.4529
20461SOL     OW61960   1.357   2.897   8.599 -0.2580 -0.0063 -0.3703
20461SOL    HW161961   1.272   2.883   8.642 -0.0848 -1.9006 -0.5882
20461SOL    HW261962   1.420   2.899   8.671 -0.4984  1.8197 -0.1719
20462SOL     OW61963   1.661   5.329   8.101  0.3281  0.3442  0.4934
20462SOL    HW161964   1.642   5.254   8.044  1.2702  1.0828 -0.8426
20462SOL    HW261965   1.681   5.290   8.186 -2.5207 -0.7158  0.7834
20463SOL     OW61966   3.953   5.291   5.215  0.2233  0.5884 -0.4481
20463SOL    HW161967   3.892   5.226   5.178 -0.2135  1.5007 -1.3821
20463SOL    HW261968   3.935   5.288   5.310  0.4791 -0.9026 -0.4146
20464SOL     OW61969   6.920   4.698   2.338  0.3245 -0.0266  0.2300
20464SOL    HW161970   6.930   4.610   2.301 -0.7371  0.4238 -1.2325
20464SOL    HW261971   6.879   4.749   2.268 -2.3466  0.7562  2.1779
20465SOL     OW61972   3.481   1.886   1.249 -0.1490  0.4843 -0.1053
20465SOL    HW161973   3.448   1.872   1.160 -1.8444  0.6801  0.4517
20465SOL    HW261974   3.551   1.950   1.239  0.8348 -0.7253 -1.4768
20466SOL     OW61975   3.505   6.052   9.740  1.0749 -0.1081 -0.0826
20466SOL    HW161976   3.587   6.100   9.754  1.1625  0.0706 -1.1230
20466SOL    HW261977   3.524   5.964   9.772  0.8497  0.5625  2.0086
20467SOL     OW61978   8.881   7.279   3.069  0.3556 -0.4833 -0.1687
20467SOL    HW161979   8.791   7.307   3.083 -0.3706 -1.6921 -1.9961
20467SOL    HW261980   8.879   7.184   3.085  1.0801 -0.6613 -1.0138
20468SOL     OW61981   9.419   1.700   1.509 -0.2153 -0.1879  0.1231
20468SOL    HW161982   9.425   1.615   1.553  1.1252 -1.0079 -1.5371
20468SOL    HW261983   9.364   1.683   1.432 -1.0697  0.8009  0.4915
20469SOL     OW61984   7.061   4.847   3.826  0.3929 -0.2009 -0.6691
20469SOL    HW161985   7.074   4.798   3.745  2.8905  1.8412 -1.6508
20469SOL    HW261986   7.038   4.935   3.796  0.3869  0.3407  0.8623
20470SOL     OW61987   2.764   6.097   5.908 -0.3194 -0.0618 -0.0188
20470SOL    HW161988   2.739   6.023   5.964  2.0585 -0.8722  0.0855
20470SOL    HW261989   2.785   6.056   5.824 -1.3699  0.8445 -0.7551
20471SOL     OW61990   3.483   3.739   5.869 -0.1461  0.7502  0.7343
20471SOL    HW161991   3.534   3.715   5.793  0.7962 -0.2642  1.6644
20471SOL    HW261992   3.413   3.674   5.874 -0.8267  1.4100  0.1825
20472SOL     OW61993   7.158   3.902   9.139  0.5202 -0.3355 -0.1846
20472SOL    HW161994   7.093   3.877   9.073  0.9172  1.2022 -1.2076
20472SOL    HW261995   7.106   3.925   9.216  0.1245 -4.9781  1.2344
20473SOL     OW61996   8.863   5.040   7.765  0.0473  0.1517  0.1869
20473SOL    HW161997   8.769   5.059   7.761  0.3072  1.4095 -0.9650
20473SOL    HW261998   8.890   5.036   7.673  0.9820 -1.0460  0.4880
20474SOL     OW61999   8.651   4.133   1.628  0.1235 -0.4394  0.3506
20474SOL    HW162000   8.585   4.064   1.618  0.4030 -0.5152 -1.2456
20474SOL    HW262001   8.729   4.098   1.584  1.0056 -0.0113  1.4934
20475SOL     OW62002   1.229   2.473   5.905  0.4748  0.0812 -0.3019
20475SOL    HW162003   1.275   2.463   5.822  0.5841  0.4476 -0.2898
20475SOL    HW262004   1.140   2.499   5.880  0.3082 -0.5012 -0.3222
20476SOL     OW62005   7.989   0.008   7.954 -0.1424 -0.3575  0.7130
20476SOL    HW162006   7.947   0.087   7.986 -1.1698 -1.6985  2.8587
20476SOL    HW262007   8.061  -0.008   8.015 -1.0468 -2.0076  1.4041
20477SOL     OW62008   4.242   1.241   2.528  0.3219 -0.1609  0.6606
20477SOL    HW162009   4.245   1.333   2.505 -1.7610 -0.1760  0.1469
20477SOL    HW262010   4.333   1.217   2.546  0.9499  1.8492  0.3204
20478SOL     OW62011   5.743   5.492   0.838 -0.1845  0.0936 -0.2988
20478SOL    HW162012   5.835   5.475   0.818  0.1057  0.2346  0.8189
20478SOL    HW262013   5.722   5.573   0.791  0.6617  0.7855  0.4763
20479SOL     OW62014   7.384   6.331   8.782 -0.0171 -0.0657 -0.3048
20479SOL    HW162015   7.399   6.237   8.776 -0.2437 -0.4322  3.1747
20479SOL    HW262016   7.290   6.341   8.794 -0.2428  0.8017 -2.3765
20480SOL     OW62017   4.495   6.011   4.362  0.4767 -0.2779  0.3655
20480SOL    HW162018   4.497   5.971   4.275  1.1239  0.2672  0.1288
20480SOL    HW262019   4.404   6.041   4.371  0.8372  1.2883 -0.8714
20481SOL     OW62020   9.002   1.796   2.030 -0.1941 -0.7728  0.0685
20481SOL    HW162021   8.949   1.870   2.060 -1.0757 -0.6347 -1.7243
20481SOL    HW262022   8.995   1.732   2.101 -1.6817 -0.2351  0.4406
20482SOL     OW62023   6.341   7.307   5.820 -0.6640  0.4221 -0.3036
20482SOL    HW162024   6.394   7.232   5.849 -0.1004  0.1653 -1.8621
20482SOL    HW262025   6.253   7.287   5.851 -0.7167 -1.3809 -1.3994
20483SOL     OW62026   3.325   4.262   9.425 -0.2740 -0.4637 -0.1785
20483SOL    HW162027   3.311   4.196   9.358 -1.4498 -0.0875 -0.3245
20483SOL    HW262028   3.338   4.344   9.377  0.2254 -0.4193  0.0239
20484SOL     OW62029   2.994   5.244   3.927  0.4864  0.0672  0.0411
20484SOL    HW162030   3.059   5.239   3.998  0.0226 -0.6436  0.4299
20484SOL    HW262031   2.974   5.153   3.907  0.6926  0.2626 -1.0989
20485SOL     OW62032   5.635   2.251   4.104  0.3004  0.1857  0.0685
20485SOL    HW162033   5.546   2.235   4.137  0.0846  1.7911  0.3753
20485SOL    HW262034   5.686   2.176   4.133 -0.4931  0.2611  1.7715
20486SOL     OW62035   7.009   2.645   7.218 -0.6019 -0.5177 -0.0961
20486SOL    HW162036   7.084   2.603   7.262 -0.6592 -1.4831 -0.8888
20486SOL    HW262037   6.998   2.595   7.137 -1.4484  0.2867 -0.4892
20487SOL     OW62038   3.865   3.686   6.077 -0.3090 -0.2465 -0.0808
20487SOL    HW162039   3.793   3.623   6.068 -0.4728 -0.2315  1.0063
20487SOL    HW262040   3.885   3.686   6.170  1.6983 -0.8854 -0.4813
20488SOL     OW62041   2.892   4.970   3.966 -0.7643 -0.0930 -0.3910
20488SOL    HW162042   2.836   5.034   4.010  0.7245  1.4607 -0.6502
20488SOL    HW262043   2.894   4.895   4.025 -2.8777 -0.0975 -0.2649
20489SOL     OW62044   9.675   5.260   1.935  0.1282 -0.6260  0.0424
20489SOL    HW162045   9.672   5.337   1.992  1.6883 -0.3164 -0.2419
20489SOL    HW262046   9.593   5.214   1.952 -1.6985  1.9808 -1.0373
20490SOL     OW62047   3.376   8.649   8.335 -0.0838 -0.0822 -0.2597
20490SOL    HW162048   3.391   8.561   8.371  0.0878  0.2324  0.4523
20490SOL    HW262049   3.454   8.698   8.360 -0.8657  0.7019  0.6996
20491SOL     OW62050   7.839   3.294   2.802  0.1224 -0.3922  0.1355
20491SOL    HW162051   7.873   3.324   2.717 -0.0093  3.7586  1.3166
20491SOL    HW262052   7.746   3.314   2.798  0.3973  1.5679  1.7566
20492SOL     OW62053   4.748   7.986   8.732  0.2639 -0.6829  0.6745
20492SOL    HW162054   4.702   7.904   8.717 -3.1009  1.1130 -0.0879
20492SOL    HW262055   4.715   8.017   8.817  0.3575  0.5096  0.2978
20493SOL     OW62056   7.156   8.933   7.479 -0.5478 -0.3694  0.2739
20493SOL    HW162057   7.111   9.014   7.504  0.1994 -0.4237  1.9301
20493SOL    HW262058   7.168   8.886   7.562  0.5655 -1.3756 -0.4282
20494SOL     OW62059   5.910   8.626   1.148  0.3264  0.2085  0.2131
20494SOL    HW162060   5.958   8.689   1.094  1.3325 -1.0834 -0.4523
20494SOL    HW262061   5.824   8.620   1.107  1.1538 -0.9387 -1.4697
20495SOL     OW62062   7.927   6.353   0.898 -0.0342 -0.2984  0.0306
20495SOL    HW162063   7.981   6.409   0.954 -0.4744 -0.6659  0.8401
20495SOL    HW262064   7.947   6.381   0.808 -0.0022  0.9215  0.4062
20496SOL     OW62065   0.022   2.738   2.215  0.3389  0.0452 -0.3141
20496SOL    HW162066   0.027   2.796   2.292 -1.4892  0.3975 -0.4029
20496SOL    HW262067  -0.034   2.666   2.244  0.7939 -0.5505 -0.8987
20497SOL     OW62068   3.361   9.564   0.320  0.5753 -0.2099  0.0681
20497SOL    HW162069   3.328   9.533   0.235 -0.7191  0.2299  0.3797
20497SOL    HW262070   3.295   9.628   0.348  2.4416  1.8326  0.0657
20498SOL     OW62071   6.984   4.121   2.807 -0.2975 -0.2234 -0.1041
20498SOL    HW162072   7.071   4.140   2.842 -0.9339  1.3997  0.7162
20498SOL    HW262073   6.955   4.205   2.770 -1.3153 -0.8669 -0.8126
20499SOL     OW62074   6.334   3.317   2.416 -0.3402  0.0301  0.3492
20499SOL    HW162075   6.425   3.294   2.398 -0.5226  0.4269 -1.2353
20499SOL    HW262076   6.284   3.269   2.350 -1.3592 -0.6632  1.5742
20500SOL     OW62077   5.296   6.478   4.141  0.1103  0.0980  0.1984
20500SOL    HW162078   5.216   6.460   4.092 -0.8317  0.2917  1.6427
20500SOL    HW262079   5.363   6.426   4.096 -1.2141 -1.7005  0.2053
20501SOL     OW62080   0.816   3.014   6.003  0.0408 -0.5288  0.3180
20501SOL    HW162081   0.909   3.008   6.027 -0.1882 -0.4976  1.2478
20501SOL    HW262082   0.809   3.096   5.955  0.2757  0.1140  1.3468
20502SOL     OW62083   1.399   7.193   9.671  0.5623 -0.3230  0.1953
20502SOL    HW162084   1.374   7.259   9.736 -2.5097  0.2945 -1.4150
20502SOL    HW262085   1.323   7.135   9.666  1.2663 -1.1351 -1.8717
20503SOL     OW62086   2.785   8.577   3.100  0.0704  0.3612  0.3726
20503SOL    HW162087   2.761   8.580   3.007 -0.3747  1.3836  0.5038
20503SOL    HW262088   2.790   8.669   3.126 -0.5530  0.0870  1.5432
20504SOL     OW62089   0.164   2.901   5.054 -0.4118  0.1086  0.0670
20504SOL    HW162090   0.219   2.976   5.077 -0.5476  0.2030  0.0840
20504SOL    HW262091   0.224   2.827   5.056  0.0784  0.4337 -1.5414
20505SOL     OW62092   4.432   1.702   2.470  0.1796  0.5261 -0.7780
20505SOL    HW162093   4.475   1.664   2.546 -2.0878  0.5278  0.5964
20505SOL    HW262094   4.504   1.732   2.414  1.9960 -2.2455 -0.1349
20506SOL     OW62095   4.807   9.092   4.652  0.0443  0.0662 -0.7445
20506SOL    HW162096   4.876   9.026   4.651 -0.1347 -0.1158 -1.4302
20506SOL    HW262097   4.731   9.048   4.616 -0.4893  0.2153  0.1670
20507SOL     OW62098   2.040   8.115   3.485 -0.0169  0.4065 -0.2885
20507SOL    HW162099   2.077   8.203   3.496 -0.8648  0.7588 -0.1710
20507SOL    HW262100   1.949   8.124   3.514 -0.9334  0.1562 -2.8395
20508SOL     OW62101   1.083   3.518   8.147  0.1800  0.0075  0.0094
20508SOL    HW162102   1.011   3.487   8.092  0.8594 -0.2851 -0.7314
20508SOL    HW262103   1.159   3.519   8.089  0.5937  1.1710  0.5390
20509SOL     OW62104   7.753   7.019   2.689  0.4234 -0.4202 -0.7027
20509SOL    HW162105   7.801   7.028   2.607  0.6841 -1.7580 -0.7256
20509SOL    HW262106   7.700   6.940   2.678  1.1718 -1.1690  0.7515
20510SOL     OW62107   2.731   2.561   8.057  0.1729 -0.0364  0.1681
20510SOL    HW162108   2.721   2.656   8.057  1.9206  0.2539  2.6521
20510SOL    HW262109   2.685   2.532   8.136  0.1930 -1.1740 -0.2299
20511SOL     OW62110   9.003   3.787   0.040  0.2249  0.4144 -0.2191
20511SOL    HW162111   8.923   3.758  -0.003  1.8623 -1.5538 -2.2213
20511SOL    HW262112   8.982   3.787   0.133 -2.4038  1.1874 -0.7332
20512SOL     OW62113   9.024   8.419   5.341 -0.2196 -0.0283 -0.1710
20512SOL    HW162114   8.968   8.440   5.266 -2.2912 -3.0512  0.3229
20512SOL    HW262115   9.090   8.360   5.305  0.4183  0.5976 -0.0509
20513SOL     OW62116   3.335   9.080   5.858 -0.5870  0.2540  0.5514
20513SOL    HW162117   3.378   9.142   5.917  0.2622  0.6902 -0.4871
20513SOL    HW262118   3.386   8.999   5.867 -1.2750 -0.1085  1.3881
20514SOL     OW62119   8.998   2.310   3.852 -0.3496 -0.3771  0.5668
20514SOL    HW162120   9.088   2.295   3.824 -0.4491 -0.6286  0.3805
20514SOL    HW262121   8.986   2.404   3.842 -0.3958 -0.4618 -0.2870
20515SOL     OW62122   7.563   7.492   4.824  0.0251  0.0804  0.2741
20515SOL    HW162123   7.568   7.588   4.822  1.3282  0.0213  0.1402
20515SOL    HW262124   7.613   7.467   4.902 -0.3491 -0.5057  0.3397
20516SOL     OW62125   0.596   7.239   2.437  0.4680  0.0372  0.0724
20516SOL    HW162126   0.664   7.203   2.379  0.3474  0.7363 -0.5208
20516SOL    HW262127   0.611   7.196   2.521  1.4629 -0.0327 -0.1272
20517SOL     OW62128   3.874   6.106   9.330  0.0740 -0.3956 -0.1579
20517SOL    HW162129   3.921   6.184   9.302 -0.0086 -0.1137  0.4623
20517SOL    HW262130   3.815   6.086   9.258  1.4132 -0.9968 -1.1232
20518SOL     OW62131   7.603   8.150   4.134 -0.2247 -0.2167  0.0438
20518SOL    HW162132   7.582   8.057   4.124 -0.9823 -0.0305 -0.1987
20518SOL    HW262133   7.522   8.195   4.109  0.7863  0.5889 -1.9936
20519SOL     OW62134   6.067   9.070   4.766  0.4430 -0.3178  0.2326
20519SOL    HW162135   6.085   9.161   4.789  0.3002 -0.5904  1.5042
20519SOL    HW262136   6.025   9.075   4.680  3.0245  0.5844 -1.0609
20520SOL     OW62137   5.193   9.786   4.846  0.2651  0.1350 -0.1708
20520SOL    HW162138   5.122   9.826   4.897 -0.5776 -0.5649 -0.7464
20520SOL    HW262139   5.154   9.772   4.759  0.4290 -2.1112  0.0634
20521SOL     OW62140   6.649   2.642   1.932  0.4843  0.7877  0.3012
20521SOL    HW162141   6.737   2.678   1.945 -0.3408  3.1497 -0.1704
20521SOL    HW262142   6.645   2.622   1.839  1.0192 -0.9107  0.5990
20522SOL     OW62143   6.639   3.173   7.737 -0.5848  0.1239 -0.5872
20522SOL    HW162144   6.588   3.156   7.658  0.4900 -0.2395 -1.2206
20522SOL    HW262145   6.575   3.209   7.799 -1.7005 -0.7243 -1.1999
20523SOL     OW62146   4.363   7.172   9.313  0.2975  0.6116 -0.3089
20523SOL    HW162147   4.323   7.206   9.233  0.0667  0.9390 -0.0586
20523SOL    HW262148   4.301   7.196   9.382  0.8133  0.9213  0.0495
20524SOL     OW62149   7.861   4.358   2.107  0.2373  0.4889 -0.3598
20524SOL    HW162150   7.953   4.385   2.107  0.5164 -0.0109  3.0407
20524SOL    HW262151   7.812   4.440   2.109  0.6114  0.7562 -1.6135
20525SOL     OW62152   1.057   0.717   6.759 -0.1742 -0.0104 -0.1327
20525SOL    HW162153   1.087   0.799   6.799  0.5562  0.1301 -0.9402
20525SOL    HW262154   0.984   0.689   6.814 -0.2771  1.0579  0.3012
20526SOL     OW62155   0.375   0.763   6.020 -0.8991 -0.0090  0.0125
20526SOL    HW162156   0.325   0.831   6.065 -0.4272 -1.0184  2.1633
20526SOL    HW262157   0.309   0.705   5.982 -1.3373  0.0615  0.6576
20527SOL     OW62158   5.754   1.412   7.621 -0.1091  0.7367  0.0263
20527SOL    HW162159   5.835   1.461   7.635  0.5313 -0.6291  1.3963
20527SOL    HW262160   5.685   1.473   7.648  0.6530  1.0140  1.4935
20528SOL     OW62161   7.522   1.681   8.022  0.7156  0.6581  0.3517
20528SOL    HW162162   7.525   1.665   7.928 -0.0695 -1.4669  0.6384
20528SOL    HW262163   7.442   1.731   8.035  0.3013  0.1054 -0.0224
20529SOL     OW62164   0.020   2.639   3.952 -0.4337  0.3050  0.2394
20529SOL    HW162165  -0.012   2.598   3.872  0.3778  0.7016 -0.3005
20529SOL    HW262166   0.026   2.567   4.015 -1.4078  0.0546  0.0638
20530SOL     OW62167   7.648   0.843   0.568 -0.2561 -0.8871  0.3933
20530SOL    HW162168   7.736   0.882   0.572 -1.1625  1.2116  1.4072
20530SOL    HW262169   7.639   0.794   0.650 -0.1428 -0.8659  0.4182
20531SOL     OW62170   7.562   9.952   6.739 -0.0260 -0.4152 -0.3272
20531SOL    HW162171   7.536  10.012   6.668 -0.9933 -1.6287 -1.0333
20531SOL    HW262172   7.483   9.903   6.759 -0.1153  0.6819  2.4621
20532SOL     OW62173   5.863   3.494   7.344  0.1179  0.2121  0.5737
20532SOL    HW162174   5.933   3.455   7.292 -1.2931 -2.6147  0.6204
20532SOL    HW262175   5.827   3.563   7.288  0.6026 -0.7401 -0.9678
20533SOL     OW62176   3.291   8.232   1.403 -0.2212  0.6306 -0.5745
20533SOL    HW162177   3.309   8.138   1.404  0.7108  0.7752  0.9404
20533SOL    HW262178   3.361   8.270   1.350  1.6140  0.7594  1.7604
20534SOL     OW62179   3.805   4.485   6.923  0.3519  0.1941 -0.0462
20534SOL    HW162180   3.790   4.536   7.002 -1.6229  0.2559 -0.4290
20534SOL    HW262181   3.858   4.542   6.867  0.7822  0.5868  0.7469
20535SOL     OW62182   7.682   4.014   1.510  0.3416 -0.1249 -0.5349
20535SOL    HW162183   7.688   3.975   1.597  1.0144  1.2642  0.0802
20535SOL    HW262184   7.768   4.002   1.472  0.4590  0.4631 -0.4633
20536SOL     OW62185   7.374   6.493   0.372  0.4557 -0.4673  0.6260
20536SOL    HW162186   7.362   6.521   0.462  0.4295 -1.2742  0.8775
20536SOL    HW262187   7.342   6.403   0.370 -2.0540  0.3473 -0.7734
20537SOL     OW62188   1.470   1.473   6.791  0.1745 -0.4371 -0.4655
20537SOL    HW162189   1.545   1.432   6.747  1.5861  1.0185  0.4586
20537SOL    HW262190   1.467   1.562   6.755  0.9252  0.5529  1.7513
20538SOL     OW62191   2.540   1.699   1.081 -0.2497 -0.1603  0.2886
20538SOL    HW162192   2.462   1.646   1.100 -0.2397 -0.6912 -1.0154
20538SOL    HW262193   2.613   1.648   1.117 -0.4673  0.1896  1.2413
20539SOL     OW62194   0.486   9.647   1.183 -0.1932  0.1057 -0.1134
20539SOL    HW162195   0.442   9.665   1.266  1.1051 -2.7916  1.3624
20539SOL    HW262196   0.507   9.734   1.148 -1.3061  1.4612  2.2898
20540SOL     OW62197   9.559   4.034   9.401 -0.3610 -0.2670  0.1780
20540SOL    HW162198   9.563   3.939   9.392  0.6915 -0.2089 -0.0919
20540SOL    HW262199   9.630   4.057   9.460  3.3204  0.7988 -4.1219
20541SOL     OW62200   2.544   5.096   6.551 -0.2889  0.2994  0.1306
20541SOL    HW162201   2.501   5.045   6.620 -0.5774  1.0871  0.5466
20541SOL    HW262202   2.554   5.184   6.589  1.0179  0.3286 -0.2384
20542SOL     OW62203   9.834   2.412   1.104 -0.0185  0.0784 -0.5816
20542SOL    HW162204   9.893   2.371   1.167  0.7691  0.8256 -0.8170
20542SOL    HW262205   9.774   2.465   1.157 -0.0762 -0.1814 -0.3860
20543SOL     OW62206   3.786   4.857   1.862 -0.1222 -0.5264 -0.1681
20543SOL    HW162207   3.764   4.818   1.778  1.3819 -4.3080  0.9936
20543SOL    HW262208   3.702   4.869   1.906 -0.7688 -0.6799 -1.3205
20544SOL     OW62209   1.999   1.431   5.369  0.5377 -0.3299 -0.0317
20544SOL    HW162210   1.964   1.512   5.333  0.3865 -0.7040 -0.7451
20544SOL    HW262211   1.971   1.363   5.307 -0.4324 -1.1099  1.2048
20545SOL     OW62212   9.751   8.518   2.619  0.6643  0.2553  0.4517
20545SOL    HW162213   9.669   8.471   2.602 -1.1712  2.0639  3.4411
20545SOL    HW262214   9.812   8.450   2.647 -0.6300 -0.8549  0.6700
20546SOL     OW62215   8.680   9.422   9.054 -0.2310  0.9075 -0.0261
20546SOL    HW162216   8.599   9.396   9.011  1.1516 -1.9478 -1.1575
20546SOL    HW262217   8.689   9.515   9.033 -0.8061  0.2450 -4.1729
20547SOL     OW62218   2.938   7.140   9.197  0.8871 -0.2856  0.5969
20547SOL    HW162219   2.930   7.186   9.281 -1.0206 -1.0743  0.9190
20547SOL    HW262220   2.901   7.200   9.133 -0.2300 -0.7255  0.7923
20548SOL     OW62221   4.215   6.618   1.606  0.1122 -0.3032  0.1710
20548SOL    HW162222   4.271   6.665   1.545  1.0634 -2.4877 -0.7588
20548SOL    HW262223   4.126   6.631   1.573  0.3605  0.6943 -0.1235
20549SOL     OW62224   7.527   1.837   0.115 -0.4931 -0.2501 -0.0708
20549SOL    HW162225   7.560   1.783   0.043 -2.0707 -1.4081  0.0331
20549SOL    HW262226   7.435   1.850   0.095  0.3352  5.2788 -1.8344
20550SOL     OW62227   0.805   0.866   6.510  0.0305 -0.0204 -0.8295
20550SOL    HW162228   0.780   0.864   6.602  4.0031  0.0588  0.4491
20550SOL    HW262229   0.792   0.776   6.479 -0.4687 -0.2712  0.0983
20551SOL     OW62230   4.454   5.762   3.131  0.0607 -0.0812  0.6454
20551SOL    HW162231   4.406   5.815   3.195 -0.7721  1.8420 -1.4030
20551SOL    HW262232   4.410   5.677   3.131 -0.7191  0.3098  1.7143
20552SOL     OW62233   3.333   4.254   4.458 -0.2471 -0.2292 -0.7431
20552SOL    HW162234   3.407   4.245   4.398 -0.3793 -3.0582 -0.6598
20552SOL    HW262235   3.335   4.345   4.487  3.1244 -0.1735 -0.8185
20553SOL     OW62236   6.360   1.923   0.477 -0.0228 -0.0629 -0.7967
20553SOL    HW162237   6.313   1.844   0.451  1.0236 -0.4319 -1.6664
20553SOL    HW262238   6.414   1.944   0.400  1.3834  0.2033  0.2328
20554SOL     OW62239   7.408   0.317   2.638 -0.0763 -0.7280  0.5270
20554SOL    HW162240   7.336   0.369   2.604 -0.6793 -0.7450  1.7241
20554SOL    HW262241   7.377   0.227   2.635 -0.0441 -0.7540  0.8570
20555SOL     OW62242   6.774   8.051   1.761  0.3665  0.1540 -0.8300
20555SOL    HW162243   6.773   8.077   1.668  0.4211 -1.6352 -1.3666
20555SOL    HW262244   6.851   7.995   1.769  1.3572  1.6272  0.7476
20556SOL     OW62245   4.441   7.022   0.144 -0.8707  0.3240 -0.3276
20556SOL    HW162246   4.491   7.080   0.087 -1.9494 -0.6773 -2.4231
20556SOL    HW262247   4.369   7.077   0.176 -0.9801  0.5806 -0.9885
20557SOL     OW62248   7.867   3.961   6.809  0.4951  0.6261 -0.0407
20557SOL    HW162249   7.934   3.941   6.744 -0.6580 -1.0328 -0.7979
20557SOL    HW262250   7.912   4.012   6.876  1.8333  2.0189 -1.8991
20558SOL     OW62251   9.503   7.113   2.489 -0.5016  0.6206 -0.2451
20558SOL    HW162252   9.586   7.148   2.523 -1.0656  0.4469  1.4252
20558SOL    HW262253   9.478   7.173   2.420  1.6148  0.0031 -1.6686
20559SOL     OW62254   2.946   2.793   7.090  0.2229 -0.5525 -0.2346
20559SOL    HW162255   2.852   2.784   7.107  0.1380  1.3493  0.4979
20559SOL    HW262256   2.973   2.705   7.062 -1.3693 -1.6396  1.3921
20560SOL     OW62257   1.675   2.687   3.048  0.3036 -0.7391 -0.0647
20560SOL    HW162258   1.580   2.681   3.047  0.2994 -0.6543 -0.3726
20560SOL    HW262259   1.705   2.606   3.090 -0.0015  0.5444  2.9198
20561SOL     OW62260   2.140   1.705   6.906  0.2721  0.1649  0.3436
20561SOL    HW162261   2.234   1.718   6.895  0.0247  0.5108 -1.8247
20561SOL    HW262262   2.126   1.614   6.880 -0.0541  0.2809  0.1106
20562SOL     OW62263   0.644   4.581   1.113  0.2219 -0.0577  0.2184
20562SOL    HW162264   0.599   4.574   1.197 -1.5265  2.2675 -0.4331
20562SOL    HW262265   0.574   4.589   1.048  1.5546 -0.0574 -1.2870
20563SOL     OW62266   3.336   4.218   7.809  0.4762 -0.3158  0.3889
20563SOL    HW162267   3.357   4.292   7.866  1.9996 -0.3019 -0.1331
20563SOL    HW262268   3.422   4.184   7.781 -0.1297  0.5026 -2.9252
20564SOL     OW62269   6.845   7.353   4.567  0.5573 -0.5149  0.9391
20564SOL    HW162270   6.861   7.434   4.517 -0.1882 -0.7412  0.3020
20564SOL    HW262271   6.786   7.381   4.638  0.7811 -0.3864  1.0751
20565SOL     OW62272   6.356   5.414   2.791  0.6414 -0.0911  0.3522
20565SOL    HW162273   6.267   5.451   2.797  0.4922 -0.1302 -1.2458
20565SOL    HW262274   6.380   5.424   2.699  2.0995 -0.5732  0.6567
20566SOL     OW62275   6.815   6.196   9.431 -0.1259 -0.2124  0.2399
20566SOL    HW162276   6.805   6.167   9.341  2.8910  1.6088 -0.8362
20566SOL    HW262277   6.885   6.141   9.467  0.4108  0.6771  0.6097
20567SOL     OW62278   5.597   2.472   8.060  0.4256  0.7844  0.2024
20567SOL    HW162279   5.691   2.460   8.056  0.6057  2.3801 -1.6356
20567SOL    HW262280   5.561   2.398   8.010  0.6491 -0.0336  1.2212
20568SOL     OW62281   5.311   7.625   7.890 -0.6207 -0.2274 -0.1379
20568SOL    HW162282   5.231   7.677   7.891  0.1641  1.0032  0.9430
20568SOL    HW262283   5.287   7.543   7.932 -1.8502 -0.7648 -1.7853
20569SOL     OW62284   5.768   2.225   5.651 -0.2499 -0.3884  0.3765
20569SOL    HW162285   5.811   2.178   5.723  0.5330 -0.2548  0.0099
20569SOL    HW262286   5.701   2.164   5.619  0.2399 -0.9543  0.4036
20570SOL     OW62287   6.258   5.262   0.754 -0.4343  0.4425  0.1181
20570SOL    HW162288   6.325   5.195   0.746 -0.8767  0.1477 -1.5022
20570SOL    HW262289   6.227   5.255   0.844  0.3444 -0.7193  0.3090
20571SOL     OW62290   5.645   1.066   4.398  0.1773  0.2161  0.5492
20571SOL    HW162291   5.674   1.150   4.435 -0.3293  0.1197  1.1900
20571SOL    HW262292   5.712   1.044   4.333  0.3730  1.0618  0.4506
20572SOL     OW62293   9.330   5.492   2.974 -0.3178  0.3427 -0.1979
20572SOL    HW162294   9.270   5.549   3.022 -0.4903 -0.8452  1.0585
20572SOL    HW262295   9.324   5.407   3.018  3.2230  0.4674  0.8807
20573SOL     OW62296   2.904   5.800   7.187 -0.1255  0.2467 -0.2019
20573SOL    HW162297   2.938   5.886   7.211  0.0273  0.3369 -0.7317
20573SOL    HW262298   2.973   5.738   7.213 -0.1555  0.2996  0.0050
20574SOL     OW62299   7.815   5.953   3.243 -0.5925  0.2541  0.2840
20574SOL    HW162300   7.833   5.866   3.208  0.2524 -0.1177  1.6109
20574SOL    HW262301   7.785   5.938   3.333 -0.7839  1.3106  0.4158
20575SOL     OW62302   5.001   1.728   1.697  0.4261 -0.9220  0.7995
20575SOL    HW162303   4.920   1.676   1.707  0.4551 -0.6678  2.7212
20575SOL    HW262304   5.062   1.689   1.759  1.6486 -0.7796 -0.2642
20576SOL     OW62305   7.603   2.629   2.318 -0.1595 -0.6263 -0.4842
20576SOL    HW162306   7.597   2.602   2.226  3.2604 -1.8793 -0.5120
20576SOL    HW262307   7.516   2.612   2.354 -1.1354 -1.6991 -3.0792
20577SOL     OW62308   1.850   0.831   4.415 -0.1515  0.0288  0.2423
20577SOL    HW162309   1.842   0.902   4.479 -1.3065 -0.1351  0.2895
20577SOL    HW262310   1.783   0.850   4.349  0.8722  0.0780 -0.8191
20578SOL     OW62311   2.149   6.406   9.176  0.8160  0.1081  0.1900
20578SOL    HW162312   2.136   6.352   9.254  1.5680 -0.0018  0.2408
20578SOL    HW262313   2.163   6.342   9.106 -0.3897  0.1858 -0.1548
20579SOL     OW62314   6.722   2.189   2.627  0.2664  0.3592  0.2575
20579SOL    HW162315   6.739   2.156   2.715  0.3859  0.3271  0.2218
20579SOL    HW262316   6.740   2.114   2.570  2.4321  1.0345  0.0053
20580SOL     OW62317   7.366   8.176   0.440  0.8869  0.1408  0.8365
20580SOL    HW162318   7.333   8.211   0.523  0.2058  1.6084 -0.0123
20580SOL    HW262319   7.287   8.144   0.395  1.3638 -1.5538  1.1206
20581SOL     OW62320   4.093   3.359   1.449  0.2638  0.3612 -0.0539
20581SOL    HW162321   4.027   3.290   1.446 -1.1823  1.7184 -0.9783
20581SOL    HW262322   4.135   3.349   1.535  0.7978 -2.2330 -0.5610
20582SOL     OW62323   2.463   1.502   1.994  0.0068 -0.3613  0.1804
20582SOL    HW162324   2.523   1.490   2.068  1.3496 -0.2305 -0.8466
20582SOL    HW262325   2.377   1.479   2.029  0.3418  1.1623  2.2199
20583SOL     OW62326   9.014   8.189   5.887  0.0304 -0.2527 -0.2759
20583SOL    HW162327   8.988   8.114   5.940  0.9877 -3.1614 -3.5376
20583SOL    HW262328   8.960   8.183   5.808  2.2903  0.5519 -2.0041
20584SOL     OW62329   9.598   1.864   2.623  0.1242 -0.1769 -0.1827
20584SOL    HW162330   9.555   1.897   2.702 -1.1014  1.0714 -1.3433
20584SOL    HW262331   9.660   1.933   2.598  0.3552 -0.4728 -0.4436
20585SOL     OW62332   2.795   8.529   5.671  0.4799  0.1922  0.0171
20585SOL    HW162333   2.837   8.454   5.713  1.7214  0.5234 -0.5827
20585SOL    HW262334   2.838   8.537   5.586 -0.6647  0.6959 -0.5416
20586SOL     OW62335   0.975   2.494   5.816 -0.2890  0.3615  0.4719
20586SOL    HW162336   0.918   2.471   5.888 -1.8122  1.9878 -0.1209
20586SOL    HW262337   0.948   2.438   5.744 -1.0315  0.9748  0.2582
20587SOL     OW62338   4.584   8.118   3.832  0.0582 -0.0260  0.3736
20587SOL    HW162339   4.565   8.152   3.745  0.7510 -0.8975 -0.1328
20587SOL    HW262340   4.524   8.165   3.890  0.7224  1.7833 -0.3355
20588SOL     OW62341   3.966   0.850   4.081 -0.4736  0.2955  0.1803
20588SOL    HW162342   4.055   0.835   4.113  0.0513  1.7149 -0.4998
20588SOL    HW262343   3.909   0.820   4.152  0.4550 -2.1890 -0.0395
20589SOL     OW62344   5.147   7.964   3.898 -0.0881 -0.6150 -0.4816
20589SOL    HW162345   5.193   7.969   3.815  0.0122 -0.5306 -0.4214
20589SOL    HW262346   5.064   8.009   3.883  0.1142 -0.2217 -0.4119
20590SOL     OW62347   6.152   6.073   5.905 -0.4434 -0.2622 -0.0003
20590SOL    HW162348   6.104   6.072   5.988 -0.4777  1.0074  0.0134
20590SOL    HW262349   6.098   6.020   5.846 -0.5013 -1.0454  0.7312
20591SOL     OW62350   0.550   7.542  -0.030 -0.0606  0.3039 -0.6231
20591SOL    HW162351   0.501   7.619  -0.001  1.2826  0.8741  0.2028
20591SOL    HW262352   0.538   7.478   0.039  2.1861  1.2584  0.7661
20592SOL     OW62353   4.249   7.217   7.661 -0.4132  0.4487  0.1879
20592SOL    HW162354   4.269   7.132   7.702 -1.5572  0.3287  0.5286
20592SOL    HW262355   4.334   7.248   7.629 -0.0336 -1.0213 -0.3304
20593SOL     OW62356   6.538   5.065   7.052 -0.0622 -0.0704  0.8961
20593SOL    HW162357   6.520   5.026   6.967 -0.4953 -0.1780  1.0340
20593SOL    HW262358   6.457   5.053   7.102  0.7298 -1.5229  1.8946
20594SOL     OW62359   6.289   4.204   9.002  0.3267  0.2609  0.1407
20594SOL    HW162360   6.318   4.212   9.093  1.2990  2.6137 -0.3047
20594SOL    HW262361   6.202   4.165   9.008  0.5152  0.0445  2.0625
20595SOL     OW62362   3.821   2.922   5.376 -0.3686 -0.1744 -0.0779
20595SOL    HW162363   3.891   2.868   5.339  0.4587 -0.0205  1.1726
20595SOL    HW262364   3.744   2.904   5.321  1.3074  1.9417 -3.4246
20596SOL     OW62365   9.788   3.437   2.044  0.5338  0.5979  0.2986
20596SOL    HW162366   9.806   3.363   2.102  1.3697  0.5600 -0.0001
20596SOL    HW262367   9.812   3.406   1.957 -0.7042  0.6610 -0.0839
20597SOL     OW62368   8.422   5.745   9.070  0.4824  0.1181  0.4042
20597SOL    HW162369   8.493   5.738   9.006  1.1928  0.2897  1.1631
20597SOL    HW262370   8.441   5.676   9.134  0.4295  0.7072  1.0575
20598SOL     OW62371   0.090   9.310   7.015 -0.1210 -0.4894 -0.4165
20598SOL    HW162372   0.008   9.356   7.030  0.2230  0.0683 -0.2106
20598SOL    HW262373   0.064   9.226   6.976 -0.6637  0.8155 -3.0786
20599SOL     OW62374   9.950   1.348   2.819 -0.4736 -0.1076 -0.5037
20599SOL    HW162375   9.922   1.268   2.775  1.8093 -1.2899  0.0299
20599SOL    HW262376   9.900   1.348   2.901 -1.5333 -0.2174 -1.1346
20600SOL     OW62377   0.638   5.545   8.958  0.0859 -0.5905  0.0715
20600SOL    HW162378   0.658   5.519   8.867 -1.7545 -0.5710 -0.3787
20600SOL    HW262379   0.712   5.601   8.983  0.9122 -1.0371 -1.2160
20601SOL     OW62380   4.303   1.601   5.873 -0.0746  0.9599  0.1887
20601SOL    HW162381   4.304   1.532   5.939  1.7377  1.1955  0.4584
20601SOL    HW262382   4.344   1.561   5.796 -0.4641  1.2644 -0.1853
20602SOL     OW62383   5.330   3.773   2.424 -0.3450  0.5216  0.3927
20602SOL    HW162384   5.309   3.831   2.498 -0.4622  1.0452 -0.0452
20602SOL    HW262385   5.331   3.831   2.348 -0.3501 -0.0375 -0.0367
20603SOL     OW62386   3.540   3.594   9.695  0.2039  0.7900 -0.3250
20603SOL    HW162387   3.478   3.608   9.767  1.1396 -0.2974  0.7389
20603SOL    HW262388   3.496   3.629   9.618 -0.7003  2.2996  0.8264
20604SOL     OW62389   6.737   8.872   3.695  0.1468 -0.1272 -0.4404
20604SOL    HW162390   6.780   8.847   3.613 -2.0816 -0.6492 -1.5150
20604SOL    HW262391   6.649   8.898   3.670 -0.3349  0.5767  1.7102
20605SOL     OW62392   4.945   6.817   5.806  0.4032 -0.2631 -0.2460
20605SOL    HW162393   4.914   6.863   5.884  1.0277  0.3692 -0.3573
20605SOL    HW262394   4.978   6.734   5.839 -0.0250 -0.3138  0.0650
20606SOL     OW62395   3.261   8.021   7.799  0.1329  0.5030 -0.2977
20606SOL    HW162396   3.292   7.980   7.718 -1.0333 -2.6662  0.6797
20606SOL    HW262397   3.166   8.010   7.795  0.1008 -0.4159  1.7612
20607SOL     OW62398   5.706   4.409   0.853 -0.8165 -0.1478 -0.0915
20607SOL    HW162399   5.733   4.492   0.814 -1.1274 -0.4424 -0.9393
20607SOL    HW262400   5.768   4.396   0.926 -0.4393  0.5646 -0.2744
20608SOL     OW62401   4.198   6.764   8.343 -0.3771  0.7401 -0.1354
20608SOL    HW162402   4.218   6.853   8.316  0.2843 -0.0379 -2.3963
20608SOL    HW262403   4.279   6.715   8.327 -0.7968 -0.3315  0.8629
20609SOL     OW62404   4.429   5.456   9.287  0.3419 -0.3351  0.3574
20609SOL    HW162405   4.399   5.366   9.300 -0.3029 -0.0612  0.8035
20609SOL    HW262406   4.513   5.460   9.334  0.6170 -0.8323 -0.0811
20610SOL     OW62407   8.654   9.822   4.541  0.0500 -0.6748 -0.1112
20610SOL    HW162408   8.603   9.759   4.488  0.2925 -0.2775 -0.8372
20610SOL    HW262409   8.590   9.889   4.566 -0.2000 -1.1764  0.6278
20611SOL     OW62410   4.233   9.324   8.985 -0.2043  0.1063  0.0533
20611SOL    HW162411   4.185   9.328   9.068 -1.2226  1.3045 -0.5471
20611SOL    HW262412   4.210   9.240   8.948 -1.2689  0.3520  0.1280
20612SOL     OW62413   6.690   7.119   2.836 -0.2004  0.1938  0.6532
20612SOL    HW162414   6.780   7.105   2.866 -0.5983 -0.1708  1.7307
20612SOL    HW262415   6.649   7.033   2.842 -0.3135  0.1210 -0.9542
20613SOL     OW62416   2.984   4.005   0.414  0.0167  0.0735 -0.3632
20613SOL    HW162417   3.050   4.066   0.448  0.8045 -0.9693  0.0325
20613SOL    HW262418   2.954   3.957   0.491  0.6150 -1.1752 -0.8822
20614SOL     OW62419   9.213   5.431   4.014 -0.4081 -0.2269  0.4249
20614SOL    HW162420   9.166   5.442   4.096 -1.6696  0.0563 -0.3023
20614SOL    HW262421   9.266   5.352   4.026 -0.7570 -0.3221  1.4099
20615SOL     OW62422   6.945   4.914   1.657 -0.0385  0.1021 -0.0161
20615SOL    HW162423   7.006   4.877   1.593 -1.3735  0.5583 -1.6204
20615SOL    HW262424   6.918   4.839   1.710  0.2336 -0.5022 -0.7053
20616SOL     OW62425   3.568   6.199   4.550  0.2185 -0.0571  0.0024
20616SOL    HW162426   3.622   6.264   4.595  1.6985 -0.3751 -1.2323
20616SOL    HW262427   3.589   6.210   4.458 -1.3349 -0.6803 -0.4647
20617SOL     OW62428   5.876   0.567   5.695 -0.9291 -0.0853  0.2808
20617SOL    HW162429   5.865   0.630   5.624 -0.1757  0.9743  1.0750
20617SOL    HW262430   5.958   0.593   5.737  0.8364 -3.1601 -0.9224
20618SOL     OW62431   8.354   9.259   7.093  0.3077  0.3048 -0.1136
20618SOL    HW162432   8.279   9.275   7.150 -0.0474 -0.2893 -0.4004
20618SOL    HW262433   8.390   9.346   7.075 -0.4153  0.6095 -0.1115
20619SOL     OW62434   2.768   1.495   1.001  0.3697  0.2580  0.1088
20619SOL    HW162435   2.820   1.574   0.985 -0.7248  0.9005 -0.3865
20619SOL    HW262436   2.721   1.481   0.919  0.1425 -0.6137  0.3760
20620SOL     OW62437   2.844   6.881   2.565  0.1762 -0.2540 -0.0346
20620SOL    HW162438   2.925   6.833   2.582  1.2120  0.5359 -2.2964
20620SOL    HW262439   2.815   6.911   2.651  1.6425 -1.5329  0.9630
20621SOL     OW62440   9.857   2.103   4.019 -0.6429  0.1461  0.0183
20621SOL    HW162441   9.924   2.096   4.086 -2.2708 -0.9097  1.6487
20621SOL    HW262442   9.837   2.196   4.013 -0.5986  0.2423  1.1700
20622SOL     OW62443   1.591   4.114   4.691  0.0453 -0.4659 -0.3641
20622SOL    HW162444   1.575   4.096   4.784  0.5533  0.3530 -0.1144
20622SOL    HW262445   1.530   4.185   4.670  2.2567  1.7520  0.2513
20623SOL     OW62446   5.265   3.115   4.103 -0.0775 -0.1165 -0.4649
20623SOL    HW162447   5.224   3.141   4.185  1.2702 -0.6472  0.3944
20623SOL    HW262448   5.278   3.020   4.112  2.1432  0.1548 -0.3148
20624SOL     OW62449   5.834   8.314   0.863 -0.4474  0.1237  0.1022
20624SOL    HW162450   5.785   8.379   0.913 -0.8827  0.0121 -0.1747
20624SOL    HW262451   5.911   8.362   0.832 -0.3980  0.3104  0.5036
20625SOL     OW62452   6.297   5.028   7.145  0.2535  0.0873  0.2068
20625SOL    HW162453   6.285   5.007   7.237  0.0149 -1.1186 -0.0741
20625SOL    HW262454   6.287   4.944   7.100 -0.8620  0.8398 -1.0325
20626SOL     OW62455   0.307   1.340   6.480  0.6199  0.0226 -0.1984
20626SOL    HW162456   0.372   1.313   6.415 -0.0424  1.3206 -1.4664
20626SOL    HW262457   0.355   1.394   6.542  0.4568  3.0002 -2.4465
20627SOL     OW62458   6.101   9.325   8.143 -0.2427  0.4843 -0.7361
20627SOL    HW162459   6.021   9.288   8.180  0.5146  0.1719  0.6560
20627SOL    HW262460   6.081   9.336   8.050 -2.8551  2.9245 -0.0571
20628SOL     OW62461   8.671   3.377   3.990  0.4338 -0.3019  0.0224
20628SOL    HW162462   8.720   3.452   4.023  0.6826 -1.1619  1.7640
20628SOL    HW262463   8.673   3.386   3.895 -1.4746  3.0869  0.1385
20629SOL     OW62464   3.538   4.407   9.973 -0.3146 -0.3991  0.5114
20629SOL    HW162465   3.624   4.371   9.996  0.1545 -0.5210 -1.2835
20629SOL    HW262466   3.493   4.335   9.929 -1.0043 -0.0583  0.6499
20630SOL     OW62467   4.764   7.775   9.280  0.7848 -0.8998  0.1683
20630SOL    HW162468   4.852   7.777   9.319  0.7058 -1.0464  0.3570
20630SOL    HW262469   4.714   7.716   9.337  0.1172  0.4274  1.0226
20631SOL     OW62470   7.740   5.588   8.734 -0.1745 -0.4913 -0.2882
20631SOL    HW162471   7.765   5.639   8.657 -0.8967  1.1173  0.4812
20631SOL    HW262472   7.812   5.527   8.748  0.6941  0.2772 -1.3111
20632SOL     OW62473   7.765   7.261   0.136 -0.2539  0.0482  0.7300
20632SOL    HW162474   7.799   7.220   0.215 -0.2607 -0.1270  0.6420
20632SOL    HW262475   7.764   7.355   0.156  3.5507  0.5173 -0.4423
20633SOL     OW62476   0.074   8.106   0.885  0.9386  0.6258  0.2670
20633SOL    HW162477   0.121   8.031   0.849  0.5492  1.1459 -1.4032
20633SOL    HW262478   0.122   8.128   0.965  0.1436 -2.3621  1.7573
20634SOL     OW62479   7.384   0.583   7.350  0.1971  0.2488  0.0157
20634SOL    HW162480   7.369   0.652   7.416  2.1721 -0.6345  1.4952
20634SOL    HW262481   7.434   0.626   7.281  1.5177  0.3538  0.9864
20635SOL     OW62482   2.537   8.369   8.529  0.1661 -0.5833 -0.1477
20635SOL    HW162483   2.605   8.435   8.511 -0.6052  0.1906 -0.2772
20635SOL    HW262484   2.538   8.312   8.452  0.2278 -0.1897 -0.4429
20636SOL     OW62485   3.987   1.750  -0.002 -0.1730 -0.3843 -0.5803
20636SOL    HW162486   4.068   1.703  -0.023  0.4140 -0.0057  0.7390
20636SOL    HW262487   3.948   1.699   0.069 -0.2314  0.3570 -0.0746
20637SOL     OW62488   0.335   7.649   0.677  0.1685 -0.3106  0.2430
20637SOL    HW162489   0.361   7.734   0.715 -1.1948 -0.4995  1.7248
20637SOL    HW262490   0.380   7.584   0.732 -0.0564 -0.5698  0.1181
20638SOL     OW62491   7.435   1.064   7.021 -0.7066 -0.2766  0.4548
20638SOL    HW162492   7.519   1.109   7.036 -0.3451 -1.2123  1.3218
20638SOL    HW262493   7.434   1.046   6.927 -0.4372  0.7059  0.2497
20639SOL     OW62494   1.997   7.240   1.103 -0.3308  0.2687  0.2125
20639SOL    HW162495   2.091   7.222   1.112 -0.7166 -1.4596  1.1700
20639SOL    HW262496   1.962   7.162   1.060 -1.2202  1.2828 -0.9757
20640SOL     OW62497   9.604   7.948   6.435 -0.3121 -0.2592 -0.3295
20640SOL    HW162498   9.644   7.912   6.356  1.3799  1.3687 -0.2905
20640SOL    HW262499   9.524   7.898   6.447  0.3486 -1.8032 -2.0050
20641SOL     OW62500   2.888   5.961   5.650  0.2984 -0.0583 -0.0281
20641SOL    HW162501   2.824   5.902   5.691  0.2658  0.0351  0.0558
20641SOL    HW262502   2.881   5.943   5.557 -0.2588  0.3637 -0.0691
20642SOL     OW62503   7.544   5.262   7.882 -0.2158 -0.8484 -0.3874
20642SOL    HW162504   7.581   5.273   7.795 -0.2644  0.2491 -0.2854
20642SOL    HW262505   7.524   5.169   7.888  0.5185 -1.0766 -1.2470
20643SOL     OW62506   1.789   9.607   8.947  0.0427  0.0970  0.2097
20643SOL    HW162507   1.882   9.598   8.927 -0.1178  0.7082 -0.9602
20643SOL    HW262508   1.767   9.695   8.915 -1.0959 -0.3467 -0.2800
20644SOL     OW62509   5.988   5.364   8.260  0.2970  0.1304 -0.1388
20644SOL    HW162510   5.971   5.279   8.220 -0.8324  0.3920 -0.2442
20644SOL    HW262511   5.909   5.415   8.244  0.4540  0.7856  1.0250
20645SOL     OW62512   4.252   7.811   2.900 -0.0536  0.0520  0.0861
20645SOL    HW162513   4.324   7.762   2.860 -1.3899 -0.7330 -1.4415
20645SOL    HW262514   4.182   7.747   2.912 -0.4491  0.7346  1.8168
20646SOL     OW62515   0.860   7.690   0.279 -0.3254 -0.0910  0.1673
20646SOL    HW162516   0.904   7.767   0.243 -0.5252 -0.5969 -1.2181
20646SOL    HW262517   0.920   7.658   0.348 -1.6884  3.0783  3.0921
20647SOL     OW62518   3.215   6.369   9.175  0.1046  0.9463 -0.0833
20647SOL    HW162519   3.147   6.304   9.192  0.4779  0.7081  0.5425
20647SOL    HW262520   3.196   6.402   9.087  0.1218 -0.2534 -0.5488
20648SOL     OW62521   8.455   1.148   9.690 -0.1561  0.8194 -0.1468
20648SOL    HW162522   8.447   1.138   9.595  0.6373 -0.2884 -0.1237
20648SOL    HW262523   8.369   1.178   9.719 -0.3907  1.2211 -1.2126
20649SOL     OW62524   9.264   0.614   8.146 -0.3061  0.0642  0.3022
20649SOL    HW162525   9.271   0.706   8.172 -3.0634  0.4110  0.1443
20649SOL    HW262526   9.257   0.566   8.229 -1.7548  0.3713  0.3924
20650SOL     OW62527   5.605   7.217   8.727 -0.1046 -0.0549 -0.0398
20650SOL    HW162528   5.599   7.286   8.794  0.6278  0.6934 -0.7169
20650SOL    HW262529   5.547   7.148   8.759 -0.1339  0.4750  1.1357
20651SOL     OW62530   9.012   7.301   2.023  0.1236 -0.2218 -0.4443
20651SOL    HW162531   8.926   7.336   2.048 -0.5476 -1.0474 -1.4930
20651SOL    HW262532   9.020   7.219   2.072  0.7085  0.2756  0.3111
20652SOL     OW62533   9.539   2.446   3.566  0.0846  0.2257  0.0979
20652SOL    HW162534   9.495   2.527   3.540  1.2594  0.7188 -0.4112
20652SOL    HW262535   9.484   2.376   3.531 -0.6190  0.8052  0.0248
20653SOL     OW62536   6.758   2.219   6.103 -0.2102 -0.2603 -0.0211
20653SOL    HW162537   6.849   2.209   6.076  0.0037 -1.0642  0.9358
20653SOL    HW262538   6.708   2.162   6.045 -0.3865  1.6146 -1.8281
20654SOL     OW62539   4.715   6.731   6.167  0.3568 -0.3699  0.2024
20654SOL    HW162540   4.795   6.759   6.210 -1.2722  3.5727  1.1004
20654SOL    HW262541   4.662   6.691   6.236 -0.5338  2.0476  1.0088
20655SOL     OW62542   4.774   8.374   0.817  0.0627 -0.2314 -0.5857
20655SOL    HW162543   4.738   8.448   0.867 -0.1292 -0.4002 -0.4693
20655SOL    HW262544   4.773   8.301   0.879  1.2850 -0.0735 -0.3540
20656SOL     OW62545   1.602   9.909   0.606 -0.1536 -1.0612  0.3121
20656SOL    HW162546   1.510   9.903   0.582  0.5891  1.4994 -4.4790
20656SOL    HW262547   1.614  10.000   0.633  0.8119 -1.7025  2.1965
20657SOL     OW62548   0.801   2.102   4.133 -0.0255  0.0981  0.4340
20657SOL    HW162549   0.831   2.069   4.218 -0.2924  0.0448  0.5069
20657SOL    HW262550   0.739   2.171   4.154 -0.0757  0.1003  0.2814
20658SOL     OW62551   5.485   0.346   1.399 -0.3999 -0.2033  0.0187
20658SOL    HW162552   5.493   0.366   1.493  2.1910  0.8443 -0.3600
20658SOL    HW262553   5.572   0.315   1.374 -0.9030  0.0445 -2.1688
20659SOL     OW62554   0.245   1.552   1.733  0.7704 -0.0847  0.1347
20659SOL    HW162555   0.286   1.638   1.726 -0.3301  0.4806  0.4701
20659SOL    HW262556   0.152   1.570   1.742  0.7225 -1.1796  2.6918
20660SOL     OW62557   2.184   6.744   5.060  0.5020  0.6495 -0.1297
20660SOL    HW162558   2.267   6.789   5.073  0.9884  0.3749 -2.0857
20660SOL    HW262559   2.175   6.735   4.965 -0.1197 -2.3676  0.0995
20661SOL     OW62560   6.755   8.592   0.016 -0.1170 -0.7887 -0.6831
20661SOL    HW162561   6.664   8.582   0.045 -0.9862  0.4631 -2.7984
20661SOL    HW262562   6.751   8.653  -0.058  2.4449 -0.7850 -0.9218
20662SOL     OW62563   0.503   5.849   6.202 -0.0617  0.0110  0.2077
20662SOL    HW162564   0.541   5.869   6.287  2.1424 -1.4649 -0.3426
20662SOL    HW262565   0.564   5.886   6.139 -1.5886  0.9628 -0.7692
20663SOL     OW62566   5.110   0.741   7.813 -0.0977  0.0097 -0.8169
20663SOL    HW162567   5.123   0.775   7.724  2.1305  0.1516 -0.4977
20663SOL    HW262568   5.094   0.647   7.800 -2.1932  0.3946 -1.4529
20664SOL     OW62569   5.087   0.486   7.712 -0.2100 -0.6656  0.9344
20664SOL    HW162570   5.098   0.395   7.737 -1.8553 -1.1135  0.1503
20664SOL    HW262571   5.124   0.492   7.624 -0.2939 -0.6239  0.9014
20665SOL     OW62572   0.475   9.810   1.856  0.6952 -0.0490 -0.2545
20665SOL    HW162573   0.383   9.817   1.831  0.5647 -3.2516 -1.0416
20665SOL    HW262574   0.479   9.852   1.942 -1.3108  0.8728 -0.5422
20666SOL     OW62575   7.048   4.150   7.414  0.0694 -0.1720 -0.2422
20666SOL    HW162576   7.042   4.240   7.445  0.6496  0.2502 -1.3175
20666SOL    HW262577   6.965   4.135   7.368 -0.3245 -0.4381  0.5267
20667SOL     OW62578   0.154   6.505   8.705  0.5269  0.4531 -0.0694
20667SOL    HW162579   0.210   6.523   8.780 -1.1935  1.9238  0.9525
20667SOL    HW262580   0.163   6.582   8.649 -0.5892  0.8468  0.2436
20668SOL     OW62581   6.769   1.901   6.815  0.6335 -0.3982  0.0062
20668SOL    HW162582   6.728   1.985   6.832  1.6721  0.1856 -0.3134
20668SOL    HW262583   6.849   1.902   6.867  0.7048 -1.1515 -0.0736
20669SOL     OW62584   5.528   1.660   1.446 -0.0490 -0.7041  0.5150
20669SOL    HW162585   5.507   1.617   1.529  1.9290 -0.6096  1.1340
20669SOL    HW262586   5.515   1.753   1.463 -1.2683 -0.8045  0.1749
20670SOL     OW62587   6.372   2.284   8.156 -0.0166  0.1791 -0.2187
20670SOL    HW162588   6.324   2.236   8.224 -0.3195  1.6780  0.6782
20670SOL    HW262589   6.305   2.334   8.111  0.5059  1.1596  0.0699
20671SOL     OW62590   2.674   1.114   2.597  0.1874 -0.4802 -0.3190
20671SOL    HW162591   2.749   1.153   2.641 -0.2404 -0.9726  0.9008
20671SOL    HW262592   2.611   1.098   2.668 -0.4108 -1.5618 -1.0694
20672SOL     OW62593   8.993   3.617   1.636 -0.1147 -0.3963  0.4939
20672SOL    HW162594   9.083   3.607   1.603 -0.0351 -0.5345  0.7481
20672SOL    HW262595   8.965   3.528   1.656 -0.8706 -0.5295 -1.0247
20673SOL     OW62596   7.128   1.852   1.397 -0.6286  0.3838 -0.7521
20673SOL    HW162597   7.081   1.780   1.356 -0.1503  1.1189 -2.7304
20673SOL    HW262598   7.199   1.871   1.336 -0.1418  1.8649  0.2283
20674SOL     OW62599   2.638   6.587   0.621 -0.4012 -0.1513  0.3623
20674SOL    HW162600   2.587   6.631   0.552 -0.0374  0.2180  0.3229
20674SOL    HW262601   2.573   6.558   0.685 -0.7265 -0.3414 -0.0504
20675SOL     OW62602   3.784   3.657   2.323  0.2650 -0.4864  0.7129
20675SOL    HW162603   3.703   3.708   2.330 -0.2989 -1.3481  0.5818
20675SOL    HW262604   3.804   3.655   2.230  1.1616  0.8033  0.8449
20676SOL     OW62605   0.292   6.441   6.595  0.3145 -0.9701  0.4371
20676SOL    HW162606   0.311   6.378   6.664  0.6467 -0.2341  1.0225
20676SOL    HW262607   0.337   6.406   6.518  0.9766 -1.1472  0.9015
20677SOL     OW62608   9.459   2.809   6.381 -0.0532 -0.1999  0.5092
20677SOL    HW162609   9.527   2.812   6.314  0.1504  0.2161  0.7282
20677SOL    HW262610   9.384   2.767   6.338  0.1482 -0.1409  0.0953
20678SOL     OW62611   6.391   8.578   5.708 -0.0880 -0.2192  0.5673
20678SOL    HW162612   6.437   8.546   5.631  1.5529  0.1436  1.3375
20678SOL    HW262613   6.443   8.545   5.782  0.7009  2.6420  1.4328
20679SOL     OW62614   1.539   0.817   5.413  0.6679 -0.1553 -0.1141
20679SOL    HW162615   1.486   0.889   5.445  1.0394 -0.4303  1.1762
20679SOL    HW262616   1.604   0.858   5.356  0.0426  0.3652 -0.4570
20680SOL     OW62617   7.424   4.736   4.253 -0.1176  0.6059  0.1156
20680SOL    HW162618   7.449   4.649   4.221 -1.5317 -0.3807  1.5413
20680SOL    HW262619   7.350   4.760   4.197 -0.7156  0.1872  0.7161
20681SOL     OW62620   4.315   7.351   9.054 -0.1684  0.9295  0.9632
20681SOL    HW162621   4.409   7.336   9.043 -0.3162 -1.3132  2.2496
20681SOL    HW262622   4.276   7.319   8.973  0.0962  1.2098  0.7180
20682SOL     OW62623   6.865   7.452   4.199 -0.0117 -0.0442 -0.6106
20682SOL    HW162624   6.911   7.443   4.116  1.8102  0.1607  0.3385
20682SOL    HW262625   6.889   7.374   4.249 -1.0529 -0.1449 -0.2350
20683SOL     OW62626   5.028   9.632   9.918 -0.1864  0.1503  0.2035
20683SOL    HW162627   5.053   9.688   9.992  1.2990 -0.3295  0.0890
20683SOL    HW262628   4.967   9.686   9.868 -0.4826  0.8420  1.2564
20684SOL     OW62629   8.254   3.087   1.448  0.3616 -0.4639  0.3738
20684SOL    HW162630   8.236   3.012   1.504 -0.6688 -1.5364 -1.2987
20684SOL    HW262631   8.347   3.104   1.461  0.8652 -2.6479  0.1278
20685SOL     OW62632   6.075   1.091   6.223 -0.7399 -0.0429  0.3732
20685SOL    HW162633   6.042   1.178   6.199  0.1885  1.3162  3.4762
20685SOL    HW262634   6.165   1.090   6.190 -0.9927 -0.1372 -0.3191
20686SOL     OW62635   6.546   5.084   2.284  0.0117 -0.3955 -0.7366
20686SOL    HW162636   6.461   5.040   2.284  1.1107 -2.7131  0.3285
20686SOL    HW262637   6.559   5.112   2.194 -1.3085 -1.1984 -1.1990
20687SOL     OW62638   4.964   8.346   2.131  0.0011  0.1486  0.2667
20687SOL    HW162639   5.030   8.408   2.162 -0.0105  0.0697  0.4538
20687SOL    HW262640   4.998   8.260   2.156 -0.3499  0.1311  0.7110
20688SOL     OW62641   4.907   9.731   2.087  0.8688 -0.1188 -0.3549
20688SOL    HW162642   4.846   9.803   2.071  1.1377  0.1978  0.0101
20688SOL    HW262643   4.877   9.661   2.030  0.0459 -0.0341 -0.0453
20689SOL     OW62644   5.469   1.598   0.166  0.1918 -0.4452  0.2005
20689SOL    HW162645   5.537   1.540   0.199  0.9787  0.2079 -0.2452
20689SOL    HW262646   5.390   1.544   0.165  0.7207 -1.2423  0.6324
20690SOL     OW62647   0.218   0.982   8.346  0.9064  1.0650  0.4315
20690SOL    HW162648   0.300   1.009   8.387  1.0953  0.8677  0.1876
20690SOL    HW262649   0.156   1.053   8.366  1.4621  1.8181 -0.4281
20691SOL     OW62650   9.341   2.837   2.778 -0.3292 -0.1139 -0.2624
20691SOL    HW162651   9.339   2.821   2.872 -2.0021  0.0782 -0.2270
20691SOL    HW262652   9.255   2.876   2.759 -0.3427 -0.9100 -1.9910
20692SOL     OW62653   0.908   3.701   5.915 -0.3171  0.3111  0.2947
20692SOL    HW162654   0.836   3.696   5.977 -0.6440  2.8734  0.2254
20692SOL    HW262655   0.884   3.772   5.855  0.5745 -1.2198 -2.0275
20693SOL     OW62656   9.850   6.449   8.406  0.4530 -0.2192 -0.1351
20693SOL    HW162657   9.830   6.446   8.499 -2.0472  2.1445 -0.4774
20693SOL    HW262658   9.900   6.529   8.394  0.1925 -0.1556 -0.8890
20694SOL     OW62659   0.721   5.245   8.537  0.0173  0.1038 -0.2390
20694SOL    HW162660   0.641   5.216   8.494  0.7111 -1.7387 -0.3820
20694SOL    HW262661   0.731   5.187   8.612  1.6265 -0.2393 -0.6756
20695SOL     OW62662   9.930   6.792   6.857 -0.0157 -0.5351  0.0230
20695SOL    HW162663   9.884   6.771   6.776 -1.1169  1.1413  0.1607
20695SOL    HW262664   9.867   6.842   6.909  1.9482  1.9906  0.1771
20696SOL     OW62665   3.304   3.230   4.712  0.3850  0.1295  0.4631
20696SOL    HW162666   3.219   3.272   4.722  0.1535 -0.0448 -0.6484
20696SOL    HW262667   3.296   3.178   4.632  1.8973  0.9984 -0.3004
20697SOL     OW62668   5.811   2.865   2.579 -0.2437  0.0132 -0.4144
20697SOL    HW162669   5.830   2.953   2.613  0.8770  0.3564 -1.8431
20697SOL    HW262670   5.886   2.844   2.523  0.5289 -2.7144  1.4485
20698SOL     OW62671   4.935   2.815   4.477  0.0412 -0.0225  0.4612
20698SOL    HW162672   4.898   2.832   4.390 -0.0074 -1.0312  0.2751
20698SOL    HW262673   4.859   2.810   4.535 -0.1265 -1.5722  0.1653
20699SOL     OW62674   8.326   2.124   1.707  0.2915  0.1154  0.1298
20699SOL    HW162675   8.243   2.141   1.661  1.9503  1.8429 -2.4507
20699SOL    HW262676   8.366   2.052   1.659  1.0284  0.3646  0.3625
20700SOL     OW62677   2.457   7.463   0.332 -0.5433  0.2552 -0.2750
20700SOL    HW162678   2.530   7.445   0.273  1.2408  1.4793  1.4148
20700SOL    HW262679   2.488   7.433   0.417 -2.1546  0.5336  0.4372
20701SOL     OW62680   4.978   7.280   0.435 -0.3763 -0.3155 -0.0365
20701SOL    HW162681   5.066   7.293   0.400  0.0296 -0.9182  0.7127
20701SOL    HW262682   4.933   7.228   0.369  0.8183 -2.6562  0.8636
20702SOL     OW62683   3.977   4.443   2.183 -0.2459 -0.8781  0.5322
20702SOL    HW162684   4.058   4.391   2.176  0.9526  0.7625  1.5330
20702SOL    HW262685   3.977   4.473   2.273  0.2519  2.5843 -0.4940
20703SOL     OW62686   2.178   5.827   8.399  0.2756 -0.0655  0.1080
20703SOL    HW162687   2.163   5.887   8.327  1.3876 -0.4220 -0.4370
20703SOL    HW262688   2.249   5.770   8.370 -0.0077 -0.9401  1.0427
20704SOL     OW62689   7.228   1.163   0.411  0.0562  0.5002 -0.1630
20704SOL    HW162690   7.257   1.185   0.500 -1.1999  1.1504  0.0989
20704SOL    HW262691   7.201   1.071   0.417  1.2343  0.1217 -0.2238
20705SOL     OW62692   5.054   0.889   0.564  0.2586  1.0139  0.1170
20705SOL    HW162693   4.971   0.937   0.561 -0.6659 -0.5452 -0.2586
20705SOL    HW262694   5.029   0.797   0.560  1.9731  0.4720  0.9879
20706SOL     OW62695   0.224   2.245   5.950 -0.1131  0.1651  0.2662
20706SOL    HW162696   0.175   2.317   5.910 -0.8546 -0.5549 -0.1436
20706SOL    HW262697   0.215   2.260   6.044 -0.4359  0.4978  0.1842
20707SOL     OW62698   3.067   7.763   8.601  0.5691 -0.5131 -1.0894
20707SOL    HW162699   3.097   7.686   8.649 -0.4044  0.2789  0.9029
20707SOL    HW262700   3.015   7.727   8.529 -1.4193 -1.8079  0.8355
20708SOL     OW62701   3.875   8.742   6.255  0.6518  0.2584 -0.3189
20708SOL    HW162702   3.911   8.729   6.168 -0.9884 -1.7223 -0.7637
20708SOL    HW262703   3.788   8.778   6.240 -0.9894 -3.0969  0.2222
20709SOL     OW62704   9.563   9.260   5.111  0.7155  0.3008  0.0874
20709SOL    HW162705   9.595   9.267   5.021  1.5495  1.8029  0.4789
20709SOL    HW262706   9.486   9.316   5.114  2.6983  3.1978  1.1397
20710SOL     OW62707   2.303   9.327   9.051  0.4336 -0.0624  0.0224
20710SOL    HW162708   2.377   9.267   9.061 -0.1898 -0.6924  1.0946
20710SOL    HW262709   2.318   9.394   9.118 -1.3391 -1.7119  2.2250
20711SOL     OW62710   2.450   9.734   7.510  0.3186 -0.6513  0.3867
20711SOL    HW162711   2.407   9.818   7.526  1.4324  0.2162 -0.9526
20711SOL    HW262712   2.388   9.669   7.542 -0.3949  0.6848  1.8202
20712SOL     OW62713   7.718   1.340   0.523 -0.3425  0.3373 -0.1378
20712SOL    HW162714   7.803   1.298   0.526 -0.4357 -0.3945 -3.6948
20712SOL    HW262715   7.657   1.273   0.554  0.2347  0.6916  1.9103
20713SOL     OW62716   4.991   6.622   9.245  0.7389  0.4357  0.9390
20713SOL    HW162717   4.917   6.683   9.250 -0.7244 -1.1970  0.2446
20713SOL    HW262718   5.018   6.625   9.153  0.1508 -0.5233  0.7306
20714SOL     OW62719   9.578   6.875   0.895 -0.0702  0.0029  0.1196
20714SOL    HW162720   9.660   6.833   0.921  0.9970  1.4432 -0.7693
20714SOL    HW262721   9.579   6.960   0.940 -1.1616 -0.0243  0.2181
20715SOL     OW62722   0.075   6.419   2.970 -0.0448  0.2051  0.0524
20715SOL    HW162723   0.008   6.356   2.999  0.2413 -0.1576 -0.0687
20715SOL    HW262724   0.032   6.469   2.900 -0.7716  1.1421  1.1225
20716SOL     OW62725   1.777   6.719   6.202  0.0465  0.2299 -0.5362
20716SOL    HW162726   1.797   6.716   6.296 -2.5238 -0.8395  0.0289
20716SOL    HW262727   1.782   6.813   6.181  1.1650  0.4437  0.4990
20717SOL     OW62728   2.085   5.117   5.212  0.0894  0.2586 -0.8459
20717SOL    HW162729   2.131   5.138   5.131  1.7021 -0.2967 -0.1041
20717SOL    HW262730   2.062   5.024   5.203  2.6919 -0.5800  0.4107
20718SOL     OW62731   3.171   7.381   3.968  0.2418 -0.2965  0.4075
20718SOL    HW162732   3.232   7.428   4.026 -0.0911 -0.6378  1.0498
20718SOL    HW262733   3.223   7.362   3.890  0.1908  1.6939 -0.1528
20719SOL     OW62734   9.742   3.354   3.632  0.1473 -0.0433 -0.4788
20719SOL    HW162735   9.676   3.421   3.648 -0.0592 -0.3259 -0.1340
20719SOL    HW262736   9.692   3.272   3.628  0.2280 -0.0565 -2.1330
20720SOL     OW62737   7.032   7.933   2.915  0.0762  0.8827  0.4597
20720SOL    HW162738   6.982   7.851   2.908  1.0046  0.0389  2.8505
20720SOL    HW262739   7.019   7.961   3.005  1.3815  2.3306  0.2290
20721SOL     OW62740   3.502   2.285   9.108 -0.3611  0.3127 -0.1757
20721SOL    HW162741   3.543   2.212   9.063  0.0420  0.1125  0.5000
20721SOL    HW262742   3.541   2.363   9.069 -0.3878  0.1523 -0.5187
20722SOL     OW62743   6.220   3.557   8.524  0.2744  0.3295  0.1568
20722SOL    HW162744   6.295   3.608   8.556 -0.5009  1.6053  0.0262
20722SOL    HW262745   6.245   3.531   8.436  0.6641  0.5353  0.2014
20723SOL     OW62746   7.167   4.434   4.802  0.0783  0.6507 -0.5886
20723SOL    HW162747   7.241   4.408   4.746  0.9154  0.2101  0.6833
20723SOL    HW262748   7.132   4.352   4.835 -0.0885  0.9310 -0.0645
20724SOL     OW62749   8.864   6.147   2.636 -0.4407  0.4800  0.3604
20724SOL    HW162750   8.813   6.131   2.557 -2.8291  1.6364  1.5503
20724SOL    HW262751   8.835   6.233   2.666  0.7200  0.2688  2.2550
20725SOL     OW62752   9.815   0.252   9.631 -0.1870 -0.0118  0.6884
20725SOL    HW162753   9.859   0.229   9.549 -2.3671 -1.9275 -0.0580
20725SOL    HW262754   9.861   0.202   9.698 -1.3484 -2.3953 -0.1496
20726SOL     OW62755   6.941   6.034   1.457 -0.0214  0.0931 -0.1617
20726SOL    HW162756   6.904   5.948   1.476  1.8447 -0.8303 -0.4450
20726SOL    HW262757   7.004   6.018   1.386  0.0256  1.7765 -0.5313
20727SOL     OW62758   9.488   4.209   0.908  0.3897  0.1822 -0.7173
20727SOL    HW162759   9.471   4.118   0.885  1.5991  0.0059 -1.0087
20727SOL    HW262760   9.564   4.206   0.966  0.6793  1.0182 -1.0242
20728SOL     OW62761   8.386   2.281   7.961  0.2396 -0.4315  0.3554
20728SOL    HW162762   8.416   2.345   7.896 -0.8841  0.2848  0.5010
20728SOL    HW262763   8.410   2.320   8.045 -1.0750  0.1757  0.4754
20729SOL     OW62764   8.655   1.792   5.023  0.1303  0.0017 -0.5480
20729SOL    HW162765   8.582   1.854   5.026 -1.2605 -1.4844 -1.7643
20729SOL    HW262766   8.643   1.736   5.099  1.2969  1.0466  0.4594
20730SOL     OW62767   1.367   4.773   3.290 -0.1194  0.1245 -0.3596
20730SOL    HW162768   1.410   4.856   3.268 -1.5324  0.8491 -0.5197
20730SOL    HW262769   1.333   4.787   3.379  0.7196 -0.7624  0.1236
20731SOL     OW62770   6.888   2.619   4.456  0.0495 -0.4119  0.7458
20731SOL    HW162771   6.887   2.575   4.540 -1.2947  0.8084  1.4129
20731SOL    HW262772   6.981   2.625   4.433  0.5326  0.1619  2.6615
20732SOL     OW62773   2.952   2.718   8.778 -0.1223  0.3545  0.0856
20732SOL    HW162774   3.033   2.716   8.830 -0.1427 -0.7671  0.1006
20732SOL    HW262775   2.980   2.749   8.692  0.1923  0.6866  0.3018
20733SOL     OW62776   8.118   8.209   5.209  0.0600 -0.1818 -0.2364
20733SOL    HW162777   8.110   8.257   5.292  0.2806 -0.7975  0.1523
20733SOL    HW262778   8.202   8.236   5.173 -0.4932  0.8713 -0.7817
20734SOL     OW62779   0.365   7.145   6.800 -0.3056  0.0116  0.6076
20734SOL    HW162780   0.299   7.214   6.803 -0.1331  0.2345 -0.2854
20734SOL    HW262781   0.439   7.180   6.849 -0.4460  0.2123  0.6793
20735SOL     OW62782   5.483   1.466   8.770  0.6171 -0.2072 -0.1123
20735SOL    HW162783   5.570   1.479   8.807  0.8148  1.4491 -1.0816
20735SOL    HW262784   5.467   1.544   8.718 -1.5361 -0.3875  0.1804
20736SOL     OW62785   5.651   6.748   1.366 -0.0006 -0.1573 -0.2236
20736SOL    HW162786   5.685   6.676   1.314 -0.6577 -0.7689  0.1852
20736SOL    HW262787   5.557   6.748   1.349  0.0147  0.7523 -0.3965
20737SOL     OW62788   2.006   9.400   4.925 -0.2839  0.4192 -0.0839
20737SOL    HW162789   1.998   9.354   4.841  1.1739 -1.2118  0.6054
20737SOL    HW262790   1.916   9.423   4.949 -1.1910 -2.5879 -0.2395
20738SOL     OW62791   6.857   2.114   8.451 -0.3630 -0.5716 -1.2853
20738SOL    HW162792   6.853   2.082   8.541  3.9993  0.4161 -0.5356
20738SOL    HW262793   6.810   2.198   8.453 -0.0140 -0.3839  0.2074
20739SOL     OW62794   2.786   5.279   3.275 -0.3160 -0.7030  0.3408
20739SOL    HW162795   2.744   5.359   3.244  1.3386 -0.0616 -0.3815
20739SOL    HW262796   2.736   5.208   3.235 -0.7920  0.0147 -0.3737
20740SOL     OW62797   2.294   0.091   8.283  0.2791  0.2641 -0.4581
20740SOL    HW162798   2.296   0.015   8.225 -1.0508  0.8992 -1.4028
20740SOL    HW262799   2.302   0.055   8.371  1.3274 -0.8073 -0.9674
20741SOL     OW62800   9.372   9.904   3.585  0.4765  0.2936  0.0340
20741SOL    HW162801   9.391   9.934   3.673  2.1321  0.6114 -0.4074
20741SOL    HW262802   9.382   9.809   3.589  1.9934  0.4276 -0.1188
20742SOL     OW62803   8.260   2.302   7.685 -0.5033 -0.0910  0.0370
20742SOL    HW162804   8.185   2.266   7.638 -0.7546  1.3392 -0.7165
20742SOL    HW262805   8.222   2.345   7.761 -0.3718 -0.0515  0.0811
20743SOL     OW62806   0.961   3.713   7.577  0.5796  0.1564 -0.0700
20743SOL    HW162807   0.975   3.618   7.580  0.0328  0.0750 -0.0877
20743SOL    HW262808   1.049   3.750   7.582  0.7255 -0.3103  1.5902
20744SOL     OW62809   1.316   3.262   6.210  0.1118 -0.1772 -0.7346
20744SOL    HW162810   1.284   3.300   6.293  0.6655  0.3215 -0.7446
20744SOL    HW262811   1.300   3.331   6.146  1.4809  0.2009 -0.6861
20745SOL     OW62812   1.685   4.155   1.684  0.1374  0.0018 -0.2869
20745SOL    HW162813   1.609   4.110   1.647  1.4250 -1.4356 -1.2867
20745SOL    HW262814   1.732   4.190   1.608  1.4847 -0.7931  0.1391
20746SOL     OW62815   6.563   4.165   5.167  0.6093  0.4680  0.2964
20746SOL    HW162816   6.539   4.073   5.165 -0.6606  0.7484  1.1667
20746SOL    HW262817   6.538   4.195   5.254  0.2278  1.8165 -0.2427
20747SOL     OW62818   3.905   8.100   9.296  0.0688 -0.0697  0.2806
20747SOL    HW162819   3.962   8.149   9.355  0.2124 -0.3030  0.3353
20747SOL    HW262820   3.904   8.011   9.332  0.9076 -0.4476 -0.6022
20748SOL     OW62821   5.714   5.103   1.822  0.7866 -0.3824  0.0294
20748SOL    HW162822   5.681   5.114   1.733 -0.6678 -2.0648  0.3135
20748SOL    HW262823   5.725   5.008   1.833  0.8367 -0.2232  1.6634
20749SOL     OW62824   5.590   6.722   7.918  0.1943  0.1961 -0.1373
20749SOL    HW162825   5.532   6.707   7.993 -0.0390 -0.8482 -0.5200
20749SOL    HW262826   5.645   6.644   7.913  1.0819  0.8213 -0.2814
20750SOL     OW62827   7.047   0.886   5.911  0.2085  0.1047 -0.2786
20750SOL    HW162828   7.013   0.797   5.904  0.6563  0.0082 -1.5424
20750SOL    HW262829   6.973   0.939   5.942 -0.4093 -0.4955 -0.7115
20751SOL     OW62830   7.180   2.633   5.897 -0.1029  0.7527  0.1319
20751SOL    HW162831   7.140   2.693   5.961 -1.2718  0.4276 -0.2750
20751SOL    HW262832   7.152   2.667   5.812 -0.4450 -0.1283 -0.1163
20752SOL     OW62833   6.235   6.728   5.516  0.5423  0.1485  0.4341
20752SOL    HW162834   6.319   6.737   5.471 -0.1315  0.9710 -0.7113
20752SOL    HW262835   6.186   6.806   5.492 -0.0581  0.3632  2.2137
20753SOL     OW62836   4.424   9.489   0.459  0.4635  0.0409 -0.9063
20753SOL    HW162837   4.341   9.489   0.412  0.0130  0.9079 -0.1366
20753SOL    HW262838   4.459   9.400   0.447 -0.9424 -0.5713 -0.6102
20754SOL     OW62839   1.811   0.120   8.060 -0.1120 -0.6445  0.1274
20754SOL    HW162840   1.811   0.057   8.132 -1.1543  1.3563  2.0296
20754SOL    HW262841   1.903   0.148   8.053  0.0544 -1.0904  0.4789
20755SOL     OW62842   2.181   8.855   0.242 -0.1576  0.3938  0.5767
20755SOL    HW162843   2.141   8.894   0.320 -0.8983 -0.4885  0.6498
20755SOL    HW262844   2.138   8.770   0.232  0.7293  0.0019 -0.1442
20756SOL     OW62845   8.655   6.760   8.930  0.2657 -0.1842 -0.0124
20756SOL    HW162846   8.698   6.753   9.016  0.0902 -0.8218  0.0263
20756SOL    HW262847   8.589   6.829   8.943  0.9022  0.4187  0.0800
20757SOL     OW62848   5.605   3.902   5.849  0.3318 -0.1703  0.0345
20757SOL    HW162849   5.577   3.980   5.897 -1.8431 -1.1623  0.4891
20757SOL    HW262850   5.552   3.902   5.769  0.4076 -1.1166 -0.0240
20758SOL     OW62851   8.856   6.842   3.626  0.3354  0.3041 -0.5568
20758SOL    HW162852   8.779   6.795   3.597  2.0099 -2.6678 -0.5888
20758SOL    HW262853   8.852   6.839   3.722 -0.1058  1.1231 -0.5418
20759SOL     OW62854   4.499   6.607   4.634  0.5304  0.7347 -0.3750
20759SOL    HW162855   4.526   6.695   4.658  0.0319  0.9553 -0.6087
20759SOL    HW262856   4.560   6.549   4.680  1.6016  1.2184 -1.1333
20760SOL     OW62857   8.819   6.015   1.418 -0.0258 -0.2010 -0.2881
20760SOL    HW162858   8.810   5.920   1.410 -1.2962 -0.3608  2.0338
20760SOL    HW262859   8.796   6.033   1.509  1.6819  2.1915 -0.2442
20761SOL     OW62860   9.605   5.243   9.305  0.5921 -0.2345  0.1005
20761SOL    HW162861   9.538   5.216   9.243 -2.9886  1.9199  2.6761
20761SOL    HW262862   9.566   5.228   9.392  2.9589  2.1454  1.7453
20762SOL     OW62863   2.732   6.006   3.030 -0.5349  0.2135  0.5706
20762SOL    HW162864   2.747   5.975   2.941 -0.4031  0.4175  0.5221
20762SOL    HW262865   2.744   5.928   3.085  0.4760  0.3143  0.5123
20763SOL     OW62866   9.421   0.399   8.694  0.8740 -0.4158 -0.0677
20763SOL    HW162867   9.422   0.377   8.787  0.1182  0.1487  0.0870
20763SOL    HW262868   9.430   0.494   8.692  1.3227 -0.4685 -0.5953
20764SOL     OW62869   0.039   2.444   4.130 -0.3300 -0.1238 -0.5509
20764SOL    HW162870   0.122   2.432   4.175  0.0049  0.2174 -1.0733
20764SOL    HW262871  -0.027   2.428   4.198  0.1689  1.7869  0.4596
20765SOL     OW62872   9.818   6.324   6.340  0.0060 -0.3097  0.2622
20765SOL    HW162873   9.870   6.322   6.420  0.5561 -1.5150 -0.1018
20765SOL    HW262874   9.843   6.244   6.293  1.2523  1.3345 -2.0944
20766SOL     OW62875   1.624   1.209   5.387 -0.1003  0.3378  0.1813
20766SOL    HW162876   1.573   1.162   5.454  0.2397 -0.5430 -0.1584
20766SOL    HW262877   1.704   1.157   5.378  0.0998  0.7568 -0.5201
20767SOL     OW62878   1.672   7.114   8.283 -0.5072 -0.2963  0.8298
20767SOL    HW162879   1.752   7.117   8.335 -0.8474  0.2298  1.3338
20767SOL    HW262880   1.651   7.206   8.266 -1.9933 -0.3163  2.2514
20768SOL     OW62881   1.328   7.190   4.680  0.3340 -0.6929  0.2616
20768SOL    HW162882   1.340   7.285   4.683 -0.7339 -0.5118 -0.4065
20768SOL    HW262883   1.407   7.157   4.639  1.2473 -0.2257  1.5607
20769SOL     OW62884   0.615   7.110   6.516  0.5037  0.3034  0.3149
20769SOL    HW162885   0.672   7.060   6.457  0.5707 -0.8622  1.3427
20769SOL    HW262886   0.563   7.045   6.561 -0.9177  1.3055  0.1780
20770SOL     OW62887   4.743   3.180   6.844  0.2803  0.1136 -0.2926
20770SOL    HW162888   4.660   3.188   6.796 -0.5953  0.0850  1.1662
20770SOL    HW262889   4.732   3.101   6.897  1.1595  0.2461  0.1001
20771SOL     OW62890   9.492   1.306   4.467  0.0935 -0.3110 -0.0581
20771SOL    HW162891   9.407   1.346   4.448  0.1610  0.5219  1.2296
20771SOL    HW262892   9.507   1.244   4.395 -2.4211 -1.8053  0.5895
20772SOL     OW62893   5.057   3.847   1.270 -0.1759  0.2650  0.1878
20772SOL    HW162894   5.108   3.840   1.190  0.1583 -0.9783  0.4843
20772SOL    HW262895   4.967   3.826   1.243 -0.2181  0.7029 -0.0138
20773SOL     OW62896   9.568   3.081   9.631  0.5081 -0.0596  0.5191
20773SOL    HW162897   9.605   3.028   9.561  1.8235 -1.5055  2.1984
20773SOL    HW262898   9.479   3.049   9.641 -0.0908  0.9448 -1.1708
20774SOL     OW62899   0.538   8.462   8.917 -0.3900 -0.1021  0.0597
20774SOL    HW162900   0.565   8.396   8.980 -1.4452  1.1810  1.9714
20774SOL    HW262901   0.621   8.498   8.883  0.2455 -0.0912  1.5430
20775SOL     OW62902   1.861   6.689   0.503 -0.1402  0.3948 -0.0055
20775SOL    HW162903   1.891   6.602   0.530 -0.0235  0.1494 -0.9215
20775SOL    HW262904   1.876   6.744   0.580 -2.2436 -0.8329  1.3852
20776SOL     OW62905   1.295   6.107   8.839  0.3017 -0.4025  0.8063
20776SOL    HW162906   1.221   6.088   8.781 -0.9462  1.7204  1.5806
20776SOL    HW262907   1.370   6.112   8.780 -0.8692  1.3083 -0.6684
20777SOL     OW62908   6.625   9.010   9.537 -0.3390  0.0302 -0.0290
20777SOL    HW162909   6.685   8.997   9.464 -0.1805 -1.3873  0.3358
20777SOL    HW262910   6.564   9.077   9.506  0.3754  0.2438 -1.0410
20778SOL     OW62911   4.234   9.480   2.327  0.8815  1.2239  0.7129
20778SOL    HW162912   4.198   9.542   2.263 -1.2612  0.8033  1.4313
20778SOL    HW262913   4.224   9.524   2.412  0.6731  0.4816  1.0841
20779SOL     OW62914   1.190   7.099   9.790  0.1073 -0.4215 -0.0882
20779SOL    HW162915   1.200   7.052   9.873  4.0383  2.2390  1.2493
20779SOL    HW262916   1.105   7.142   9.797  0.5730  0.2376  2.9575
20780SOL     OW62917   2.430   2.787   8.016  0.5118 -0.6486  0.7533
20780SOL    HW162918   2.439   2.811   7.924  0.7876  1.1742  1.2172
20780SOL    HW262919   2.520   2.788   8.050  0.2851  0.0532  1.3496
20781SOL     OW62920   6.271   9.091   2.092 -0.1391 -0.1087 -0.0588
20781SOL    HW162921   6.212   9.099   2.018 -0.7938 -1.2356  0.3278
20781SOL    HW262922   6.320   9.010   2.076 -0.7658 -0.7265  1.0644
20782SOL     OW62923   2.534   3.288   1.826 -0.0413 -0.3183 -0.1036
20782SOL    HW162924   2.514   3.247   1.742  1.5908 -1.6051  0.0990
20782SOL    HW262925   2.480   3.242   1.890 -0.5384 -0.0132 -0.3000
20783SOL     OW62926   4.527   7.580   9.450 -0.6670  0.3293  0.0993
20783SOL    HW162927   4.483   7.629   9.519 -1.3299  0.0737 -0.1292
20783SOL    HW262928   4.581   7.516   9.496  0.7214  1.6716  0.4187
20784SOL     OW62929   9.706   6.812   8.766 -0.5390 -0.1872  1.0158
20784SOL    HW162930   9.660   6.762   8.699 -0.2580  1.4560 -0.4782
20784SOL    HW262931   9.752   6.746   8.817  1.7832 -1.4299 -2.3176
20785SOL     OW62932   4.043   7.112   5.773  0.7294 -0.0073  0.3635
20785SOL    HW162933   4.036   7.167   5.695 -0.4000 -0.4026  0.1628
20785SOL    HW262934   4.116   7.149   5.823  0.6262  1.0486 -0.2505
20786SOL     OW62935   8.088   3.962   6.447 -0.1349  0.3857 -0.5829
20786SOL    HW162936   8.022   3.967   6.379 -1.2105  0.6308  0.4469
20786SOL    HW262937   8.082   3.873   6.481  0.5971  0.1733 -0.9800
20787SOL     OW62938   4.889   9.801   0.352 -0.6482  0.7200 -0.1350
20787SOL    HW162939   4.889   9.708   0.329  2.7521  0.9445 -1.5870
20787SOL    HW262940   4.874   9.803   0.447  0.9087 -1.4797  0.2249
20788SOL     OW62941   6.609   5.026   5.488  0.4000  0.5836  0.4279
20788SOL    HW162942   6.537   5.088   5.497 -0.2739 -0.0093 -0.6900
20788SOL    HW262943   6.572   4.943   5.518  0.1511 -0.0263 -1.4620
20789SOL     OW62944   8.081   6.910   7.932  0.3916 -0.0641  0.0496
20789SOL    HW162945   8.165   6.890   7.891  0.7573  0.6771  0.4051
20789SOL    HW262946   8.059   6.998   7.900 -0.1264 -0.1551  0.1464
20790SOL     OW62947   0.495   3.862   6.990  0.4489 -0.2385 -0.3002
20790SOL    HW162948   0.445   3.848   6.910  0.9882 -0.3387 -0.6214
20790SOL    HW262949   0.586   3.862   6.962  0.5951  1.1143  0.0955
20791SOL     OW62950   8.789   1.192   6.826 -0.1097 -0.3455  0.1739
20791SOL    HW162951   8.763   1.240   6.905  0.1948 -2.1540  1.4378
20791SOL    HW262952   8.707   1.160   6.790 -0.2012 -0.0463  0.1129
20792SOL     OW62953   3.782   0.491   2.072 -0.3063 -0.2199 -0.4553
20792SOL    HW162954   3.702   0.530   2.105 -1.1500 -0.8598 -1.6405
20792SOL    HW262955   3.752   0.425   2.009  1.1358 -0.8640 -0.5142
20793SOL     OW62956   7.136   6.867   4.840 -0.5676 -0.5134  0.5142
20793SOL    HW162957   7.187   6.861   4.759 -1.6770 -0.2016 -0.2283
20793SOL    HW262958   7.176   6.802   4.898  0.2989 -0.6831 -0.2448
20794SOL     OW62959   9.715   9.491   9.879  0.4576 -0.7469 -0.0310
20794SOL    HW162960   9.705   9.437   9.958  0.1384  1.1355  1.2761
20794SOL    HW262961   9.644   9.554   9.884  0.6690 -0.3307 -1.6494
20795SOL     OW62962   4.915   4.455   1.518  0.0340  0.1121 -0.1098
20795SOL    HW162963   4.912   4.546   1.547  0.7005 -0.0001  0.3545
20795SOL    HW262964   4.872   4.454   1.433  0.0785  0.8754 -0.1408
20796SOL     OW62965   8.626   0.464   4.015 -0.0195 -0.7675 -0.5673
20796SOL    HW162966   8.699   0.523   4.034 -2.2120  2.1148 -0.5014
20796SOL    HW262967   8.624   0.404   4.089  2.0184 -0.7286 -0.4071
20797SOL     OW62968   2.614   0.681   8.621  0.5425 -0.1103 -0.5837
20797SOL    HW162969   2.618   0.770   8.585  0.1208  0.5612  0.9625
20797SOL    HW262970   2.661   0.686   8.703 -0.2693 -1.0997 -0.0343
20798SOL     OW62971   4.598   3.226   4.911 -0.1337  0.2832  0.3526
20798SOL    HW162972   4.567   3.272   4.833 -0.2016  0.8484  0.7028
20798SOL    HW262973   4.587   3.289   4.982 -0.2798 -0.2981  0.8598
20799SOL     OW62974   7.252   5.233   5.958 -0.1622 -0.2244 -0.4865
20799SOL    HW162975   7.318   5.170   5.928  0.4167  0.1090  0.0766
20799SOL    HW262976   7.181   5.225   5.894 -0.3273 -1.8317 -0.1368
20800SOL     OW62977   6.433   7.671   0.665 -0.1561 -0.2136  0.1620
20800SOL    HW162978   6.414   7.741   0.603  1.6185  0.8060  0.6755
20800SOL    HW262979   6.524   7.687   0.692  0.2608 -2.6326  0.4301
20801SOL     OW62980   1.809   6.948   9.802  0.3565  0.4909 -0.8912
20801SOL    HW162981   1.847   7.006   9.868 -1.8376 -1.0683  2.0124
20801SOL    HW262982   1.738   7.000   9.763  0.7062  0.9259 -0.9611
20802SOL     OW62983   3.677   1.103   0.814  0.1635 -0.1422 -0.2577
20802SOL    HW162984   3.601   1.131   0.764  0.8731 -0.0727 -1.3253
20802SOL    HW262985   3.650   1.113   0.906 -0.1050  2.8397 -0.5444
20803SOL     OW62986   0.651   2.927   2.042  0.2015 -0.2839 -0.0888
20803SOL    HW162987   0.604   2.981   2.106  0.3288 -0.2482 -0.0258
20803SOL    HW262988   0.628   2.965   1.957  0.8032  0.2740 -0.0120
20804SOL     OW62989   6.352   3.744   2.380  0.2601 -0.0389  0.4848
20804SOL    HW162990   6.350   3.826   2.331  1.5185 -0.1013  0.2755
20804SOL    HW262991   6.435   3.703   2.353 -0.9382 -1.9968 -0.4130
20805SOL     OW62992   6.284   2.534   3.444 -0.3309 -0.1982 -0.1546
20805SOL    HW162993   6.322   2.517   3.358  0.2516 -1.3706  0.3193
20805SOL    HW262994   6.359   2.552   3.500 -0.7821  2.0636 -0.1670
20806SOL     OW62995   9.010   1.216   7.897 -0.8549 -0.3096 -0.0262
20806SOL    HW162996   9.036   1.129   7.928 -1.7322 -1.3062 -1.9285
20806SOL    HW262997   9.074   1.238   7.830 -0.9142  0.3216  0.1162
20807SOL     OW62998   1.927   1.444   9.469 -0.0419 -0.0519  0.0273
20807SOL    HW162999   1.839   1.441   9.506  0.5392 -0.2433  1.4733
20807SOL    HW263000   1.920   1.500   9.392 -1.7384 -1.3233 -0.8028
20808SOL     OW63001   8.381   0.102   1.821 -0.4094 -0.0044  0.5683
20808SOL    HW163002   8.335   0.140   1.746  1.5227  2.8011  0.6686
20808SOL    HW263003   8.437   0.034   1.783  1.3994  2.1306 -0.8162
20809SOL     OW63004   2.840   0.027   2.210  0.3939 -0.3178 -0.3331
20809SOL    HW163005   2.907   0.015   2.142  0.3604 -1.4014 -0.2003
20809SOL    HW263006   2.785   0.098   2.178  1.1878  0.1041 -0.7861
20810SOL     OW63007   8.071   2.845   0.018 -0.3746 -0.2669  0.5504
20810SOL    HW163008   8.126   2.879   0.089 -0.3282  0.0000  0.3893
20810SOL    HW263009   7.993   2.812   0.062 -1.5230  2.2146  0.5531
20811SOL     OW63010   7.995   3.613   5.951 -0.3221  0.2041 -0.2090
20811SOL    HW163011   8.052   3.690   5.948 -0.3935  0.3704  1.5152
20811SOL    HW263012   8.055   3.540   5.967 -0.4607  0.2177  0.3961
20812SOL     OW63013   7.146   2.063   2.864  0.3889  0.4764  0.4828
20812SOL    HW163014   7.177   2.009   2.792  0.7681  0.2108  0.8405
20812SOL    HW263015   7.081   2.121   2.825 -2.7502 -2.5667  0.6549
20813SOL     OW63016   0.010   7.467   6.412 -0.4911 -0.1672  0.1549
20813SOL    HW163017   0.007   7.478   6.317  1.6605  3.4133  0.3215
20813SOL    HW263018   0.094   7.424   6.429 -1.4188 -1.9472  0.4529
20814SOL     OW63019   9.348   8.066   6.926  0.1139  0.0066  0.7742
20814SOL    HW163020   9.442   8.077   6.912 -0.2880  2.3442 -0.8352
20814SOL    HW263021   9.319   8.152   6.957 -1.5503 -0.5021  0.7144
20815SOL     OW63022   9.795   3.364   2.357 -0.2737 -0.2073 -0.2965
20815SOL    HW163023   9.759   3.451   2.375  2.0265  0.4791  1.3877
20815SOL    HW263024   9.727   3.304   2.385 -1.7024  1.0031 -0.9900
20816SOL     OW63025   3.368   0.702   5.888  0.0623  0.1374  0.4182
20816SOL    HW163026   3.345   0.632   5.950  0.8495  1.1762  1.9387
20816SOL    HW263027   3.285   0.749   5.874  0.0392  0.3921  1.3490
20817SOL     OW63028   9.577   7.394   7.705 -0.1642 -0.0010 -0.3710
20817SOL    HW163029   9.609   7.337   7.635  0.3957  1.1369 -1.0777
20817SOL    HW263030   9.583   7.340   7.784  0.7391 -0.7904 -0.9452
20818SOL     OW63031   8.289   7.745   4.067  0.6429 -0.5321 -0.0646
20818SOL    HW163032   8.226   7.747   3.994 -0.3855  0.9142  0.8016
20818SOL    HW263033   8.367   7.788   4.032  0.4095 -0.4679 -0.5212
20819SOL     OW63034   2.893   7.359   4.076 -0.7216  0.0568  0.1914
20819SOL    HW163035   2.901   7.418   4.150 -0.0873  1.3591 -0.8804
20819SOL    HW263036   2.968   7.378   4.021 -1.6100 -0.2960 -1.1956
20820SOL     OW63037   0.311   7.505   1.324  0.1184 -0.0511 -0.0869
20820SOL    HW163038   0.241   7.554   1.366 -0.1687 -1.2665  0.9186
20820SOL    HW263039   0.302   7.525   1.231 -0.9954  0.5119  0.1263
20821SOL     OW63040   9.812   5.759   2.054  0.1276 -0.0527 -0.1464
20821SOL    HW163041   9.766   5.801   2.126  0.2994 -0.1589  0.0273
20821SOL    HW263042   9.832   5.829   1.993 -0.6949 -0.0745 -0.4609
20822SOL     OW63043   6.180   5.718   2.647 -0.5323  0.6844  0.3409
20822SOL    HW163044   6.192   5.733   2.553  2.9237  0.9952  0.6913
20822SOL    HW263045   6.152   5.803   2.681  1.4165  1.5370 -0.0427
20823SOL     OW63046   2.477   7.961   4.584  0.0594  0.1333  0.1615
20823SOL    HW163047   2.548   7.921   4.535 -1.0153 -1.1751 -0.3664
20823SOL    HW263048   2.478   7.917   4.669  0.8661  1.2327  0.7433
20824SOL     OW63049   0.040   4.371   1.710 -0.5709 -0.4302 -0.2126
20824SOL    HW163050   0.020   4.305   1.776  0.4521 -1.4688 -0.9062
20824SOL    HW263051   0.104   4.429   1.752 -3.2530  1.6837  1.2799
20825SOL     OW63052   0.869   2.216   8.551 -0.1684 -0.0596 -0.2935
20825SOL    HW163053   0.920   2.286   8.511 -0.7910 -0.1373 -1.2345
20825SOL    HW263054   0.901   2.135   8.510 -1.1079 -0.0999 -0.9669
20826SOL     OW63055   7.761   1.928   6.788 -0.5494 -0.6148 -0.3797
20826SOL    HW163056   7.699   1.893   6.724  0.1267 -1.7568 -0.4272
20826SOL    HW263057   7.828   1.860   6.797  1.0312  0.8117 -0.7708
20827SOL     OW63058   4.577   8.139   7.941  0.1532 -0.8500  0.3947
20827SOL    HW163059   4.540   8.185   7.866 -0.4747 -0.6782  0.8011
20827SOL    HW263060   4.511   8.073   7.963 -0.8696  0.7209  2.3314
20828SOL     OW63061   8.689   1.804   0.555  0.3089 -0.3702  0.1459
20828SOL    HW163062   8.777   1.836   0.573  0.7470 -1.5680  0.2436
20828SOL    HW263063   8.702   1.723   0.505 -0.7442 -0.3881 -0.1349
20829SOL     OW63064   3.478   9.254   9.770  0.1536  0.0915  0.0552
20829SOL    HW163065   3.387   9.281   9.759  0.4052  1.1155  0.3626
20829SOL    HW263066   3.500   9.278   9.860 -0.1068 -2.7751  0.9702
20830SOL     OW63067   1.323   2.577   9.667 -0.5416 -0.0890 -0.6022
20830SOL    HW163068   1.275   2.628   9.732 -1.6026 -1.6965 -0.0526
20830SOL    HW263069   1.348   2.641   9.600  0.6897  1.6438  1.3857
20831SOL     OW63070   0.549   0.245   4.605  0.4045  0.4645 -0.6627
20831SOL    HW163071   0.539   0.221   4.697  0.9750 -1.2078 -1.0058
20831SOL    HW263072   0.460   0.244   4.570  0.3302 -0.2968 -0.4542
20832SOL     OW63073   7.993   2.003   3.937  0.2919  0.5221 -0.0408
20832SOL    HW163074   7.997   1.981   3.844  2.6213  1.9478 -0.3763
20832SOL    HW263075   7.907   2.042   3.949 -0.3671 -0.4475 -1.3970
20833SOL     OW63076   4.700   3.652   4.546 -0.0207 -0.2304 -0.1631
20833SOL    HW163077   4.690   3.685   4.636 -0.9342  0.2825 -0.4438
20833SOL    HW263078   4.678   3.559   4.552  1.2927 -0.5329  0.3913
20834SOL     OW63079   0.005   8.444   7.132 -0.2376  0.0176  0.3075
20834SOL    HW163080   0.093   8.439   7.170  0.9126  0.5921 -2.0493
20834SOL    HW263081   0.000   8.369   7.073 -0.9000  0.6082 -0.4113
20835SOL     OW63082   8.942   6.098   8.060  0.1778  0.6179 -0.4883
20835SOL    HW163083   8.911   6.186   8.082  1.6290  0.7773  1.0706
20835SOL    HW263084   9.025   6.112   8.015  1.0947  0.0469  0.9653
20836SOL     OW63085   1.911   8.585   8.921 -0.8843  0.1704 -0.8882
20836SOL    HW163086   1.999   8.552   8.900 -0.1427  0.6194  1.2831
20836SOL    HW263087   1.914   8.605   9.014 -3.4516 -0.1884 -0.6557
20837SOL     OW63088   2.254   3.555   4.676  0.6894 -0.4672  0.0451
20837SOL    HW163089   2.338   3.560   4.721 -0.0756 -1.6165  1.7139
20837SOL    HW263090   2.192   3.596   4.737 -0.4118 -2.2039  0.1575
20838SOL     OW63091   8.829   2.169   3.137 -0.4914  0.4918 -0.2690
20838SOL    HW163092   8.763   2.107   3.167  0.4844  0.1679  1.3003
20838SOL    HW263093   8.796   2.199   3.052 -2.4539  0.0861  0.2995
20839SOL     OW63094   5.129   5.466   0.856  0.4689 -0.8247  0.2403
20839SOL    HW163095   5.153   5.556   0.834 -0.9708 -0.4560  0.0607
20839SOL    HW263096   5.089   5.432   0.775 -1.8977 -0.5444  1.2051
20840SOL     OW63097   6.596   7.994   4.935 -0.1166 -0.4930 -0.1499
20840SOL    HW163098   6.665   7.927   4.939  0.1996 -0.2394 -1.0417
20840SOL    HW263099   6.576   8.001   4.841 -2.1110 -1.3158  0.1652
20841SOL     OW63100   6.801   8.099   9.268 -0.4179  0.0093 -0.0121
20841SOL    HW163101   6.741   8.047   9.214 -1.8652  1.6072 -0.0454
20841SOL    HW263102   6.848   8.154   9.206 -0.7552  0.5456  0.1976
20842SOL     OW63103   4.068   3.412   4.415 -0.3335  0.1996 -0.3304
20842SOL    HW163104   4.148   3.381   4.373  0.5530  0.7927  0.8449
20842SOL    HW263105   4.088   3.503   4.439 -1.6635  0.6239 -0.7258
20843SOL     OW63106   2.415   2.651   2.377 -0.3648  0.1186 -0.3011
20843SOL    HW163107   2.499   2.662   2.333  0.7389 -2.2565  1.0467
20843SOL    HW263108   2.378   2.572   2.338 -0.7843 -0.2749  0.8536
20844SOL     OW63109   4.607   2.001   6.991  0.1948 -0.0615  0.6830
20844SOL    HW163110   4.560   2.084   6.985  0.7062  0.2388  0.7520
20844SOL    HW263111   4.567   1.955   7.064 -0.7321 -0.2910  0.0521
20845SOL     OW63112   0.235   9.263   8.483  0.1394  0.5361  0.3578
20845SOL    HW163113   0.328   9.245   8.472 -0.1107 -0.8846  0.3342
20845SOL    HW263114   0.227   9.297   8.572  0.5903 -0.0592  0.6287
20846SOL     OW63115   5.411   4.101   3.532  0.3605  0.2910  0.0666
20846SOL    HW163116   5.400   4.060   3.618 -0.3145  1.3861  0.5296
20846SOL    HW263117   5.500   4.136   3.533  0.0134  1.1975  0.7406
20847SOL     OW63118   3.438   9.325   7.542  0.1713  0.2388 -0.1543
20847SOL    HW163119   3.375   9.325   7.470  1.1132  0.5291 -0.9989
20847SOL    HW263120   3.519   9.294   7.503  1.0352  1.6053  0.4645
20848SOL     OW63121   9.084   2.852   2.308  0.7466 -0.1447 -0.1640
20848SOL    HW163122   9.115   2.934   2.270  1.2666 -0.3133 -0.1151
20848SOL    HW263123   8.989   2.853   2.295  0.8660  0.0176 -1.0267
20849SOL     OW63124   4.506   1.798   5.301 -0.0655  0.1625  0.1838
20849SOL    HW163125   4.496   1.836   5.389  0.0162 -1.9755  1.1612
20849SOL    HW263126   4.576   1.733   5.311 -0.1896 -0.2501 -1.4284
20850SOL     OW63127   7.612   0.541   8.994  0.2707  0.4684  0.0389
20850SOL    HW163128   7.521   0.572   8.993  0.5057  1.1886 -0.8133
20850SOL    HW263129   7.649   0.579   9.074  0.1360  1.1537 -0.2125
20851SOL     OW63130   1.709   3.295   4.891  1.0000  0.2404  0.2079
20851SOL    HW163131   1.771   3.283   4.963  0.2928 -0.7727  0.6669
20851SOL    HW263132   1.721   3.386   4.864  2.4634  0.1497  0.4888
20852SOL     OW63133   3.602   8.104   9.703 -0.0943  0.0585 -0.3728
20852SOL    HW163134   3.544   8.179   9.714 -1.4204 -0.8957 -0.6287
20852SOL    HW263135   3.607   8.091   9.609 -0.8714 -0.9074 -0.2948
20853SOL     OW63136   2.400   7.992   8.760 -0.0215 -0.6227  0.2654
20853SOL    HW163137   2.400   7.903   8.726  0.2238  0.2350 -2.2465
20853SOL    HW263138   2.314   8.027   8.735 -0.6198 -0.5093  2.3477
20854SOL     OW63139   6.542   5.152   3.098  0.4251 -0.3670  0.3963
20854SOL    HW163140   6.486   5.227   3.116 -1.6504 -1.0302 -2.4864
20854SOL    HW263141   6.504   5.081   3.150 -0.2120 -0.3362 -0.0101
20855SOL     OW63142   4.738   7.077   5.910  0.1206 -0.1259  0.0584
20855SOL    HW163143   4.721   7.164   5.875 -0.3475  0.3350  1.4029
20855SOL    HW263144   4.833   7.075   5.926  0.4295 -0.5038 -1.5776
20856SOL     OW63145   8.198   5.152   8.259  0.0941 -0.0051 -0.2664
20856SOL    HW163146   8.181   5.057   8.260  0.6546 -0.1316 -1.4578
20856SOL    HW263147   8.250   5.166   8.181  0.3971  1.2402  0.1406
20857SOL     OW63148   3.142   7.933   5.414  0.1272  0.2033  0.4558
20857SOL    HW163149   3.145   7.864   5.348 -0.7563  1.9021 -1.4589
20857SOL    HW263150   3.233   7.942   5.443  0.5254 -0.6602 -0.4390
20858SOL     OW63151   9.319   8.328   5.253  0.0521  0.5501  0.1738
20858SOL    HW163152   9.326   8.367   5.340 -0.0152 -2.0226  1.4309
20858SOL    HW263153   9.409   8.308   5.228  0.0880  1.4389 -0.4724
20859SOL     OW63154   9.073   3.496   5.913 -0.3598  0.1471 -0.1317
20859SOL    HW163155   8.988   3.477   5.875 -0.6678 -0.1571  0.6877
20859SOL    HW263156   9.122   3.414   5.903 -0.5208 -0.0096  0.3160
20860SOL     OW63157   0.480   0.827   2.045 -0.1281 -0.3849 -0.0647
20860SOL    HW163158   0.457   0.913   2.011  0.6691 -0.7163 -1.5569
20860SOL    HW263159   0.575   0.833   2.061  0.5502 -1.7374 -2.8549
20861SOL     OW63160   4.367   1.411   6.636  0.2531  0.0295  0.2133
20861SOL    HW163161   4.391   1.485   6.692 -0.1646 -0.5834  1.2339
20861SOL    HW263162   4.449   1.364   6.621  0.1387 -0.6665  1.6174
20862SOL     OW63163   1.328   0.418   0.714 -0.3343 -0.2891  0.5688
20862SOL    HW163164   1.380   0.497   0.700  0.2649 -0.4414  1.7101
20862SOL    HW263165   1.297   0.393   0.628  0.3670  0.5903  0.0447
20863SOL     OW63166   6.289   4.148   8.563 -0.2415  0.2806  0.5125
20863SOL    HW163167   6.381   4.167   8.580 -0.5437  1.1499  1.2305
20863SOL    HW263168   6.290   4.061   8.523  0.8633  0.1619  0.7602
20864SOL     OW63169   4.482   7.943   8.329  0.0148 -0.4220  0.3885
20864SOL    HW163170   4.470   7.857   8.290  0.7791 -0.0418 -0.7373
20864SOL    HW263171   4.566   7.974   8.295  1.0850 -0.3244  2.8371
20865SOL     OW63172   6.129   8.050   0.344  0.0611  0.5631  0.2217
20865SOL    HW163173   6.038   8.025   0.361  0.8267 -2.5046  0.3414
20865SOL    HW263174   6.169   8.052   0.431  0.3578  0.9184  0.0800
20866SOL     OW63175   7.131   4.311   6.162 -0.2356  0.5589 -0.1977
20866SOL    HW163176   7.100   4.379   6.102  0.9366  1.6769  0.4213
20866SOL    HW263177   7.110   4.345   6.249  1.8192  0.9236  0.1990
20867SOL     OW63178   0.971   2.232   8.262  0.1604 -0.3571  0.7544
20867SOL    HW163179   1.051   2.240   8.210  0.9182  0.3985  1.9710
20867SOL    HW263180   0.963   2.139   8.281 -0.7668 -0.8225 -1.6173
20868SOL     OW63181   3.758   8.247   0.017  0.0171  0.0579 -0.1083
20868SOL    HW163182   3.823   8.235   0.086 -0.3233 -0.9613  0.0439
20868SOL    HW263183   3.806   8.228  -0.064  0.0251 -0.2606 -0.0303
20869SOL     OW63184   2.151   3.057   7.976  0.0272 -0.0569  0.3872
20869SOL    HW163185   2.192   3.021   8.054 -0.3032 -0.6837  0.2799
20869SOL    HW263186   2.197   3.140   7.960  1.8188 -1.1089 -0.2002
20870SOL     OW63187   8.650   6.195   1.275  0.2913 -0.6275 -0.1501
20870SOL    HW163188   8.682   6.112   1.311 -0.0666 -0.4388  0.6323
20870SOL    HW263189   8.694   6.262   1.328  0.0810 -0.3349 -0.3447
20871SOL     OW63190   6.520   5.026   6.766 -0.4963  0.1397  0.0043
20871SOL    HW163191   6.456   4.987   6.707  0.4126 -0.3697 -0.6745
20871SOL    HW263192   6.522   5.119   6.742 -2.2258  0.5422  1.2155
20872SOL     OW63193   2.831   0.363   1.485 -0.2608  0.6403 -0.0149
20872SOL    HW163194   2.902   0.423   1.508  0.1945 -0.1037  0.5562
20872SOL    HW263195   2.754   0.419   1.478  0.3620  1.4499 -0.5797
20873SOL     OW63196   6.236   5.419   1.064  0.1392 -0.1023  0.1125
20873SOL    HW163197   6.170   5.465   1.115 -1.3881 -1.2521 -0.7699
20873SOL    HW263198   6.312   5.478   1.065 -1.4190  2.0303 -0.2283
20874SOL     OW63199   0.056   7.837   0.478  0.0618  0.1886  0.4951
20874SOL    HW163200   0.082   7.797   0.395  0.7787 -0.7819  1.1680
20874SOL    HW263201  -0.023   7.887   0.456  1.3307  1.6086 -1.1869
20875SOL     OW63202   1.775   8.818   8.895 -0.1125 -0.1626 -0.0405
20875SOL    HW163203   1.813   8.872   8.825  0.4839 -0.2673  0.1976
20875SOL    HW263204   1.817   8.732   8.883  0.3082 -0.0650  0.6980
20876SOL     OW63205   7.170   1.542   8.089  0.2140  0.1146 -0.1012
20876SOL    HW163206   7.208   1.627   8.068  3.9887 -0.8267  1.8536
20876SOL    HW263207   7.197   1.486   8.016 -0.1541  0.0848 -0.2140
20877SOL     OW63208   2.201   1.479   9.436 -0.1060 -0.2325 -0.0873
20877SOL    HW163209   2.223   1.427   9.513  0.4320  0.0155 -0.0691
20877SOL    HW263210   2.120   1.525   9.460  1.1658  1.4739  1.1394
20878SOL     OW63211   4.700   3.040   1.745  0.0680  0.1187  0.1433
20878SOL    HW163212   4.628   3.093   1.710  0.2509  1.1663  1.2921
20878SOL    HW263213   4.694   3.052   1.840  1.2591 -0.4374  0.2995
20879SOL     OW63214   3.492   2.587   0.378  0.5010  0.4000 -0.0318
20879SOL    HW163215   3.559   2.655   0.372 -0.9227  1.9079  0.2771
20879SOL    HW263216   3.485   2.568   0.471 -0.2692  1.1101  0.0739
20880SOL     OW63217   8.603   7.586   2.696 -0.0085 -0.1551  0.1317
20880SOL    HW163218   8.577   7.501   2.731  0.0011 -0.2078  0.0140
20880SOL    HW263219   8.694   7.596   2.722  0.4934 -0.9131 -1.2243
20881SOL     OW63220   9.642   2.300   2.921  0.2906  0.0950 -0.5801
20881SOL    HW163221   9.591   2.248   2.982  2.1748 -0.1732  0.8577
20881SOL    HW263222   9.601   2.284   2.836 -1.0332 -1.3123  0.2713
20882SOL     OW63223  10.000   9.455   9.817  0.0222 -0.4070 -0.6087
20882SOL    HW163224   9.989   9.502   9.734 -1.3392 -0.0652 -0.2660
20882SOL    HW263225   9.926   9.484   9.870  1.9312  0.9726  1.5029
20883SOL     OW63226   4.281   7.089   0.585  0.2017  0.0111 -0.1441
20883SOL    HW163227   4.318   7.022   0.528 -0.5909 -1.5588  1.1188
20883SOL    HW263228   4.310   7.172   0.546  0.4416 -1.0108 -2.2797
20884SOL     OW63229   6.808   1.284   0.342  0.1925  0.2741 -0.1587
20884SOL    HW163230   6.781   1.208   0.290 -0.1513  0.8132 -0.7725
20884SOL    HW263231   6.881   1.251   0.395 -0.3931 -0.6658  0.0854
20885SOL     OW63232   9.095   6.313   2.724 -0.5578  0.0769  0.4168
20885SOL    HW163233   9.021   6.273   2.679 -0.2547 -0.9570  0.7915
20885SOL    HW263234   9.082   6.407   2.714 -1.0108 -0.1091 -0.9832
20886SOL     OW63235   5.653   9.880   4.058 -0.2614  0.1267 -0.1143
20886SOL    HW163236   5.663   9.914   3.969  0.8388  1.2770  0.4272
20886SOL    HW263237   5.672   9.787   4.050  2.7039  0.6719 -0.6576
20887SOL     OW63238   0.965   8.719   3.595  0.2236 -0.0471  0.1219
20887SOL    HW163239   0.886   8.754   3.636  0.1947 -0.3842  0.3590
20887SOL    HW263240   0.954   8.624   3.599  0.2344 -0.0914 -0.6437
20888SOL     OW63241   1.345   0.330   6.516 -0.2397  0.7836  0.6537
20888SOL    HW163242   1.272   0.292   6.466 -0.5441  0.9920  0.9394
20888SOL    HW263243   1.413   0.262   6.514  0.2613  1.2648 -1.1334
20889SOL     OW63244   5.411   4.275   2.274  0.1537 -0.0546  0.3453
20889SOL    HW163245   5.412   4.224   2.193 -1.7540  2.8017 -1.6636
20889SOL    HW263246   5.489   4.331   2.269  1.1425 -1.2474  1.5600
20890SOL     OW63247   9.104   5.830   5.391 -0.0042 -0.9466  0.0531
20890SOL    HW163248   9.156   5.762   5.349  0.6202 -1.6332  1.8324
20890SOL    HW263249   9.086   5.796   5.479  0.4819  1.2486  1.0775
20891SOL     OW63250   1.613   9.842   7.652  0.2267 -0.4122  0.2306
20891SOL    HW163251   1.661   9.924   7.642 -1.5255  0.6990  0.6300
20891SOL    HW263252   1.649   9.803   7.731  0.6439  0.2681  0.3812
20892SOL     OW63253   1.008   2.724   8.513 -0.0446  0.0670 -0.4318
20892SOL    HW163254   0.935   2.777   8.481  0.3989  0.9158 -0.0750
20892SOL    HW263255   1.007   2.646   8.458 -1.6289 -0.2493 -0.0029
20893SOL     OW63256   7.735   2.799   4.296 -0.0272  0.4938 -0.0170
20893SOL    HW163257   7.708   2.889   4.279 -0.7354 -0.0096 -1.8297
20893SOL    HW263258   7.683   2.772   4.372  0.8973  1.8818  1.1561
20894SOL     OW63259   7.778   5.345   4.304 -0.1957 -0.0398 -0.2973
20894SOL    HW163260   7.805   5.346   4.396  0.3584 -2.4987 -0.3747
20894SOL    HW263261   7.686   5.373   4.306  0.1802  1.2227  0.8124
20895SOL     OW63262   2.188   4.173   7.103 -0.0488  0.2974 -0.5198
20895SOL    HW163263   2.152   4.105   7.046  0.2560 -0.7619  0.4994
20895SOL    HW263264   2.189   4.252   7.049  0.9201 -0.8052 -2.2216
20896SOL     OW63265   6.294   0.370   9.423 -0.3702 -0.1316  0.3207
20896SOL    HW163266   6.382   0.408   9.421 -1.0301  1.5446 -2.1121
20896SOL    HW263267   6.257   0.390   9.337 -3.0482 -1.0081  1.1462
20897SOL     OW63268  -0.009   3.390   0.085  0.2124 -0.1507 -0.3276
20897SOL    HW163269   0.054   3.449   0.043  0.9057 -0.0295  0.8387
20897SOL    HW263270   0.033   3.304   0.084 -0.4208 -0.4629 -1.2260
20898SOL     OW63271   5.987   5.731   1.563 -0.2721  0.1992  0.3475
20898SOL    HW163272   5.985   5.716   1.657  1.9884 -0.3249  0.3615
20898SOL    HW263273   5.895   5.743   1.539 -0.9785 -0.5054  2.4612
20899SOL     OW63274   4.565   8.016   2.094 -0.5274  0.0565  0.2318
20899SOL    HW163275   4.649   8.027   2.049 -0.6970  0.2008 -0.0543
20899SOL    HW263276   4.543   7.924   2.083 -1.0181  0.2859 -0.7893
20900SOL     OW63277   3.240   6.976   4.753  0.2388 -0.1957 -0.2655
20900SOL    HW163278   3.227   6.951   4.661  0.8810  1.4922 -0.8521
20900SOL    HW263279   3.333   6.961   4.768  0.0108 -1.1051  0.3490
20901SOL     OW63280   9.725   4.734   2.676 -0.0673  0.4256  0.4413
20901SOL    HW163281   9.795   4.794   2.651  0.6037 -0.3261  0.4533
20901SOL    HW263282   9.764   4.647   2.664 -1.1167 -0.0124  0.1120
20902SOL     OW63283   8.633   9.564   5.473  0.2708 -0.2891 -0.4092
20902SOL    HW163284   8.582   9.487   5.447 -0.5604  0.7582 -2.1071
20902SOL    HW263285   8.659   9.547   5.563  0.6372 -2.8180 -0.9256
20903SOL     OW63286   7.977   4.412   8.160  0.4346 -0.5152 -0.0588
20903SOL    HW163287   7.940   4.344   8.217  1.0989 -1.1616 -0.3871
20903SOL    HW263288   7.927   4.404   8.079 -0.9763  0.8504  0.6097
20904SOL     OW63289   0.343   9.265   7.529  0.1462  0.3244 -0.4585
20904SOL    HW163290   0.267   9.250   7.473 -0.8974 -2.1808  1.4633
20904SOL    HW263291   0.315   9.336   7.588 -0.0034  0.6295 -0.8885
20905SOL     OW63292   6.834   0.834   5.467  0.2020  0.1526  0.5534
20905SOL    HW163293   6.868   0.835   5.377 -1.0088  0.5049  0.0749
20905SOL    HW263294   6.909   0.858   5.521  1.4930 -2.0300 -0.1329
20906SOL     OW63295   4.395   5.434   2.447  0.7010  0.0528  0.1905
20906SOL    HW163296   4.388   5.341   2.426  0.6195  0.0319  0.3136
20906SOL    HW263297   4.454   5.469   2.379  1.5051 -0.2768  0.7042
20907SOL     OW63298   5.769   3.670   0.691  0.9110 -0.3011 -0.2779
20907SOL    HW163299   5.677   3.676   0.666  1.1334  1.2549 -0.8366
20907SOL    HW263300   5.800   3.761   0.689  2.6318 -0.8674 -0.8060
20908SOL     OW63301   4.762   3.758   5.456  0.3255  0.3878  0.1119
20908SOL    HW163302   4.784   3.717   5.540 -0.9506 -0.0317  0.2697
20908SOL    HW263303   4.822   3.717   5.393 -1.3045 -2.3040  0.1455
20909SOL     OW63304   7.674   1.762   2.023 -0.1598 -0.5369  0.2783
20909SOL    HW163305   7.632   1.677   2.009 -0.0917 -0.3728 -1.0092
20909SOL    HW263306   7.600   1.823   2.031 -0.2344 -0.7802  1.9277
20910SOL     OW63307   7.884   7.087   1.296 -0.2016 -0.2421 -0.0782
20910SOL    HW163308   7.914   7.128   1.377 -0.9843 -2.5944  1.4732
20910SOL    HW263309   7.791   7.107   1.292  0.0326  0.7832 -1.0250
20911SOL     OW63310   6.990   7.589   4.465 -0.1667  0.2672  0.0168
20911SOL    HW163311   6.945   7.642   4.399  0.6786  0.3925 -0.4787
20911SOL    HW263312   7.056   7.540   4.416  0.9997  0.9426  0.8530
20912SOL     OW63313   0.697   8.978   3.082 -0.1004 -0.2339  0.2631
20912SOL    HW163314   0.725   9.069   3.080  0.3117 -0.3552 -1.2291
20912SOL    HW263315   0.608   8.980   3.048 -1.5029 -0.0274  3.5712
20913SOL     OW63316   0.075   3.192   5.680  0.0355 -0.7441 -0.9680
20913SOL    HW163317   0.159   3.147   5.692  0.0731 -0.1894  1.4023
20913SOL    HW263318   0.009   3.126   5.701  0.0530 -0.1559  1.1564
20914SOL     OW63319   4.130   2.519   8.347  0.6201  0.3140 -0.7885
20914SOL    HW163320   4.047   2.557   8.319  0.1844 -0.2713 -0.3039
20914SOL    HW263321   4.189   2.594   8.354 -0.5033  1.1015  1.1605
20915SOL     OW63322   0.319   0.171   6.517  0.4711  0.2105  0.4882
20915SOL    HW163323   0.281   0.259   6.510  0.6792  0.2838  0.2526
20915SOL    HW263324   0.401   0.183   6.565  0.5165  0.1498  0.4264
20916SOL     OW63325   7.980   3.275   5.327  0.4953 -0.4575 -0.1815
20916SOL    HW163326   7.915   3.339   5.358  0.4519 -0.1245 -0.9389
20916SOL    HW263327   8.055   3.328   5.301  0.4091 -0.6953 -0.9386
20917SOL     OW63328   1.175   6.661   5.625  0.1567  0.0893  0.2499
20917SOL    HW163329   1.210   6.591   5.679 -1.1142 -1.2448 -0.6025
20917SOL    HW263330   1.152   6.619   5.542 -1.1900  1.3640 -0.0764
20918SOL     OW63331   9.787   9.317   4.587  0.1759 -0.3881 -0.0865
20918SOL    HW163332   9.809   9.408   4.568 -1.8490  0.6757  2.1387
20918SOL    HW263333   9.767   9.279   4.501  1.7920  1.0071 -1.1537
20919SOL     OW63334   5.963   9.014   4.523 -0.0590  0.4066 -0.3329
20919SOL    HW163335   5.940   8.922   4.512 -2.3553  0.7347  0.9000
20919SOL    HW263336   5.889   9.062   4.484  1.2159  1.7623 -1.2057
20920SOL     OW63337   3.429   3.977   0.574 -0.5343  0.3088  0.0050
20920SOL    HW163338   3.514   3.998   0.613  0.0953  0.7660 -1.5110
20920SOL    HW263339   3.366   4.025   0.627 -0.0624 -1.2883  2.1313
20921SOL     OW63340   5.661   8.694   0.714  0.0042  0.5939  0.1750
20921SOL    HW163341   5.740   8.702   0.769 -0.0160  0.7035  0.1900
20921SOL    HW263342   5.680   8.621   0.655  0.1838  0.7217  0.0717
20922SOL     OW63343   7.016   6.198   4.260  0.4526 -0.3618 -0.6166
20922SOL    HW163344   6.970   6.178   4.342  0.2927  0.0650 -0.5985
20922SOL    HW263345   7.062   6.117   4.238 -0.3070 -0.7963 -0.6374
20923SOL     OW63346   4.856   6.594   2.758 -0.5945  0.0505  0.0290
20923SOL    HW163347   4.816   6.664   2.810  0.1641  1.8223 -1.6474
20923SOL    HW263348   4.948   6.594   2.784 -0.4799  0.0761 -0.3634
20924SOL     OW63349   3.017   6.294   1.195 -0.3030 -0.0028  0.4371
20924SOL    HW163350   2.925   6.283   1.218 -0.6987  0.7467 -0.7194
20924SOL    HW263351   3.023   6.269   1.103  0.5441  0.4598  0.3486
20925SOL     OW63352   3.356   0.976   4.339  0.3275 -0.1550 -0.2499
20925SOL    HW163353   3.263   0.986   4.362  0.5694 -0.8344  1.1516
20925SOL    HW263354   3.400   0.963   4.423  1.9412  1.7744 -0.7204
20926SOL     OW63355   2.572   9.060   9.117 -0.3706 -0.2348 -0.1193
20926SOL    HW163356   2.656   9.107   9.120 -0.6653  0.2610  0.6505
20926SOL    HW263357   2.595   8.969   9.137 -0.0779  0.0088  0.7190
20927SOL     OW63358   5.144   8.124   1.051  0.0917 -0.5901  0.0541
20927SOL    HW163359   5.055   8.158   1.043 -0.2685 -1.4214  0.4284
20927SOL    HW263360   5.160   8.123   1.145 -0.1145 -1.9492  0.0915
20928SOL     OW63361   4.189   9.036   8.922  0.5784  0.4383  0.8081
20928SOL    HW163362   4.259   8.972   8.909  2.0786  2.0306  0.7593
20928SOL    HW263363   4.168   9.067   8.834 -0.8264 -0.6249  0.7308
20929SOL     OW63364   8.037   5.093   1.593  0.5138 -0.2855 -0.4986
20929SOL    HW163365   7.964   5.133   1.641 -0.5556  0.2209 -2.4329
20929SOL    HW263366   8.103   5.163   1.588 -0.2192  0.3603 -1.4984
20930SOL     OW63367   8.607   4.215   7.038 -0.3338 -0.3236  0.3494
20930SOL    HW163368   8.550   4.289   7.059 -1.6740 -0.9394 -0.9173
20930SOL    HW263369   8.608   4.162   7.118  0.7626  1.0924  1.3188
20931SOL     OW63370   0.407   2.171   3.939  0.0719 -0.5173  0.2656
20931SOL    HW163371   0.319   2.201   3.960  0.2042  0.3510 -0.3949
20931SOL    HW263372   0.397   2.125   3.856  0.0241 -1.6106  0.8469
20932SOL     OW63373   1.035   0.972   6.935 -0.3592  0.1165  0.2965
20932SOL    HW163374   1.129   0.975   6.951 -0.3017 -2.4350  0.8204
20932SOL    HW263375   1.017   1.050   6.883  2.1646  0.2256 -0.5339
20933SOL     OW63376   7.632   3.300   8.440  0.1559 -0.2445 -0.8889
20933SOL    HW163377   7.624   3.219   8.491 -0.1963  0.1460 -0.3077
20933SOL    HW263378   7.566   3.359   8.478  3.1512  1.8557  1.6631
20934SOL     OW63379   7.685   0.256   4.862  0.3013 -0.1586 -0.2599
20934SOL    HW163380   7.753   0.205   4.906 -0.3935  0.2886  1.3872
20934SOL    HW263381   7.731   0.331   4.825  1.1255 -1.2712 -1.6261
20935SOL     OW63382   6.392   7.641   3.624  0.5107  0.1846 -0.9551
20935SOL    HW163383   6.355   7.579   3.560 -2.2700  0.8840 -0.1514
20935SOL    HW263384   6.445   7.700   3.571 -1.0964  0.2840 -2.5575
20936SOL     OW63385   4.389   0.410   1.147  0.5505  0.4282  0.1828
20936SOL    HW163386   4.443   0.469   1.095 -1.0399  0.9787 -0.9231
20936SOL    HW263387   4.328   0.467   1.194  1.4013 -0.1247  2.0248
20937SOL     OW63388   8.772   3.548   0.522  0.3124 -0.1995  0.1546
20937SOL    HW163389   8.739   3.637   0.509 -0.1278 -0.4801 -0.7238
20937SOL    HW263390   8.861   3.560   0.553 -0.2443  0.5569  1.5134
20938SOL     OW63391   4.583   4.995   5.865 -0.6271  0.1166  0.1259
20938SOL    HW163392   4.647   4.926   5.847  0.4130  0.6547  1.5809
20938SOL    HW263393   4.530   5.000   5.785  0.4973 -1.0407 -0.7355
20939SOL     OW63394   7.025   8.549   0.975 -0.0867  0.0254  0.6023
20939SOL    HW163395   7.002   8.519   1.063 -2.0065  0.0296  0.1573
20939SOL    HW263396   7.068   8.473   0.935 -0.9412 -0.6554  0.9274
20940SOL     OW63397   5.463   8.857   4.100 -0.2046  0.5989 -0.0552
20940SOL    HW163398   5.488   8.769   4.071  0.0637  0.6633 -0.0236
20940SOL    HW263399   5.368   8.854   4.107 -0.1930  0.2993 -0.0150
20941SOL     OW63400   5.671   2.567   0.654  0.0589  0.1642  0.3059
20941SOL    HW163401   5.714   2.482   0.649 -1.8082 -0.7591 -1.1256
20941SOL    HW263402   5.646   2.576   0.746 -1.2236 -1.6567  0.1831
20942SOL     OW63403   7.938   1.511   4.747 -0.7730 -0.3334  0.3576
20942SOL    HW163404   7.978   1.426   4.765  1.1138  0.7937  1.8440
20942SOL    HW263405   7.975   1.537   4.663 -1.4772 -1.0069 -0.1800
20943SOL     OW63406   7.254   7.079   6.433  0.1249 -0.2690 -0.2721
20943SOL    HW163407   7.161   7.096   6.426 -0.3818 -2.0822  1.2372
20943SOL    HW263408   7.263   6.985   6.414  1.4891 -0.3265  0.5064
20944SOL     OW63409   2.883   0.188   4.319  0.7598 -0.5392 -0.3526
20944SOL    HW163410   2.847   0.151   4.238 -1.0463 -1.5009  0.8402
20944SOL    HW263411   2.886   0.115   4.380 -0.3472  0.6676  1.2391
20945SOL     OW63412   7.038   9.059   6.168  0.7346 -0.5520 -0.0270
20945SOL    HW163413   6.986   9.115   6.112  0.9001 -1.4553 -1.1134
20945SOL    HW263414   7.075   8.993   6.109  0.2108 -2.0545  1.2533
20946SOL     OW63415   4.542   8.385   9.230  0.1536 -0.6530 -0.1178
20946SOL    HW163416   4.636   8.398   9.225 -0.1148  0.9816 -1.6454
20946SOL    HW263417   4.506   8.473   9.241 -1.2553 -1.1083 -0.8362
20947SOL     OW63418   9.087   8.026   9.255 -0.0745 -0.2374  0.1631
20947SOL    HW163419   8.993   8.020   9.241 -0.1081  0.9270 -0.2890
20947SOL    HW263420   9.097   8.039   9.349 -0.3936  0.0042  0.1631
20948SOL     OW63421   1.806   4.098   5.218  0.3028  0.2992 -0.2006
20948SOL    HW163422   1.821   4.133   5.305 -1.1977 -0.5257  0.4285
20948SOL    HW263423   1.893   4.077   5.185  0.8424 -0.3526  1.5295
20949SOL     OW63424   4.122   1.674   9.190  0.4685 -0.6404 -0.1268
20949SOL    HW163425   4.167   1.690   9.108  1.6782  2.8802  1.0478
20949SOL    HW263426   4.092   1.583   9.184  1.8339 -0.9962 -3.7471
20950SOL     OW63427   7.999   9.533   3.450  0.0024  0.2037 -0.1166
20950SOL    HW163428   7.915   9.556   3.409 -0.8824 -0.7443  1.1091
20950SOL    HW263429   8.048   9.490   3.380 -0.3051  1.2400 -0.9968
20951SOL     OW63430   2.345   8.017   6.809  0.8734 -0.5752 -0.2356
20951SOL    HW163431   2.393   8.073   6.749 -0.9812  3.5135  1.7373
20951SOL    HW263432   2.384   8.035   6.895 -1.2739 -0.4857  0.7928
20952SOL     OW63433   0.512   9.316   8.325 -0.4912 -0.6105 -0.1054
20952SOL    HW163434   0.503   9.277   8.238  1.6571 -1.5140 -0.0005
20952SOL    HW263435   0.504   9.242   8.385 -0.2173 -0.2828  0.3418
20953SOL     OW63436   2.948   0.076   9.552 -0.1136 -0.4119  0.2252
20953SOL    HW163437   2.981  -0.007   9.588  1.6270  0.7090  1.3337
20953SOL    HW263438   3.022   0.136   9.558 -1.4565  1.3674 -0.1961
20954SOL     OW63439   8.999   2.644   4.573 -0.1494 -0.5879 -0.1626
20954SOL    HW163440   9.090   2.652   4.601 -0.4754  2.0952  0.4173
20954SOL    HW263441   8.949   2.644   4.654 -0.7190 -1.5500 -0.4988
20955SOL     OW63442   1.647   0.900   4.084  0.0159 -0.2114  0.5410
20955SOL    HW163443   1.601   0.906   4.001 -0.1705  3.9734  0.7335
20955SOL    HW263444   1.716   0.836   4.069 -0.0592  0.3320 -2.8052
20956SOL     OW63445   3.007   8.904   2.740 -0.5550  0.1318 -0.2671
20956SOL    HW163446   3.090   8.866   2.711 -1.4998 -2.4326  0.1103
20956SOL    HW263447   2.947   8.892   2.666 -0.5957  2.1883 -0.6349
20957SOL     OW63448   5.679   9.659   6.985 -0.0197  0.4054 -0.2200
20957SOL    HW163449   5.647   9.629   6.900  1.0923 -0.1903 -0.4492
20957SOL    HW263450   5.768   9.689   6.967  0.5441 -0.5671  0.9028
20958SOL     OW63451   6.502   5.397   2.280 -0.2415 -0.4638 -0.5086
20958SOL    HW163452   6.572   5.457   2.253 -0.2593 -0.7237 -1.1338
20958SOL    HW263453   6.490   5.339   2.206 -1.1539 -0.3988 -0.4183
20959SOL     OW63454   9.046   1.752   5.053 -0.4077 -0.1026 -0.1955
20959SOL    HW163455   9.137   1.725   5.062 -0.9519 -2.0341 -0.0767
20959SOL    HW263456   9.045   1.807   4.974  1.2652  2.1702  1.2228
20960SOL     OW63457   5.360   1.007   9.348 -0.1308 -0.2231  0.1321
20960SOL    HW163458   5.375   1.087   9.298  0.8773 -0.2281  0.4116
20960SOL    HW263459   5.299   1.033   9.417 -2.5856 -0.5079 -1.7892
20961SOL     OW63460   1.154   6.310   5.923  0.8382  0.6803 -0.0102
20961SOL    HW163461   1.103   6.353   5.992 -1.9147  0.3457 -1.7010
20961SOL    HW263462   1.165   6.220   5.953 -2.1668 -0.0488 -0.7830
20962SOL     OW63463   9.952   5.531   0.570  0.0185  0.4322  0.4491
20962SOL    HW163464   9.949   5.462   0.504  0.4306  2.4039 -1.7774
20962SOL    HW263465  10.031   5.581   0.549 -0.8793  2.2849  1.2040
20963SOL     OW63466   5.843   4.423   8.910 -0.1310  0.2872  0.0410
20963SOL    HW163467   5.900   4.476   8.967 -1.5436  1.1637  0.6963
20963SOL    HW263468   5.862   4.454   8.822 -0.3763  1.3902  0.3501
20964SOL     OW63469   9.815   6.368   8.924 -0.1475 -0.3424 -0.3913
20964SOL    HW163470   9.731   6.369   8.969 -0.9013  0.6584 -1.7154
20964SOL    HW263471   9.873   6.421   8.979 -1.4194  1.9844 -1.1701
20965SOL     OW63472   6.857   0.332   8.013  0.4519  0.1529  0.1773
20965SOL    HW163473   6.785   0.272   7.995 -0.5003  1.5051 -0.8297
20965SOL    HW263474   6.929   0.301   7.958 -0.7787  1.2085 -2.1722
20966SOL     OW63475   3.365   7.686   0.166  0.0195 -0.2208  0.4462
20966SOL    HW163476   3.360   7.774   0.203  1.2223 -0.2416  0.6793
20966SOL    HW263477   3.447   7.650   0.199  0.4139 -0.7844 -1.0664
20967SOL     OW63478   9.038   1.821   4.700 -0.3301  0.1369 -0.4844
20967SOL    HW163479   9.061   1.842   4.790  2.5296  0.3333 -1.1676
20967SOL    HW263480   8.960   1.873   4.682 -0.4557  0.7431  1.6007
20968SOL     OW63481   2.992   2.385   1.183  0.2804  0.2899 -0.4377
20968SOL    HW163482   2.922   2.398   1.118  0.0238  1.1683 -0.0092
20968SOL    HW263483   3.069   2.362   1.130  0.1615  1.3270 -1.1090
20969SOL     OW63484   1.712   0.973   9.485 -0.3814 -0.7579  0.5537
20969SOL    HW163485   1.720   0.945   9.394 -0.2572 -0.1716  0.3757
20969SOL    HW263486   1.734   0.896   9.536  2.6894 -0.3440  0.1000
20970SOL     OW63487   9.122   0.590   9.567 -0.4680  0.1084  0.3494
20970SOL    HW163488   9.087   0.520   9.511 -0.3503  0.4704 -0.1866
20970SOL    HW263489   9.172   0.646   9.507 -0.3317  0.4981  0.8214
20971SOL     OW63490   4.886   7.325   2.829  0.3882  0.0828  0.1887
20971SOL    HW163491   4.828   7.288   2.896  0.5822 -1.6388 -0.5358
20971SOL    HW263492   4.909   7.250   2.774  0.1244  1.4521 -1.9044
20972SOL     OW63493   0.639   8.993   3.419  0.3351 -0.5081  0.0367
20972SOL    HW163494   0.552   9.023   3.393  0.7660 -0.6497 -1.7278
20972SOL    HW263495   0.623   8.914   3.471 -0.5918 -0.4683 -0.1728
20973SOL     OW63496   2.549   3.652   0.215 -0.0607  0.1008 -0.3597
20973SOL    HW163497   2.460   3.631   0.242  0.6845 -0.5289  1.8134
20973SOL    HW263498   2.576   3.723   0.273  0.4655  1.1781 -1.8433
20974SOL     OW63499   9.676   8.940   2.343  1.1454 -0.2891 -0.1696
20974SOL    HW163500   9.751   8.881   2.335  0.1443 -1.5306 -0.8235
20974SOL    HW263501   9.651   8.935   2.435  1.1266 -0.8430 -0.1974
20975SOL     OW63502   9.765   6.743   6.624 -0.2047  0.3890  0.5725
20975SOL    HW163503   9.708   6.811   6.588 -0.0266  0.7834  1.0126
20975SOL    HW263504   9.716   6.662   6.614 -0.2693  0.5309 -0.2949
20976SOL     OW63505   5.519   9.685   9.031  0.2478 -0.8624  0.6124
20976SOL    HW163506   5.588   9.621   9.021 -1.5450 -2.6813 -1.1356
20976SOL    HW263507   5.445   9.649   8.981 -1.4845  1.6524  1.1471
20977SOL     OW63508   1.518   1.956   9.027 -0.1391  0.2153 -0.2854
20977SOL    HW163509   1.580   1.884   9.037  1.3188  1.3175 -0.8632
20977SOL    HW263510   1.447   1.920   8.975  1.0688 -0.5572 -1.4694
20978SOL     OW63511   2.865   4.283   9.049 -0.1722  0.4375 -0.1307
20978SOL    HW163512   2.878   4.271   9.143  0.2297  3.0276  0.2303
20978SOL    HW263513   2.770   4.291   9.040 -0.3570 -1.4346 -0.2358
20979SOL     OW63514   3.313   6.039   0.922 -0.2538 -0.8354 -0.5571
20979SOL    HW163515   3.354   5.957   0.948 -1.2692 -0.7873  1.3469
20979SOL    HW263516   3.258   6.015   0.847  1.0776 -1.4336 -1.3743
20980SOL     OW63517   7.865   4.704   8.003  0.8221 -0.5339  0.1366
20980SOL    HW163518   7.877   4.744   7.917  1.2622 -2.0513 -0.5299
20980SOL    HW263519   7.786   4.747   8.038  0.4442 -0.1253 -1.1523
20981SOL     OW63520   1.809   3.594   0.349 -0.3625 -0.0678  0.2525
20981SOL    HW163521   1.724   3.570   0.312  0.4424 -0.2694 -1.6226
20981SOL    HW263522   1.846   3.511   0.381 -1.3679  0.2219  2.2464
20982SOL     OW63523   7.271   6.129   6.710  0.3940 -0.3251  0.2091
20982SOL    HW163524   7.221   6.140   6.629  0.4133 -2.1281 -0.0985
20982SOL    HW263525   7.278   6.217   6.747 -1.5590  0.2146 -0.5867
20983SOL     OW63526   2.153   9.587   1.344  0.2734 -0.0159  0.3208
20983SOL    HW163527   2.083   9.622   1.289  0.2128 -0.6363 -0.0113
20983SOL    HW263528   2.117   9.505   1.378  0.0734  0.6506  1.8025
20984SOL     OW63529   8.930   2.393   3.271  0.1573  0.2500 -0.4978
20984SOL    HW163530   8.920   2.317   3.214  0.6934 -0.6438  0.5663
20984SOL    HW263531   8.881   2.370   3.350  1.2508  0.5354  0.2782
20985SOL     OW63532   0.078   9.222   3.794  0.3639  0.2435  0.3129
20985SOL    HW163533   0.032   9.145   3.763 -0.2081  0.6811  0.0616
20985SOL    HW263534   0.017   9.265   3.854  1.0161  0.0292  1.1475
20986SOL     OW63535   2.853   4.770   8.443 -0.0153 -0.6277  0.1556
20986SOL    HW163536   2.826   4.791   8.353 -0.1718  2.0791  0.7477
20986SOL    HW263537   2.926   4.710   8.432  0.1749 -0.1196 -1.8276
20987SOL     OW63538   2.066   5.097   2.861  0.4481  0.1146 -0.0808
20987SOL    HW163539   2.134   5.051   2.911  1.6611  1.4798 -0.4125
20987SOL    HW263540   1.996   5.032   2.851  0.6587 -0.5861  2.3503
20988SOL     OW63541   8.898   3.424   8.123 -0.1519 -0.4552 -0.1058
20988SOL    HW163542   8.816   3.474   8.124 -0.2923 -0.6632  1.8247
20988SOL    HW263543   8.938   3.440   8.209  1.6952 -0.6098 -0.8798
20989SOL     OW63544   1.101   8.414   0.559  0.5164 -0.5076 -1.0480
20989SOL    HW163545   1.039   8.353   0.598  0.3602 -0.3968 -1.1204
20989SOL    HW263546   1.058   8.500   0.567  0.4413 -0.4982 -1.5462
20990SOL     OW63547   9.627   9.415   4.782  0.1756  0.1465  0.2754
20990SOL    HW163548   9.692   9.426   4.851  1.2510  1.5362 -0.8941
20990SOL    HW263549   9.667   9.353   4.721 -0.0313  0.2345  0.0484
20991SOL     OW63550   2.958   0.052   9.182 -0.2524 -0.0665  0.0539
20991SOL    HW163551   3.021   0.064   9.110  0.6314  1.7317  1.0551
20991SOL    HW263552   2.925   0.140   9.199 -0.0587 -0.3747  2.1900
20992SOL     OW63553   7.741   5.926   4.201  1.3359  0.4799  0.3362
20992SOL    HW163554   7.748   5.892   4.112  2.7758  0.7089  0.3387
20992SOL    HW263555   7.669   5.876   4.240  2.7906 -2.0055  0.0694
20993SOL     OW63556   0.683   6.030   7.259 -0.5515 -0.0731  0.2841
20993SOL    HW163557   0.663   6.121   7.283  1.9107  1.1592 -1.7782
20993SOL    HW263558   0.738   5.998   7.331 -1.3908  0.0552  1.0010
20994SOL     OW63559   2.410   5.899   8.557  0.3981 -0.1393  0.1598
20994SOL    HW163560   2.401   5.825   8.497  2.3064  0.3210 -0.7938
20994SOL    HW263561   2.359   5.875   8.634 -3.9677  0.1004 -2.3382
20995SOL     OW63562   5.077   7.388   0.833  0.4452  0.2906 -0.2429
20995SOL    HW163563   5.164   7.359   0.808  0.8963 -0.1082  1.6569
20995SOL    HW263564   5.075   7.481   0.811  0.6128 -0.1242 -2.1413
20996SOL     OW63565   6.958   9.174   6.704 -0.6528 -0.1295 -0.6820
20996SOL    HW163566   6.872   9.164   6.744 -0.2835 -0.5940  0.0091
20996SOL    HW263567   7.020   9.155   6.774  0.0189  0.5117 -1.0897
20997SOL     OW63568   5.675   7.599   4.661 -0.1794 -0.0850 -0.4603
20997SOL    HW163569   5.663   7.688   4.695 -1.3771 -0.7383  0.9558
20997SOL    HW263570   5.770   7.590   4.651  0.4022  0.0558  3.2935
20998SOL     OW63571   0.843   5.578   4.067  0.1064 -0.2241  0.3035
20998SOL    HW163572   0.915   5.640   4.078 -0.0143  0.1303 -0.7733
20998SOL    HW263573   0.803   5.570   4.153  1.8153 -0.9066  1.0681
20999SOL     OW63574   8.192   8.038   3.994  0.1184 -0.4768  0.2383
20999SOL    HW163575   8.101   8.024   3.967  0.1387  0.3889 -0.3188
20999SOL    HW263576   8.243   8.009   3.918  0.2420  0.4176 -0.0286
21000SOL     OW63577   7.498   8.859   9.952 -0.1657 -0.1813  0.2143
21000SOL    HW163578   7.480   8.767   9.931  1.4227 -0.1923 -1.3093
21000SOL    HW263579   7.458   8.909   9.881 -0.9757  0.3367  1.0069
21001SOL     OW63580   5.891   2.789   9.329  0.4492 -0.1796  0.6630
21001SOL    HW163581   5.805   2.831   9.325 -0.5372 -1.9638  1.7363
21001SOL    HW263582   5.871   2.696   9.343  2.5195 -1.0367 -1.4766
21002SOL     OW63583   4.772   7.735   7.202  0.5081 -0.3660 -0.1164
21002SOL    HW163584   4.749   7.683   7.125  0.0445  0.2497 -0.3995
21002SOL    HW263585   4.816   7.673   7.260  2.1742 -0.5484 -1.4682
21003SOL     OW63586   8.443   4.398   8.905  0.0816 -0.0782  0.1101
21003SOL    HW163587   8.520   4.340   8.908  0.1734  0.0758  0.8044
21003SOL    HW263588   8.459   4.454   8.829  2.1951  2.0176  1.9134
21004SOL     OW63589   1.161   2.978   9.274  0.6260  0.2815 -0.2088
21004SOL    HW163590   1.160   3.073   9.272  0.6635  0.2793 -0.5448
21004SOL    HW263591   1.119   2.954   9.356 -0.0796  0.5716 -0.4834
21005SOL     OW63592   8.113   2.255   1.590 -0.1172 -0.2315 -0.1020
21005SOL    HW163593   8.093   2.260   1.496  0.2774 -0.4659 -0.2008
21005SOL    HW263594   8.123   2.346   1.617 -1.2668 -0.1026 -0.0543
21006SOL     OW63595   6.890   8.517   6.677  0.3121 -0.2962 -0.0990
21006SOL    HW163596   6.866   8.608   6.688 -0.0392 -0.0553 -2.4544
21006SOL    HW263597   6.863   8.495   6.588 -0.3153 -2.9322  0.6517
21007SOL     OW63598   6.181   7.674   9.422  0.3427 -0.7111  0.3830
21007SOL    HW163599   6.146   7.592   9.458 -1.8851 -0.9898 -2.1631
21007SOL    HW263600   6.242   7.646   9.354  0.5851 -0.2154  0.3921
21008SOL     OW63601   5.869   6.051   5.335 -0.3217 -0.1760 -0.7383
21008SOL    HW163602   5.871   6.022   5.243 -2.7609 -1.8710 -0.3355
21008SOL    HW263603   5.776   6.056   5.357  0.1980  0.8347  1.4783
21009SOL     OW63604   9.831   6.354   7.539 -0.1002  0.6119 -1.0191
21009SOL    HW163605   9.788   6.284   7.588 -1.2324  0.2125 -2.4969
21009SOL    HW263606   9.922   6.353   7.571 -0.4281 -0.6059 -0.0253
21010SOL     OW63607   7.909   6.285   6.678  0.2675 -0.1702 -0.3208
21010SOL    HW163608   7.831   6.242   6.643 -0.6791  1.8990 -0.8787
21010SOL    HW263609   7.976   6.271   6.611 -0.2266 -0.1514 -0.8239
21011SOL     OW63610   9.403   2.224   6.209  0.2161  0.5641  0.1018
21011SOL    HW163611   9.477   2.178   6.169 -0.8679  0.2191 -1.6116
21011SOL    HW263612   9.387   2.177   6.291  0.3413 -0.9328 -0.7024
21012SOL     OW63613   0.598   1.561   3.120 -0.0119 -0.5902 -0.2387
21012SOL    HW163614   0.655   1.637   3.129 -0.8139  0.2501 -1.7836
21012SOL    HW263615   0.636   1.510   3.048 -0.7377 -0.4133 -0.7707
21013SOL     OW63616   8.044   4.585   0.989 -0.2956  0.1319  0.0984
21013SOL    HW163617   8.096   4.584   1.069 -1.2915 -0.9298  0.7792
21013SOL    HW263618   8.043   4.677   0.962 -0.1033  0.5547  1.4325
21014SOL     OW63619   0.185   2.545   6.044 -0.1109 -0.1523  0.7382
21014SOL    HW163620   0.256   2.570   5.984 -1.1051 -0.3831 -0.5591
21014SOL    HW263621   0.135   2.625   6.056 -0.7981 -0.4697  0.0306
21015SOL     OW63622   6.669   9.335   4.302  0.3764  0.4123  0.4576
21015SOL    HW163623   6.751   9.355   4.257 -0.8318 -0.0364 -2.1023
21015SOL    HW263624   6.655   9.242   4.285 -0.8257  0.5672  0.5545
21016SOL     OW63625   1.375   5.349   6.931  0.1642  0.3187  0.5993
21016SOL    HW163626   1.370   5.429   6.878 -1.4154 -1.3080 -1.9163
21016SOL    HW263627   1.406   5.283   6.869  0.8260 -1.1757  2.4598
21017SOL     OW63628   0.001   2.856   6.744  0.1583  0.2190  0.2037
21017SOL    HW163629   0.057   2.892   6.813  2.1719 -0.6052 -0.9238
21017SOL    HW263630  -0.037   2.777   6.783 -0.5973  0.9940  1.1076
21018SOL     OW63631   2.247   9.981   8.547  0.2162  0.3784 -0.8049
21018SOL    HW163632   2.187  10.050   8.519 -0.4649 -0.1267 -0.6177
21018SOL    HW263633   2.194   9.902   8.550  0.5599  0.1661  0.6551
21019SOL     OW63634   1.535   0.045   9.833 -0.0411 -0.5456  0.3398
21019SOL    HW163635   1.591   0.118   9.858  0.7592 -1.3653  0.9866
21019SOL    HW263636   1.467   0.085   9.778  1.2638  0.4319 -0.6160
21020SOL     OW63637   8.264   4.287   4.855 -0.0572  0.2217 -0.4385
21020SOL    HW163638   8.243   4.219   4.919  0.7149 -0.2177 -0.6442
21020SOL    HW263639   8.295   4.360   4.908  3.1535 -1.0505 -0.3780
21021SOL     OW63640   6.021   6.300   4.356  0.4898 -0.0994  0.0409
21021SOL    HW163641   5.947   6.316   4.297 -0.0702 -0.4960  0.6211
21021SOL    HW263642   6.016   6.369   4.421 -0.1369 -0.8448  0.8106
21022SOL     OW63643   2.410   1.324   4.390 -0.1578  0.1624 -0.2017
21022SOL    HW163644   2.387   1.363   4.306 -0.3661 -1.4589 -0.9268
21022SOL    HW263645   2.464   1.248   4.368 -2.2688 -1.7974  0.9265
21023SOL     OW63646   6.991   3.282   0.101  0.2602 -0.4982  0.6407
21023SOL    HW163647   6.912   3.328   0.128  0.7549 -0.4453  2.1065
21023SOL    HW263648   6.964   3.226   0.029 -0.9497  0.0254  0.6709
21024SOL     OW63649   4.136   2.588   6.033  0.5001  0.7776  0.1094
21024SOL    HW163650   4.102   2.521   6.092  0.0497 -0.1476 -1.1596
21024SOL    HW263651   4.193   2.540   5.973  1.7675  1.8647  0.4031
21025SOL     OW63652   4.207   6.531   6.172  0.2607 -0.2034 -0.2493
21025SOL    HW163653   4.211   6.518   6.078 -0.3040  2.4671 -0.7150
21025SOL    HW263654   4.227   6.623   6.185 -1.3875 -0.0805  2.0928
21026SOL     OW63655   1.995   4.216   6.049  0.2525  0.2397 -0.5979
21026SOL    HW163656   1.917   4.271   6.065 -0.8986 -1.0879 -1.4077
21026SOL    HW263657   2.006   4.166   6.129  0.7193  0.9276 -0.2202
21027SOL     OW63658   0.985   2.396   2.520 -0.1199 -0.1022 -0.0603
21027SOL    HW163659   0.952   2.464   2.460  1.7670 -0.5954 -1.7705
21027SOL    HW263660   0.977   2.315   2.470 -2.6387 -1.3285  2.0618
21028SOL     OW63661   9.793   0.559   2.474 -0.0195 -0.6322 -0.0794
21028SOL    HW163662   9.841   0.513   2.406 -0.3961 -0.2974 -0.5792
21028SOL    HW263663   9.701   0.553   2.448 -0.0986  0.1987 -0.0454
21029SOL     OW63664   6.168   9.774   3.352  0.1833 -0.2024 -0.5795
21029SOL    HW163665   6.199   9.857   3.387 -0.2813 -1.5912  3.7617
21029SOL    HW263666   6.089   9.796   3.303  0.4099  1.9621 -0.0704
21030SOL     OW63667   3.864   9.488   0.161 -0.8124  0.3410  0.5869
21030SOL    HW163668   3.791   9.548   0.170 -1.2797  0.0372 -0.8967
21030SOL    HW263669   3.890   9.468   0.251  0.0032  3.4686  1.1514
21031SOL     OW63670   9.070   7.709   0.120  0.4488  0.0096  0.0852
21031SOL    HW163671   9.148   7.655   0.134  0.1959 -0.0759  1.2555
21031SOL    HW263672   8.996   7.651   0.141  0.1592  0.6980  1.0428
21032SOL     OW63673   7.565   1.689   8.359  0.4688  0.3344  0.1943
21032SOL    HW163674   7.513   1.629   8.305  0.4778  0.5761 -0.0870
21032SOL    HW263675   7.622   1.734   8.297 -0.8006  1.9545  0.1141
21033SOL     OW63676   3.292   3.802   6.198 -0.5784 -0.0973 -0.4725
21033SOL    HW163677   3.343   3.760   6.267 -0.3406 -0.2669 -0.7519
21033SOL    HW263678   3.333   3.888   6.186  0.4070 -0.7093 -1.5504
21034SOL     OW63679   6.655   9.950   0.997 -0.3380 -0.5074 -0.1238
21034SOL    HW163680   6.717   9.976   0.929 -0.8170  2.4693  0.4590
21034SOL    HW263681   6.710   9.916   1.068  0.3135 -1.4895 -1.0724
21035SOL     OW63682   5.696   4.679   3.521 -0.2818 -0.0228  0.1749
21035SOL    HW163683   5.622   4.672   3.461  0.1988  1.4069 -0.6457
21035SOL    HW263684   5.772   4.687   3.463  0.5298 -1.4219  0.9959
21036SOL     OW63685   2.709   0.469   3.903  0.0801  0.0446 -0.1565
21036SOL    HW163686   2.718   0.552   3.856  0.7940  0.7695  1.1844
21036SOL    HW263687   2.793   0.425   3.890  0.8754  0.9303  1.6076
21037SOL     OW63688   0.509   7.180   5.845  0.4419  0.0028 -0.3364
21037SOL    HW163689   0.439   7.116   5.854 -1.8088  2.5549  3.4166
21037SOL    HW263690   0.493   7.223   5.761 -0.6911 -1.3910 -0.8568
21038SOL     OW63691   7.756   5.996   9.458 -0.1997  0.4923 -0.6438
21038SOL    HW163692   7.784   6.027   9.372  0.6316  1.1097 -0.1647
21038SOL    HW263693   7.833   6.006   9.514 -0.5200 -0.5381  0.0215
21039SOL     OW63694   5.343   6.534   6.364  0.3733  0.8221 -0.3248
21039SOL    HW163695   5.397   6.455   6.369 -0.2322  0.4288  0.2255
21039SOL    HW263696   5.377   6.590   6.434  1.0687  1.2292 -0.9773
21040SOL     OW63697   7.455   3.702   8.693 -0.0776  0.5521 -0.2731
21040SOL    HW163698   7.539   3.732   8.729 -0.5113  0.2254  1.0891
21040SOL    HW263699   7.466   3.706   8.598  2.3925 -1.9143 -0.2226
21041SOL     OW63700   7.524   4.414   4.947  0.0208  0.0987  0.1499
21041SOL    HW163701   7.496   4.505   4.948 -0.8549 -0.1643  0.0206
21041SOL    HW263702   7.575   4.404   5.027  1.9619  1.2440 -0.8729
21042SOL     OW63703   8.472   9.896   6.587 -0.0104  0.0935 -0.2877
21042SOL    HW163704   8.481   9.943   6.504  2.0641  2.8037  1.3385
21042SOL    HW263705   8.421   9.954   6.643 -0.7730 -1.3787  0.6243
21043SOL     OW63706   2.158   3.928   6.416  0.2511  0.1086 -0.2036
21043SOL    HW163707   2.251   3.948   6.405  0.4388  0.3047  1.4865
21043SOL    HW263708   2.117   4.013   6.431 -0.0005 -0.0950  0.2720
21044SOL     OW63709   0.097   7.731   6.817  0.2512  0.5161  0.0886
21044SOL    HW163710   0.064   7.650   6.777 -0.0386  0.3252  0.7128
21044SOL    HW263711   0.053   7.801   6.768  0.5259  0.3040 -0.4735
21045SOL     OW63712   6.259   2.735   9.276  0.3254  0.2578 -0.3779
21045SOL    HW163713   6.344   2.756   9.314 -0.2470  1.1442  0.4654
21045SOL    HW263714   6.203   2.808   9.301 -1.0392 -0.9420  0.2154
21046SOL     OW63715   4.895   7.864   5.264  0.6335 -0.2756  0.5163
21046SOL    HW163716   4.835   7.937   5.273  0.2381 -0.6922  1.3403
21046SOL    HW263717   4.842   7.794   5.224  0.4393 -0.7779  1.6176
21047SOL     OW63718   6.374   8.100   8.178 -0.1528  0.3017 -0.3500
21047SOL    HW163719   6.457   8.146   8.191  0.6343 -0.7705 -1.3858
21047SOL    HW263720   6.356   8.058   8.262  1.2858 -0.8874 -0.5857
21048SOL     OW63721   9.668   9.630   4.079 -0.1629 -0.0504 -0.0984
21048SOL    HW163722   9.612   9.679   4.139 -0.7818  1.0574 -1.5294
21048SOL    HW263723   9.611   9.560   4.045  0.0111 -0.3113  0.1409
21049SOL     OW63724   8.818   6.524   0.088 -0.0747 -0.5860 -0.2205
21049SOL    HW163725   8.813   6.572   0.006  0.6256  0.6734  0.4442
21049SOL    HW263726   8.763   6.573   0.148 -1.6089 -2.1893 -0.2186
21050SOL     OW63727   0.740   3.077   0.928  0.2188 -0.0429  0.0668
21050SOL    HW163728   0.810   3.109   0.870  0.6143 -2.7839 -1.1628
21050SOL    HW263729   0.781   3.074   1.015  1.5286 -1.1169 -0.5384
21051SOL     OW63730   1.038   0.860   2.732  0.1315  0.3236  0.2397
21051SOL    HW163731   0.988   0.788   2.769  1.2185  0.5270  2.2517
21051SOL    HW263732   1.001   0.938   2.773  1.1052  0.5925  0.6412
21052SOL     OW63733   0.828   8.082   4.783  0.6185 -0.3896  0.4570
21052SOL    HW163734   0.870   8.167   4.769  2.1316 -1.0767  0.7468
21052SOL    HW263735   0.834   8.068   4.877  0.2168 -0.7521  0.4305
21053SOL     OW63736   2.288   9.485   0.747 -0.3236  0.5327 -0.3860
21053SOL    HW163737   2.375   9.524   0.757  0.9414 -1.5514 -2.3492
21053SOL    HW263738   2.243   9.503   0.830  2.6403  0.0437  1.4452
21054SOL     OW63739   8.512   3.823   9.620 -0.7944 -0.5456 -0.2576
21054SOL    HW163740   8.487   3.743   9.666  1.6573  0.1079  2.5926
21054SOL    HW263741   8.596   3.803   9.579  0.4841  0.7663  1.5360
21055SOL     OW63742   0.361   1.389   3.535 -0.4646 -0.1963  0.0943
21055SOL    HW163743   0.404   1.474   3.525 -0.2216 -0.3400 -0.1012
21055SOL    HW263744   0.383   1.342   3.454 -0.6638 -0.4142  0.1680
21056SOL     OW63745   8.798   8.108   6.842  0.2797 -0.0349 -0.0865
21056SOL    HW163746   8.861   8.153   6.787 -0.6787  1.1721 -0.2439
21056SOL    HW263747   8.733   8.175   6.864 -1.1227 -1.3014 -0.2198
21057SOL     OW63748   6.359   8.847   5.669 -0.1549  0.3714 -0.1839
21057SOL    HW163749   6.386   8.755   5.675  0.4139  0.4015 -1.6619
21057SOL    HW263750   6.267   8.844   5.645 -0.1030  0.1674 -0.3669
21058SOL     OW63751   9.480   6.242   2.311 -0.2224  0.2138 -0.7376
21058SOL    HW163752   9.482   6.158   2.356 -0.5826  0.8403  0.4977
21058SOL    HW263753   9.408   6.234   2.248 -0.3112 -0.3624 -0.5687
21059SOL     OW63754   6.989   3.776   4.330  0.2317 -0.3180  0.7443
21059SOL    HW163755   6.976   3.869   4.344 -0.5816  0.0623 -1.9550
21059SOL    HW263756   6.901   3.739   4.328  0.4404 -0.7974 -0.0955
21060SOL     OW63757   1.314   9.289   8.376  0.5607  0.4438  0.0977
21060SOL    HW163758   1.222   9.281   8.399  0.9490 -3.5184  0.9702
21060SOL    HW263759   1.351   9.346   8.444 -1.1420  2.1436 -0.2986
21061SOL     OW63760   5.610   6.741   2.989 -0.6509 -0.5231  0.0524
21061SOL    HW163761   5.602   6.646   2.979  1.4755 -0.7047 -0.4463
21061SOL    HW263762   5.678   6.752   3.056 -0.3827  0.6503 -0.3894
21062SOL     OW63763   8.921   9.823   0.984 -0.5072 -0.5254  0.1278
21062SOL    HW163764   8.956   9.861   0.904 -0.0963  1.2674  1.1173
21062SOL    HW263765   8.995   9.773   1.021  0.3816  1.3760  1.0439
21063SOL     OW63766   6.390   5.387   5.144  0.2906 -0.3513 -0.4970
21063SOL    HW163767   6.311   5.442   5.150  0.5275  0.0752 -1.1948
21063SOL    HW263768   6.415   5.391   5.052 -0.1086 -2.2484 -0.7136
21064SOL     OW63769   2.902   9.515   7.463  0.4655 -0.0746  0.4733
21064SOL    HW163770   2.837   9.489   7.529 -0.3955 -1.7451 -0.9576
21064SOL    HW263771   2.855   9.578   7.408  0.8288  0.4544  0.7535
21065SOL     OW63772   4.152   9.961   0.880  0.1261 -0.2088  0.2594
21065SOL    HW163773   4.149   9.883   0.825  1.5185 -0.1513  0.0627
21065SOL    HW263774   4.130   9.930   0.968 -0.4362 -0.6078 -0.0157
21066SOL     OW63775   9.034   4.086   5.915  0.7109 -0.2707  0.4780
21066SOL    HW163776   9.086   4.049   5.844  0.8709  0.1669  0.3686
21066SOL    HW263777   8.953   4.035   5.914  0.9288 -0.6168  0.3257
21067SOL     OW63778   1.729   3.155   4.658 -0.2246 -0.7538  0.8807
21067SOL    HW163779   1.728   3.063   4.683  0.5794 -0.9182  0.3446
21067SOL    HW263780   1.715   3.203   4.740  2.6491 -1.2595  1.7628
21068SOL     OW63781   6.598   9.850   1.443  0.6362 -0.3443  0.0251
21068SOL    HW163782   6.645   9.830   1.524  0.5160  1.6962  0.6729
21068SOL    HW263783   6.510   9.816   1.458  0.4342  0.5693  1.0571
21069SOL     OW63784   6.772   5.257   5.069  0.0374 -0.2449  0.1014
21069SOL    HW163785   6.696   5.314   5.077  0.5223  0.3009  0.9564
21069SOL    HW263786   6.818   5.289   4.992  1.7308  2.3397  1.9873
21070SOL     OW63787   0.944   4.481   1.770  0.4677 -0.4641 -0.3433
21070SOL    HW163788   1.013   4.495   1.835 -1.9560  0.8345  2.2220
21070SOL    HW263789   0.929   4.567   1.731  0.4833 -0.7979 -1.1056
21071SOL     OW63790   3.902   5.878   9.686 -0.5904  0.3642 -0.4494
21071SOL    HW163791   3.843   5.943   9.648 -0.7968  1.8192  2.1728
21071SOL    HW263792   3.896   5.891   9.780  2.2578 -0.9248  0.0253
21072SOL     OW63793   4.994   9.598   5.625 -0.9570  0.0497 -0.1421
21072SOL    HW163794   4.992   9.608   5.530 -2.5063 -2.7648 -0.5165
21072SOL    HW263795   5.021   9.507   5.639  0.7444  0.8126  2.2165
21073SOL     OW63796   7.991   1.335   0.603  0.1257  0.4360  1.0732
21073SOL    HW163797   7.993   1.427   0.630 -1.0711  0.7318  0.2384
21073SOL    HW263798   8.026   1.335   0.514  1.3212 -0.1226  1.5190
21074SOL     OW63799   4.810   6.850   1.363  0.0390  0.1352 -0.0920
21074SOL    HW163800   4.823   6.861   1.457  0.0271 -2.6256  0.3153
21074SOL    HW263801   4.899   6.844   1.327  0.0408  0.1518 -0.0907
21075SOL     OW63802   1.206   1.878   1.606 -0.1822  0.5164 -0.0234
21075SOL    HW163803   1.184   1.969   1.589 -2.2751  0.6748  2.7327
21075SOL    HW263804   1.177   1.863   1.696 -1.3238 -3.2774 -0.8289
21076SOL     OW63805   4.126   6.819   3.241 -0.2049  0.6457 -0.2631
21076SOL    HW163806   4.202   6.831   3.184  0.2433  1.2476  0.4346
21076SOL    HW263807   4.052   6.810   3.181  0.4940 -0.6504 -0.9663
21077SOL     OW63808   4.247   2.554   1.273 -0.1764 -0.6224 -0.1233
21077SOL    HW163809   4.318   2.507   1.316 -0.0486  0.5795  1.0340
21077SOL    HW263810   4.167   2.513   1.306 -0.1002  0.7175  1.8422
21078SOL     OW63811  -0.001   7.171   8.167  0.0037  0.1078  0.6454
21078SOL    HW163812   0.089   7.204   8.175 -0.1663  0.2849  2.0975
21078SOL    HW263813  -0.003   7.129   8.081  1.5611 -0.1744  0.7089
21079SOL     OW63814   0.947   3.272   7.789  0.2411  0.3950 -0.1878
21079SOL    HW163815   0.937   3.324   7.869  1.1710  1.6840 -0.8896
21079SOL    HW263816   0.859   3.239   7.771 -0.0566  0.3789  1.1553
21080SOL     OW63817   5.898   0.526   9.779 -0.0495  0.5303  0.1599
21080SOL    HW163818   5.887   0.568   9.864  0.1419  0.5362  0.1824
21080SOL    HW263819   5.943   0.444   9.799 -0.4342  0.3055  0.1185
21081SOL     OW63820   7.250   0.190   3.652 -0.4402 -0.2307  0.7147
21081SOL    HW163821   7.297   0.270   3.673 -3.5662  1.5407  1.7212
21081SOL    HW263822   7.264   0.132   3.727  1.9271 -0.7598 -0.0678
21082SOL     OW63823   5.218   0.400   3.360 -0.0872  0.3186 -0.2319
21082SOL    HW163824   5.211   0.474   3.300 -0.7716  0.7651  0.3912
21082SOL    HW263825   5.168   0.330   3.319 -0.3134  0.5335 -0.3227
21083SOL     OW63826   3.129   0.392   5.407 -0.7282  0.4085  0.6744
21083SOL    HW163827   3.208   0.411   5.355  0.3816  1.7289  2.6955
21083SOL    HW263828   3.106   0.302   5.384 -0.6310  1.0898 -2.4524
21084SOL     OW63829   2.116   5.621   9.630 -0.0741  0.2411  0.0953
21084SOL    HW163830   2.206   5.650   9.650 -0.3667  0.7108  0.7740
21084SOL    HW263831   2.086   5.580   9.711 -1.2045  1.9707  0.5975
21085SOL     OW63832   9.297   9.052   6.383  0.1038  0.6890  0.5511
21085SOL    HW163833   9.360   9.001   6.332 -1.8305  0.3372 -1.6644
21085SOL    HW263834   9.229   9.076   6.320 -2.0194  0.9961  2.8010
21086SOL     OW63835   5.999   6.184   3.684  0.0170 -0.0560 -0.3086
21086SOL    HW163836   5.988   6.265   3.635  1.8040 -0.0709 -0.8230
21086SOL    HW263837   5.925   6.130   3.659 -0.8090  1.1360 -0.5218
21087SOL     OW63838   0.082   9.736   8.912 -0.0393 -0.3592  0.2427
21087SOL    HW163839   0.055   9.828   8.902 -0.0336 -0.3683  0.1397
21087SOL    HW263840   0.159   9.728   8.855  0.1412 -0.3510  0.4815
21088SOL     OW63841   0.970   7.154   3.662  0.2907  0.2669 -0.6317
21088SOL    HW163842   1.022   7.234   3.650  0.0121  0.5414 -0.0079
21088SOL    HW263843   1.032   7.090   3.697  0.3351  0.4377 -0.3958
21089SOL     OW63844   1.915   1.652   9.283 -0.0525  0.5116 -0.0932
21089SOL    HW163845   1.925   1.703   9.363  0.2871  0.1628  0.0894
21089SOL    HW263846   2.000   1.658   9.239  0.3652 -0.7974  0.4782
21090SOL     OW63847   1.946   8.976   8.222  0.2435 -0.3802  0.2040
21090SOL    HW163848   2.034   8.950   8.196 -0.1528 -0.6629 -0.8874
21090SOL    HW263849   1.957   9.063   8.261  1.5306 -1.8173  3.4988
21091SOL     OW63850   3.333   2.464   7.687 -0.5725  0.5348 -0.2590
21091SOL    HW163851   3.380   2.454   7.605 -0.7371 -1.8402 -0.1352
21091SOL    HW263852   3.368   2.545   7.725  1.7728  0.0397 -1.2058
21092SOL     OW63853   2.591   7.616   8.993 -0.0831 -0.3418 -0.0989
21092SOL    HW163854   2.624   7.690   8.942  1.2300  0.8277  2.2865
21092SOL    HW263855   2.496   7.625   8.988  0.0314  0.4226 -1.3389
21093SOL     OW63856   2.380   6.069   4.895  0.0903 -0.4591 -0.3759
21093SOL    HW163857   2.293   6.109   4.903  0.5741  0.7018 -0.8118
21093SOL    HW263858   2.403   6.079   4.803  1.1643  0.2891 -0.0463
21094SOL     OW63859   5.095   3.113   5.914  0.0146  0.0010 -0.3638
21094SOL    HW163860   5.096   3.073   5.827 -0.0843  1.4835 -1.0819
21094SOL    HW263861   5.013   3.084   5.953  0.5441 -1.5350 -0.3218
21095SOL     OW63862   8.778   9.887   9.940  0.4505  0.0853 -0.3879
21095SOL    HW163863   8.702   9.874   9.997 -0.0098  0.2078 -0.9619
21095SOL    HW263864   8.842   9.933   9.995 -0.3499  1.0640 -0.2572
21096SOL     OW63865   3.690   5.249   0.704 -0.4260  0.3682  0.1273
21096SOL    HW163866   3.761   5.313   0.703  0.0142 -0.1187 -0.0320
21096SOL    HW263867   3.727   5.172   0.746 -0.0935 -0.7443 -2.0682
21097SOL     OW63868   3.092   9.400   7.161  0.2405  0.3152  0.3597
21097SOL    HW163869   3.059   9.439   7.080 -0.8929 -0.0568  0.6240
21097SOL    HW263870   3.119   9.312   7.135 -0.3472  0.1110  0.4228
21098SOL     OW63871   8.206   9.085   6.828 -0.2760  0.3487  0.1655
21098SOL    HW163872   8.292   9.127   6.826  0.6124 -1.2687  1.2499
21098SOL    HW263873   8.208   9.023   6.754  0.5275 -1.4485  1.6095
21099SOL     OW63874   4.711   4.235   7.435 -0.3234 -0.6534 -0.3783
21099SOL    HW163875   4.770   4.204   7.503 -0.5344 -2.4729 -0.9670
21099SOL    HW263876   4.718   4.170   7.365 -1.5618  0.1225 -1.2778
21100SOL     OW63877   2.561   4.878   8.317  0.3286 -0.4472  0.0009
21100SOL    HW163878   2.466   4.870   8.303  0.1212 -0.3674  1.2933
21100SOL    HW263879   2.573   4.862   8.410  1.4894  0.4625  0.0245
21101SOL     OW63880   8.071   7.561   2.712  0.2253  0.0452 -0.7328
21101SOL    HW163881   8.090   7.648   2.677 -0.1915  0.6572  0.5021
21101SOL    HW263882   7.982   7.542   2.683  0.6213 -0.3486 -1.7171
21102SOL     OW63883   6.933   5.345   8.479  0.1746  0.0110  0.0940
21102SOL    HW163884   6.925   5.385   8.566  1.3600  0.5389 -0.0111
21102SOL    HW263885   6.844   5.339   8.447 -0.1566  1.2629  0.7209
21103SOL     OW63886   4.069   2.584   3.445  0.3904 -0.3299  0.1639
21103SOL    HW163887   4.114   2.628   3.517  0.1802 -0.6209  0.4734
21103SOL    HW263888   4.123   2.508   3.426 -0.0510 -0.7754  0.6508
21104SOL     OW63889   9.888   2.948   0.663  0.2047 -0.3818  0.2064
21104SOL    HW163890   9.952   2.878   0.655  1.0364  0.2242  1.2665
21104SOL    HW263891   9.940   3.027   0.681 -0.7218  0.4598 -0.6319
21105SOL     OW63892   3.421   8.636   7.634  0.2110 -0.0163  0.4357
21105SOL    HW163893   3.431   8.730   7.618  1.3108 -0.2426 -0.2977
21105SOL    HW263894   3.510   8.601   7.631 -0.2727 -1.2528 -0.3414
21106SOL     OW63895   1.070   5.653   1.150  0.1889 -0.2718 -0.1935
21106SOL    HW163896   1.108   5.571   1.118 -1.1016 -0.9279 -0.0654
21106SOL    HW263897   0.976   5.641   1.144 -0.0582  1.8333 -1.7696
21107SOL     OW63898   3.604   5.513   9.892 -0.1654 -0.1391 -0.2112
21107SOL    HW163899   3.657   5.459   9.951 -1.0399  0.3678  1.0881
21107SOL    HW263900   3.568   5.582   9.949 -1.1339  0.2964 -1.3194
21108SOL     OW63901   2.849   0.775   0.396  0.0703 -1.1151  0.2020
21108SOL    HW163902   2.817   0.825   0.321 -0.1821 -1.2702  0.2041
21108SOL    HW263903   2.797   0.694   0.395  0.5030 -1.3932  0.1733
21109SOL     OW63904   0.935   8.308   4.113 -0.0385  0.7180  0.3730
21109SOL    HW163905   0.894   8.247   4.174  0.1029  2.0414  1.8584
21109SOL    HW263906   1.029   8.295   4.126  0.0233  0.1303 -0.5188
21110SOL     OW63907   3.742   8.276   7.544 -0.2620  0.6276 -0.2810
21110SOL    HW163908   3.790   8.241   7.619 -0.2923  0.1609 -0.4779
21110SOL    HW263909   3.703   8.357   7.577 -0.1988  0.4753  0.1808
21111SOL     OW63910   0.017   1.151   0.072 -0.1374 -0.1965  0.4560
21111SOL    HW163911  -0.022   1.231   0.110  0.1471  0.6648 -0.9914
21111SOL    HW263912   0.109   1.173   0.063 -0.0471 -0.7322  0.1204
21112SOL     OW63913   7.005   7.365   3.297  0.1330  0.3336  0.2454
21112SOL    HW163914   6.945   7.300   3.259  0.2533  0.5268 -0.2811
21112SOL    HW263915   6.956   7.402   3.370  0.2404 -0.6824  0.8550
21113SOL     OW63916   7.161   7.861   8.546  0.6265  0.1192 -0.0076
21113SOL    HW163917   7.194   7.830   8.461 -0.2008  0.5166 -0.4794
21113SOL    HW263918   7.104   7.935   8.525  0.8936  0.6177  0.9464
21114SOL     OW63919   7.096   5.136   8.084 -0.3307  0.5874  0.8833
21114SOL    HW163920   7.051   5.144   8.168 -2.5980 -4.9706  0.6240
21114SOL    HW263921   7.167   5.074   8.101 -0.3668 -0.0725 -1.0989
21115SOL     OW63922   2.009   2.733   8.870 -0.0223 -0.5450  0.5753
21115SOL    HW163923   2.074   2.796   8.840 -1.1345  0.5436  0.3256
21115SOL    HW263924   1.987   2.763   8.959 -0.4679 -0.6443  0.5014
21116SOL     OW63925   7.662   8.861   6.770 -0.1344  0.3518  0.2011
21116SOL    HW163926   7.632   8.797   6.705  1.1237  1.3816 -1.4906
21116SOL    HW263927   7.597   8.931   6.766 -0.2952  0.2143  0.3876
21117SOL     OW63928   8.440   9.426   2.700  0.1127  0.3680  0.0157
21117SOL    HW163929   8.468   9.452   2.787 -1.6232 -0.3662  0.8405
21117SOL    HW263930   8.468   9.497   2.643  0.9143  1.0494  1.2367
21118SOL     OW63931   3.927   6.814   8.365 -0.2073  0.4627  0.0992
21118SOL    HW163932   4.018   6.841   8.349  0.3527 -1.3291  0.0376
21118SOL    HW263933   3.890   6.802   8.278  0.1135 -0.6943  0.1095
21119SOL     OW63934   2.138   2.734   4.032  0.2908 -0.0627  0.3040
21119SOL    HW163935   2.179   2.794   3.969 -0.7421  0.0035 -0.3292
21119SOL    HW263936   2.118   2.790   4.108 -3.1789  1.1997 -1.2979
21120SOL     OW63937   0.988   5.659   4.509  0.2256 -0.4684  0.0991
21120SOL    HW163938   1.024   5.732   4.459  1.2117 -2.8321 -2.9929
21120SOL    HW263939   1.058   5.633   4.568  0.6068 -0.1796 -0.2256
21121SOL     OW63940   0.722   3.272   3.788  0.1136 -0.0878  0.1549
21121SOL    HW163941   0.645   3.326   3.772  1.7129  1.6058 -2.6004
21121SOL    HW263942   0.718   3.204   3.720  1.4940  0.6118 -0.6615
21122SOL     OW63943   2.433   4.312   5.507 -0.1612 -0.0182 -0.0796
21122SOL    HW163944   2.493   4.381   5.535 -0.6700  0.2576  0.3457
21122SOL    HW263945   2.387   4.286   5.587  0.0582 -0.8891 -0.2220
21123SOL     OW63946   4.978   8.273   7.577  0.1025  0.0012  0.2492
21123SOL    HW163947   4.887   8.258   7.551 -0.1827 -1.5395  1.9412
21123SOL    HW263948   5.020   8.309   7.499 -1.3866 -1.4996 -1.3262
21124SOL     OW63949   4.956   0.529   3.653  0.2532  0.3593 -0.0555
21124SOL    HW163950   4.912   0.501   3.733  0.3334  0.1318 -0.0926
21124SOL    HW263951   5.045   0.553   3.681  0.2844  0.2704 -0.0795
21125SOL     OW63952   6.971   1.519   2.948 -0.2018 -0.1524 -0.4898
21125SOL    HW163953   7.022   1.481   3.019  0.5716  0.3854 -0.7420
21125SOL    HW263954   6.951   1.446   2.890 -0.5720 -0.5381  0.1171
21126SOL     OW63955   1.569   6.019   6.749  0.4739  0.1889  0.9783
21126SOL    HW163956   1.517   6.020   6.668  0.6895 -0.1271  0.8308
21126SOL    HW263957   1.562   6.108   6.783  0.3510  0.3170  0.6290
21127SOL     OW63958   3.105   6.214   7.000 -0.2810 -0.0894 -0.1777
21127SOL    HW163959   3.049   6.273   7.052  1.5452  0.9929  0.6636
21127SOL    HW263960   3.043   6.165   6.945 -2.4223 -1.6053  3.2289
21128SOL     OW63961   1.501   3.145   6.634  0.2357  0.0662 -0.4391
21128SOL    HW163962   1.412   3.112   6.639  0.3421 -0.1656 -0.0762
21128SOL    HW263963   1.499   3.229   6.680  0.7893 -1.1785  2.0413
21129SOL     OW63964   3.478   1.630   2.885  0.1195 -0.1567 -0.2096
21129SOL    HW163965   3.466   1.598   2.796 -1.3541  0.1236 -0.1382
21129SOL    HW263966   3.529   1.710   2.876  2.4602 -1.5869 -0.5274
21130SOL     OW63967   6.169   3.430   3.645  0.0012  0.4203  0.1918
21130SOL    HW163968   6.240   3.493   3.659  0.0679  0.2348  0.6852
21130SOL    HW263969   6.090   3.483   3.639  0.3253  0.7657 -1.7398
21131SOL     OW63970   1.915   3.311   9.780  0.3849 -0.0431 -0.1882
21131SOL    HW163971   1.867   3.385   9.818  0.3369 -0.4940  0.6507
21131SOL    HW263972   1.904   3.322   9.685 -0.8698  0.2071 -0.0307
21132SOL     OW63973   8.026   9.196   7.565 -0.3776  0.1251 -0.6613
21132SOL    HW163974   7.977   9.250   7.502 -2.5556 -0.8988  0.0535
21132SOL    HW263975   8.069   9.130   7.511 -1.1228  0.0650 -1.2004
21133SOL     OW63976  -0.002   5.596   7.745  0.3798 -0.6586 -0.6166
21133SOL    HW163977   0.076   5.576   7.694  1.1694 -1.1450  0.7593
21133SOL    HW263978  -0.072   5.545   7.703  0.8336 -0.4630 -1.6534
21134SOL     OW63979   0.093   5.760   8.701 -0.4582 -0.5324 -0.2756
21134SOL    HW163980   0.170   5.774   8.755 -0.4986  0.3648 -0.4405
21134SOL    HW263981   0.059   5.675   8.729  0.7126 -1.0460 -0.3654
21135SOL     OW63982   5.791   2.225   2.521 -0.2041 -0.4238 -0.4750
21135SOL    HW163983   5.716   2.259   2.472 -0.7067 -0.0292  0.5379
21135SOL    HW263984   5.761   2.141   2.555 -1.3719  1.0316  2.4753
21136SOL     OW63985   0.611   0.475   2.559 -0.0099  0.1502 -0.3679
21136SOL    HW163986   0.534   0.458   2.614  0.5369  0.8289  0.6437
21136SOL    HW263987   0.621   0.395   2.507 -1.3656  0.0340 -0.4936
21137SOL     OW63988   0.779   8.275   5.139  0.5705  0.4770 -0.3579
21137SOL    HW163989   0.705   8.276   5.079  1.5490 -0.0127 -1.6158
21137SOL    HW263990   0.794   8.182   5.158  1.3353  0.5192 -0.7258
21138SOL     OW63991   1.977   4.162   6.354 -0.1095 -0.4612  1.0007
21138SOL    HW163992   1.920   4.086   6.368 -1.9247  0.2520 -1.7694
21138SOL    HW263993   1.924   4.237   6.381  0.4019  0.0533  0.6100
21139SOL     OW63994   7.621   3.843   3.705  0.1675 -0.1625 -0.5228
21139SOL    HW163995   7.707   3.837   3.664 -0.0877 -0.5766 -1.0023
21139SOL    HW263996   7.585   3.925   3.672  0.7255  0.4584  0.3684
21140SOL     OW63997   9.425   2.517   5.282 -0.3268 -0.1786  0.1127
21140SOL    HW163998   9.477   2.515   5.202  0.5850  3.1962  0.4622
21140SOL    HW263999   9.334   2.518   5.252 -0.0751 -1.2575 -0.7417
21141SOL     OW64000   6.451   6.138   5.658  0.1933  0.2110  0.4228
21141SOL    HW164001   6.460   6.049   5.691  0.7987  1.0175  2.5728
21141SOL    HW264002   6.357   6.158   5.667  0.2549  0.2094  1.1041
21142SOL     OW64003   0.935   2.755   4.486  0.0872  0.1792 -0.0616
21142SOL    HW164004   0.879   2.783   4.414  2.7672  2.2763 -1.5037
21142SOL    HW264005   0.903   2.804   4.562 -0.3526  0.9947 -0.7570
21143SOL     OW64006   2.769   0.568   0.809  0.8350  0.5142  0.0376
21143SOL    HW164007   2.833   0.584   0.878 -0.3183  0.5784  1.1309
21143SOL    HW264008   2.753   0.655   0.771 -0.7161  1.0311  1.7215
21144SOL     OW64009   4.128   6.680   1.106 -0.1174  0.0548 -0.0856
21144SOL    HW164010   4.207   6.629   1.124  0.0341 -1.3244 -3.7523
21144SOL    HW264011   4.059   6.614   1.100 -0.9894  0.9262  0.3157
21145SOL     OW64012   1.884   9.386   8.130  0.3129  0.1811  0.0599
21145SOL    HW164013   1.891   9.406   8.036  0.6539  1.3334  0.3202
21145SOL    HW264014   1.866   9.470   8.171 -0.5870 -0.4396  0.9618
21146SOL     OW64015   0.065   8.027   1.577 -0.0108  0.1451 -0.9512
21146SOL    HW164016   0.034   8.113   1.605  0.9760 -0.1098  1.1022
21146SOL    HW264017   0.142   8.046   1.522  0.6977  0.5909  0.1586
21147SOL     OW64018   9.380   7.631   1.416 -0.1730 -0.5486  0.1934
21147SOL    HW164019   9.291   7.620   1.381 -0.9272 -1.5749  2.2585
21147SOL    HW264020   9.393   7.556   1.473  1.4585  0.3595  1.1030
21148SOL     OW64021   9.577   6.476   0.745  0.0306  0.8059 -0.2500
21148SOL    HW164022   9.604   6.399   0.694 -1.8374 -1.4107  1.8720
21148SOL    HW264023   9.507   6.444   0.802  1.0916  3.3936  2.8146
21149SOL     OW64024   4.061   8.248   9.495 -0.1773  0.4994 -0.6053
21149SOL    HW164025   4.107   8.165   9.485 -0.4314  0.1076  1.2400
21149SOL    HW264026   4.065   8.267   9.588 -3.2584  0.7566 -0.4286
21150SOL     OW64027   2.063   6.404   1.436  0.1955 -0.7314 -0.4055
21150SOL    HW164028   2.122   6.479   1.441 -0.6774 -0.0947  1.2383
21150SOL    HW264029   2.080   6.365   1.350 -0.1177  1.9692 -1.7849
21151SOL     OW64030   3.191   1.630   8.959 -0.6958 -0.3656 -0.1017
21151SOL    HW164031   3.215   1.581   8.880 -0.9014  0.3793 -0.6326
21151SOL    HW264032   3.097   1.644   8.950 -1.0010 -1.5124  0.9853
21152SOL     OW64033   9.242   0.207   0.732 -0.2051  0.2802  0.0291
21152SOL    HW164034   9.276   0.196   0.821  0.0058  0.7608  0.0079
21152SOL    HW264035   9.319   0.222   0.678 -0.1502 -1.6940 -0.5356
21153SOL     OW64036   7.707   9.295   8.790  0.1305  0.0775  0.6382
21153SOL    HW164037   7.672   9.381   8.811  0.0120  0.0325  0.6272
21153SOL    HW264038   7.659   9.234   8.847 -0.6003 -0.1124 -0.1552
21154SOL     OW64039   6.117   5.454   8.625 -0.4674 -0.4012 -0.2179
21154SOL    HW164040   6.098   5.374   8.575  0.3306 -1.0926  0.5409
21154SOL    HW264041   6.203   5.438   8.663 -0.7572  0.3897  0.8110
21155SOL     OW64042   8.608   5.078   0.629 -0.2878  0.2190 -0.6308
21155SOL    HW164043   8.702   5.084   0.613 -0.2369 -0.1047 -0.4619
21155SOL    HW264044   8.579   5.168   0.639  0.3794  0.2490  1.4585
21156SOL     OW64045   3.329   1.531   9.777  0.7557 -0.1477  0.0367
21156SOL    HW164046   3.244   1.548   9.736  0.1227 -0.8407  1.0305
21156SOL    HW264047   3.385   1.602   9.745 -0.6625  1.3446  0.7528
21157SOL     OW64048   3.875   6.959   9.392  0.1244  0.2333 -0.0717
21157SOL    HW164049   3.831   7.044   9.387 -1.9950 -0.8758 -2.8389
21157SOL    HW264050   3.829   6.913   9.463  0.8955  1.1320  1.0443
21158SOL     OW64051   6.223   7.033   3.113 -0.3649 -0.0835  0.8459
21158SOL    HW164052   6.221   7.127   3.129  0.2675 -0.1919  1.6537
21158SOL    HW264053   6.206   6.994   3.198 -1.4065 -0.7070  0.3592
21159SOL     OW64054   5.411   9.311   4.882 -0.1656  0.1154  0.3121
21159SOL    HW164055   5.494   9.287   4.843 -0.6457 -2.3120  0.6119
21159SOL    HW264056   5.424   9.401   4.914  1.9190  0.2106 -0.6469
21160SOL     OW64057   2.862   1.203   3.794  0.5586 -0.2191 -0.1480
21160SOL    HW164058   2.955   1.205   3.818  1.3017  1.0510 -2.7216
21160SOL    HW264059   2.835   1.295   3.800  0.2980 -0.1359 -2.1502
21161SOL     OW64060   3.590   7.945   3.765  0.6008  0.0260 -0.0816
21161SOL    HW164061   3.519   7.972   3.824 -0.8967 -1.0199 -1.3097
21161SOL    HW264062   3.642   8.024   3.751 -0.2334  0.7862  0.9713
21162SOL     OW64063   2.835   8.258   0.060  0.5158  0.0223 -0.0758
21162SOL    HW164064   2.800   8.321   0.123  0.2125  0.6141 -0.8146
21162SOL    HW264065   2.853   8.180   0.112  0.0801  0.4229  0.7045
21163SOL     OW64066   1.155   7.857   9.754 -0.0854  0.0706 -0.0565
21163SOL    HW164067   1.202   7.819   9.829 -1.5339 -0.3606  0.6638
21163SOL    HW264068   1.108   7.931   9.791 -0.8365 -0.1607 -0.5246
21164SOL     OW64069   7.870   4.316   2.767  0.8327  0.0232 -0.2547
21164SOL    HW164070   7.778   4.293   2.778  0.7291 -0.1877 -1.4152
21164SOL    HW264071   7.868   4.396   2.714  1.2984  0.6781  0.6820
21165SOL     OW64072   9.395   3.992   1.421 -0.4701 -0.1643 -0.4138
21165SOL    HW164073   9.372   4.084   1.437  0.2892 -0.0428  0.0419
21165SOL    HW264074   9.386   3.981   1.326 -3.0460 -0.3296 -0.2288
21166SOL     OW64075   5.844   3.816   5.211 -0.1684  0.4060  0.1839
21166SOL    HW164076   5.757   3.837   5.245  0.3446  1.3364  0.9720
21166SOL    HW264077   5.853   3.870   5.133 -0.1448  0.6262  0.3368
21167SOL     OW64078   1.949   5.498   6.669 -0.0948  0.9662  0.2134
21167SOL    HW164079   1.964   5.514   6.762 -0.8891 -3.1872  1.2545
21167SOL    HW264080   2.028   5.455   6.639 -0.9568 -0.3699 -0.2149
21168SOL     OW64081   4.408   3.964   2.024  0.3072  0.0536  0.0006
21168SOL    HW164082   4.485   3.946   1.970 -0.9332 -1.3294 -1.3919
21168SOL    HW264083   4.424   3.916   2.105  1.8354  1.5256  0.6450
21169SOL     OW64084   2.908   9.089   3.882 -0.6484  0.6190 -0.0017
21169SOL    HW164085   2.995   9.121   3.905  1.3808 -3.6759 -0.7812
21169SOL    HW264086   2.896   9.011   3.936 -1.6496 -1.8857 -3.5116
21170SOL     OW64087   6.486   4.194   5.979  0.1480  0.0137 -0.2424
21170SOL    HW164088   6.398   4.195   5.942  0.3952  1.3074 -0.8278
21170SOL    HW264089   6.538   4.140   5.918  0.1943  0.8425 -0.9475
21171SOL     OW64090   5.043   7.948   1.556  0.1257 -0.2180  0.0640
21171SOL    HW164091   4.980   8.007   1.516 -0.2260 -0.0238  0.8833
21171SOL    HW264092   4.990   7.882   1.602  0.5104 -0.2385  0.4894
21172SOL     OW64093   1.958   1.150   1.439  0.1234  0.6588 -0.0896
21172SOL    HW164094   1.952   1.166   1.533 -0.9359  0.4115 -0.1021
21172SOL    HW264095   1.937   1.234   1.399  1.3330  0.9694 -0.1183
21173SOL     OW64096   8.018   2.610   7.936  0.7169  0.1690  0.0564
21173SOL    HW164097   8.020   2.518   7.962 -0.0254 -0.0441 -0.6043
21173SOL    HW264098   7.997   2.657   8.017  1.0742 -0.2408  0.3910
21174SOL     OW64099   7.462   8.305   1.883  0.7166 -0.7041 -0.1267
21174SOL    HW164100   7.407   8.261   1.818  0.4069 -3.5334  1.8236
21174SOL    HW264101   7.533   8.243   1.900  1.6964  0.6654  1.0457
21175SOL     OW64102   4.252   7.207   5.928  0.6369 -0.4343  0.0162
21175SOL    HW164103   4.330   7.262   5.921  1.4912 -1.5041  0.7497
21175SOL    HW264104   4.258   7.167   6.015  0.3195 -2.0647 -0.6809
21176SOL     OW64105   7.161   2.525   4.882  0.2345 -0.3575 -0.0391
21176SOL    HW164106   7.242   2.543   4.931  0.7592  0.7304 -1.2349
21176SOL    HW264107   7.100   2.492   4.948  0.3383  2.6023  1.7687
21177SOL     OW64108   7.586   0.151   4.147 -0.1403  0.2294 -0.4148
21177SOL    HW164109   7.577   0.059   4.124  1.5445  0.2229 -1.2351
21177SOL    HW264110   7.543   0.159   4.232 -1.0092 -1.1284 -0.7029
21178SOL     OW64111   5.989   3.269   2.896  0.0147 -0.1242 -0.3200
21178SOL    HW164112   5.989   3.359   2.863  1.3786  0.4083  1.0412
21178SOL    HW264113   6.080   3.249   2.915 -0.5189 -0.8773  1.7624
21179SOL     OW64114   1.626   1.037   8.473  0.0259 -0.1424  0.0537
21179SOL    HW164115   1.599   1.128   8.461 -0.4082  0.1181  2.4379
21179SOL    HW264116   1.688   1.021   8.403 -1.3354  1.3579 -1.6096
21180SOL     OW64117   9.532   3.975   2.788 -0.1865  0.3805 -0.3364
21180SOL    HW164118   9.450   3.970   2.739  0.4532 -1.0894 -1.3202
21180SOL    HW264119   9.507   4.012   2.873 -2.0880 -1.1278 -0.1733
21181SOL     OW64120   5.654   8.224   4.327  0.0214  0.5129 -0.0770
21181SOL    HW164121   5.592   8.268   4.387 -0.4374 -0.8888  0.5198
21181SOL    HW264122   5.739   8.237   4.368 -0.1044  0.8847  0.0724
21182SOL     OW64123   6.431   3.071   1.016 -0.0118  0.3234  0.4762
21182SOL    HW164124   6.447   2.995   0.960  2.4099 -0.8276  2.5166
21182SOL    HW264125   6.337   3.068   1.035 -0.3605 -0.8500 -1.2592
21183SOL     OW64126   7.648   7.423   5.081 -0.1447  0.4707  0.1479
21183SOL    HW164127   7.724   7.442   5.137  1.2428 -1.0692 -1.1089
21183SOL    HW264128   7.573   7.452   5.133  1.1858  0.6615  2.0989
21184SOL     OW64129   3.691   2.580   6.454 -0.6462  0.5852  0.1596
21184SOL    HW164130   3.706   2.575   6.548  1.0660  1.3445 -0.0306
21184SOL    HW264131   3.611   2.531   6.439 -1.5000  1.3002  2.1353
21185SOL     OW64132   5.251   4.093   9.931  0.0377  0.2684  0.3307
21185SOL    HW164133   5.178   4.154   9.939  0.8643  1.0924  2.2879
21185SOL    HW264134   5.296   4.120   9.851  0.5799  2.5495  1.3073
21186SOL     OW64135   2.886   1.038   8.328 -0.2718  0.1398 -0.3340
21186SOL    HW164136   2.913   1.054   8.238  0.4706 -0.2288 -0.1869
21186SOL    HW264137   2.950   0.975   8.361  0.7108  1.8032  1.1043
21187SOL     OW64138   7.488   8.506   5.468 -0.0600  0.6061  0.1925
21187SOL    HW164139   7.574   8.545   5.487  0.3836 -0.5687  0.6735
21187SOL    HW264140   7.477   8.439   5.535 -0.6987 -0.2474 -0.7376
21188SOL     OW64141   8.658   7.416   6.870  0.8589  0.1294  0.2118
21188SOL    HW164142   8.584   7.473   6.891 -0.3321 -0.9132 -0.9524
21188SOL    HW264143   8.712   7.468   6.811  0.0373  0.2532 -0.4566
21189SOL     OW64144   1.333   8.732   9.155  0.3501 -0.2144 -0.1303
21189SOL    HW164145   1.425   8.761   9.158  0.6408 -1.1464  0.2747
21189SOL    HW264146   1.283   8.809   9.185  1.0657  0.0264  0.4879
21190SOL     OW64147   4.824   0.153   8.539  0.5430 -0.1747 -0.2071
21190SOL    HW164148   4.766   0.079   8.554  0.8248 -0.4670 -0.5479
21190SOL    HW264149   4.824   0.201   8.622 -1.2988  0.6260 -0.6210
21191SOL     OW64150   6.622   9.610   9.921 -0.8407  0.7064  0.0006
21191SOL    HW164151   6.693   9.568   9.970 -0.2535  1.5148 -0.1326
21191SOL    HW264152   6.542   9.575   9.960 -0.3722  0.6020  0.8969
21192SOL     OW64153   6.408   0.866   8.553  0.1529  0.1706 -0.3583
21192SOL    HW164154   6.318   0.897   8.544 -1.1775 -2.2279  2.8504
21192SOL    HW264155   6.403   0.773   8.530  2.0955  0.2074 -1.1003
21193SOL     OW64156   2.687   2.482   9.639  0.1363 -0.6669 -0.3146
21193SOL    HW164157   2.749   2.422   9.681  0.4829 -0.4313 -0.4833
21193SOL    HW264158   2.712   2.569   9.670  0.6540 -0.4481 -1.2982
21194SOL     OW64159   1.780   7.755   4.567  0.3857 -0.3757 -0.4459
21194SOL    HW164160   1.808   7.829   4.620  1.8180 -1.2412  0.0658
21194SOL    HW264161   1.753   7.793   4.483 -0.6633  0.8743  0.4320
21195SOL     OW64162   4.408   7.469   5.684 -0.2618 -0.2860  0.4722
21195SOL    HW164163   4.499   7.501   5.688  0.0846 -1.2993  0.8500
21195SOL    HW264164   4.392   7.431   5.770 -0.7084 -1.0108  0.0752
21196SOL     OW64165   4.782   3.998   0.260  0.0844 -0.4318  0.1719
21196SOL    HW164166   4.769   4.093   0.269  2.3547  0.0223 -0.5605
21196SOL    HW264167   4.783   3.983   0.166  1.9934 -0.7576  0.2073
21197SOL     OW64168   3.015   7.030   3.662  0.4737  0.0399  0.4587
21197SOL    HW164169   2.951   7.081   3.711 -1.9897  0.8848 -3.2592
21197SOL    HW264170   2.976   6.944   3.652  0.8716 -0.0816 -0.1225
21198SOL     OW64171   3.311   0.325   6.326 -0.9418 -0.2775 -0.0731
21198SOL    HW164172   3.274   0.326   6.415 -0.0197 -4.3325  0.5755
21198SOL    HW264173   3.257   0.261   6.279  0.6013 -0.6672 -1.3884
21199SOL     OW64174   1.258   5.003   9.616  0.3808  0.0945 -0.3444
21199SOL    HW164175   1.296   4.957   9.691 -1.7951 -0.0247  0.7826
21199SOL    HW264176   1.189   5.058   9.655 -0.3499  0.5530 -2.2030
21200SOL     OW64177   1.955   7.175   0.288  0.3624  0.0968  0.3812
21200SOL    HW164178   2.043   7.199   0.259  0.5539 -1.2675 -0.2614
21200SOL    HW264179   1.954   7.079   0.285 -0.4864  0.0044  2.3783
21201SOL     OW64180   3.532   2.432   6.770  0.0748 -0.2324  0.3076
21201SOL    HW164181   3.439   2.438   6.789 -0.0943  2.5625 -0.8241
21201SOL    HW264182   3.571   2.504   6.819  1.4378 -0.5588 -0.2373
21202SOL     OW64183   7.950   4.881   8.347  0.6059 -0.5260  0.6743
21202SOL    HW164184   7.879   4.943   8.331  0.0743  0.0391  4.2654
21202SOL    HW264185   7.908   4.795   8.342  0.6827 -0.4964 -1.3269
21203SOL     OW64186   8.918   7.792   4.355 -0.3767 -0.2433  0.3113
21203SOL    HW164187   8.997   7.843   4.372  0.3586 -2.0500  3.0381
21203SOL    HW264188   8.875   7.787   4.441 -2.6065 -0.6953 -0.7799
21204SOL     OW64189   1.756   9.178   7.648 -0.2414  0.2067  0.0507
21204SOL    HW164190   1.696   9.119   7.693 -0.3741  0.0228 -0.3642
21204SOL    HW264191   1.735   9.265   7.682  1.1736 -0.1495  2.0462
21205SOL     OW64192   4.143   1.591   3.464 -0.1668 -0.3933  0.6023
21205SOL    HW164193   4.091   1.650   3.519 -1.0780 -0.3816 -0.2478
21205SOL    HW264194   4.083   1.562   3.395  0.3136 -2.1287  0.8448
21206SOL     OW64195   6.128   6.928   8.461 -0.3395  0.4014  0.5128
21206SOL    HW164196   6.132   6.887   8.547  0.0309  0.4079  0.5011
21206SOL    HW264197   6.215   6.913   8.423 -0.5942  0.1269  0.0191
21207SOL     OW64198   8.598   6.052   4.579  0.6200 -0.0207  0.3459
21207SOL    HW164199   8.521   6.007   4.545  0.2459 -0.0181  1.1764
21207SOL    HW264200   8.563   6.116   4.641  1.3192 -0.3996  1.1511
21208SOL     OW64201   3.804   2.904   9.497  0.3823  0.4172 -0.5865
21208SOL    HW164202   3.783   2.956   9.575 -0.1466  0.7403 -0.9388
21208SOL    HW264203   3.790   2.964   9.424 -0.9673 -0.4186 -1.0490
21209SOL     OW64204   4.268   3.156   7.256  0.0529  0.0829 -0.0313
21209SOL    HW164205   4.332   3.217   7.294 -0.1227  0.4073 -0.2556
21209SOL    HW264206   4.320   3.080   7.230  0.1327 -0.3036  1.1945
21210SOL     OW64207   3.972   7.708   7.721 -0.6571  0.1392  0.4257
21210SOL    HW164208   3.925   7.626   7.704 -0.9290  0.7155 -1.8430
21210SOL    HW264209   4.045   7.707   7.660 -0.3167  1.3108  0.7988
21211SOL     OW64210   2.087   9.445   2.419 -0.2710 -0.8416 -0.2112
21211SOL    HW164211   2.137   9.515   2.461 -0.7087 -1.4418  1.3884
21211SOL    HW264212   2.010   9.435   2.475  0.0624 -2.9722 -0.0743
21212SOL     OW64213   9.725   3.154   6.686 -0.0119 -0.1376 -0.2268
21212SOL    HW164214   9.795   3.195   6.735 -0.6970  0.6909  0.0868
21212SOL    HW264215   9.769   3.094   6.625  1.0767  1.5106 -1.1325
21213SOL     OW64216   7.698   5.208   8.519 -0.4978 -0.1038  0.5216
21213SOL    HW164217   7.612   5.209   8.559  0.0128 -0.9136  1.6859
21213SOL    HW264218   7.758   5.186   8.590  0.4911 -1.1385 -0.5729
21214SOL     OW64219   1.010   5.982   3.953 -0.2931  0.4024 -0.5398
21214SOL    HW164220   1.029   6.051   4.017  0.6991 -0.8901  0.6060
21214SOL    HW264221   0.931   6.013   3.908 -0.1250  2.0756  0.2319
21215SOL     OW64222   5.892   4.410   3.904 -0.7177 -0.0773 -0.4221
21215SOL    HW164223   5.911   4.377   3.991 -2.2783  0.5697  0.2072
21215SOL    HW264224   5.823   4.353   3.870  0.3439 -0.7468 -1.5379
21216SOL     OW64225   6.696   4.592   6.562  0.5033 -0.1868  0.0493
21216SOL    HW164226   6.755   4.520   6.586  1.1660  0.3317  0.0266
21216SOL    HW264227   6.625   4.550   6.514  1.3525 -0.7255 -0.7675
21217SOL     OW64228   6.742   4.252   8.490 -0.7195 -0.4775  0.3893
21217SOL    HW164229   6.743   4.214   8.402 -0.6788  0.8832 -0.2301
21217SOL    HW264230   6.651   4.275   8.506 -0.3908  1.6198 -0.4017
21218SOL     OW64231   8.352   6.266   0.943 -0.1051  0.0861  0.0097
21218SOL    HW164232   8.446   6.283   0.934 -0.1174 -0.0675 -0.3901
21218SOL    HW264233   8.312   6.353   0.942 -0.1444  0.0815 -1.7585
21219SOL     OW64234   6.774   5.682   7.591 -0.0929 -0.1553 -0.4262
21219SOL    HW164235   6.730   5.611   7.638  0.6211 -1.1275 -1.1667
21219SOL    HW264236   6.705   5.746   7.574 -1.1222 -1.3941 -1.0925
21220SOL     OW64237   1.960   3.413   4.354  0.1731 -0.0753  0.5045
21220SOL    HW164238   2.039   3.362   4.372 -1.7601 -2.5588  3.0452
21220SOL    HW264239   1.969   3.492   4.407  0.9904 -0.2876  0.6866
21221SOL     OW64240   4.791   5.835   0.059  0.2768  0.4542  0.9976
21221SOL    HW164241   4.870   5.805   0.014 -1.2039 -0.4410 -1.1470
21221SOL    HW264242   4.794   5.930   0.053  1.0280  0.4188  0.6877
21222SOL     OW64243   4.220   2.219   9.072  0.2095  0.0191  0.0560
21222SOL    HW164244   4.213   2.235   9.167 -1.5053 -1.8284  0.3138
21222SOL    HW264245   4.314   2.221   9.055  0.5554  0.5912  1.7766
21223SOL     OW64246   5.885   2.525   6.894 -0.0340  0.2652 -0.4205
21223SOL    HW164247   5.796   2.490   6.893 -1.0706  2.6522 -2.4786
21223SOL    HW264248   5.874   2.618   6.911  1.9902  0.7634 -1.5260
21224SOL     OW64249   3.626   2.178   3.523  0.1738  0.1695 -0.0022
21224SOL    HW164250   3.573   2.226   3.586  0.0134  1.0072 -0.7513
21224SOL    HW264251   3.575   2.100   3.503 -1.6112  1.7010 -1.8927
21225SOL     OW64252   5.708   8.634   1.957  0.7663  0.1859 -0.1091
21225SOL    HW164253   5.625   8.629   2.006  0.5713  0.8478 -0.3477
21225SOL    HW264254   5.760   8.698   2.006  1.0930 -0.1524 -0.0186
21226SOL     OW64255   6.549   1.493   1.485  0.4288 -0.0381  0.9056
21226SOL    HW164256   6.463   1.453   1.490  1.2042 -1.8081  0.6779
21226SOL    HW264257   6.538   1.580   1.524 -1.0534 -0.8830  2.4449
21227SOL     OW64258   9.704   8.813   5.779 -0.1936  0.2562 -0.0221
21227SOL    HW164259   9.669   8.901   5.763 -1.4722 -0.0505  0.9302
21227SOL    HW264260   9.664   8.759   5.711  2.2903  0.7289 -2.0158
21228SOL     OW64261   6.948   9.331   9.079  0.0231  0.0191  0.5655
21228SOL    HW164262   6.884   9.398   9.100 -0.9648 -0.6198 -0.2888
21228SOL    HW264263   6.949   9.273   9.155  0.0410  0.3731  0.8344
21229SOL     OW64264   3.317   3.235   8.636  0.2155 -0.1901  0.0604
21229SOL    HW164265   3.368   3.279   8.568  0.3350 -0.4140  0.0012
21229SOL    HW264266   3.376   3.232   8.712  0.4015 -0.7028 -0.0970
21230SOL     OW64267   4.604   6.401   7.702  0.8232 -0.7890  0.3309
21230SOL    HW164268   4.680   6.347   7.680  2.2236  1.7838 -1.8363
21230SOL    HW264269   4.545   6.391   7.628  0.4097 -0.5219  0.6186
21231SOL     OW64270   5.965   6.352   9.718  0.3112  0.3672 -0.4657
21231SOL    HW164271   6.009   6.271   9.743  1.9659  1.0662 -1.0036
21231SOL    HW264272   5.944   6.340   9.625 -0.5522  0.0882 -0.2430
21232SOL     OW64273   2.460   8.702   8.024  0.5306  0.4844 -0.2975
21232SOL    HW164274   2.449   8.777   8.083 -1.4095  1.1454 -1.4142
21232SOL    HW264275   2.552   8.678   8.033  0.6271  1.4492  1.9151
21233SOL     OW64276   4.615   7.370   1.128 -0.2910  0.0210 -0.7478
21233SOL    HW164277   4.578   7.282   1.135 -0.5303  0.2059  0.4991
21233SOL    HW264278   4.693   7.358   1.074 -0.7006 -0.8269 -1.1919
21234SOL     OW64279   6.336   1.900   4.542 -0.1637  0.1417 -0.2086
21234SOL    HW164280   6.366   1.991   4.539  0.5924 -0.1147 -1.2860
21234SOL    HW264281   6.325   1.876   4.450 -0.0605 -0.9450  0.0498
21235SOL     OW64282   3.398   9.927   5.800 -0.0300 -0.8220  0.5814
21235SOL    HW164283   3.425   9.926   5.708 -0.3936  0.0891  0.4568
21235SOL    HW264284   3.474   9.962   5.847  0.2327 -1.4860  0.6598
21236SOL     OW64285   8.696   7.472   4.212  0.5592  0.4401 -0.2844
21236SOL    HW164286   8.666   7.547   4.263 -0.1163 -0.0020 -0.0230
21236SOL    HW264287   8.660   7.486   4.125  0.5218  0.4709 -0.2645
21237SOL     OW64288   4.318   5.595   0.230 -0.1190 -0.0559 -0.0952
21237SOL    HW164289   4.278   5.603   0.143 -0.0324  2.0981  0.0270
21237SOL    HW264290   4.408   5.624   0.217 -0.6656  2.3642  1.0847
21238SOL     OW64291   8.749   8.690   9.119 -0.4526  0.0407  0.7430
21238SOL    HW164292   8.734   8.596   9.116 -0.4582  0.0720 -0.9467
21238SOL    HW264293   8.832   8.703   9.072  0.6838  0.6897  2.8023
21239SOL     OW64294   0.788   4.565   0.072 -0.1305  0.0354  0.7749
21239SOL    HW164295   0.856   4.628   0.049 -0.7734 -0.0769 -1.7180
21239SOL    HW264296   0.833   4.480   0.072 -0.2621 -0.0535 -0.9842
21240SOL     OW64297   5.364   2.556   6.817  0.2326  0.7918 -0.0210
21240SOL    HW164298   5.357   2.480   6.759 -1.6614  1.3207 -0.5475
21240SOL    HW264299   5.452   2.591   6.800  0.9243 -0.9067 -0.1916
21241SOL     OW64300   9.107   7.424   7.340 -0.0630  0.3059  0.1846
21241SOL    HW164301   9.168   7.414   7.267  1.0667 -0.1930  1.1585
21241SOL    HW264302   9.154   7.476   7.405 -0.5354 -0.3708  1.1001
21242SOL     OW64303   4.163   2.748   4.533 -0.0739 -0.3396  0.7954
21242SOL    HW164304   4.225   2.813   4.566 -0.9700  1.2228 -0.4666
21242SOL    HW264305   4.077   2.790   4.543 -0.6571 -1.2291 -0.2513
21243SOL     OW64306   3.279   7.643   3.808  0.3428 -0.3596 -0.1953
21243SOL    HW164307   3.316   7.568   3.760 -0.3572 -0.1531 -1.0954
21243SOL    HW264308   3.343   7.661   3.877  1.1808 -0.9461 -0.7866
21244SOL     OW64309   5.932   9.540   2.561 -0.1445 -0.0661  0.1804
21244SOL    HW164310   6.017   9.584   2.550  0.5870 -1.3676  0.3743
21244SOL    HW264311   5.943   9.489   2.641 -0.8461 -0.8527 -0.2222
21245SOL     OW64312   4.329   7.397   0.940 -0.1437  0.0823  0.3287
21245SOL    HW164313   4.316   7.303   0.938  0.8094 -0.0365 -1.1841
21245SOL    HW264314   4.417   7.409   0.974 -0.9591  0.5500  2.4481
21246SOL     OW64315   0.110   0.400   9.491  0.2148  0.3442  0.1023
21246SOL    HW164316   0.153   0.317   9.511  0.9592  1.0170  1.4753
21246SOL    HW264317   0.181   0.455   9.457 -0.2533  0.4533 -0.7157
21247SOL     OW64318   9.442   8.228   2.928 -0.2628 -0.3740 -0.3782
21247SOL    HW164319   9.508   8.203   2.993 -0.4931 -0.4225 -0.1641
21247SOL    HW264320   9.361   8.187   2.958 -0.4476 -0.1062 -0.5035
21248SOL     OW64321   1.549   4.194   7.585 -0.2537  0.6035  0.8860
21248SOL    HW164322   1.609   4.227   7.518 -2.8605 -0.1069 -2.0154
21248SOL    HW264323   1.596   4.121   7.625  0.6849 -0.3096 -1.6573
21249SOL     OW64324   5.970   5.462   3.070 -0.3623  0.0362  0.1651
21249SOL    HW164325   6.002   5.476   2.981  0.2176 -0.1429  0.3422
21249SOL    HW264326   5.891   5.409   3.060 -0.2335 -0.0802 -0.2347
21250SOL     OW64327   8.808   1.400   8.630 -0.7302  0.8087 -0.4664
21250SOL    HW164328   8.717   1.410   8.655 -1.6207  1.4424 -3.5705
21250SOL    HW264329   8.808   1.329   8.565  1.4591 -1.1078  1.4513
21251SOL     OW64330   0.172   7.135   9.624 -0.2101 -0.5437 -0.5090
21251SOL    HW164331   0.220   7.080   9.561 -0.9416  0.4484 -1.9705
21251SOL    HW264332   0.234   7.205   9.645  0.8323 -1.9911  1.5770
21252SOL     OW64333   1.790   5.209   6.153 -0.4555 -0.2772  0.0461
21252SOL    HW164334   1.738   5.286   6.173  0.4792  0.3229  0.2509
21252SOL    HW264335   1.790   5.157   6.233 -0.3190 -0.0292  0.2063
21253SOL     OW64336   5.502   4.092   6.836 -0.2632  0.4474  0.2190
21253SOL    HW164337   5.488   4.152   6.762 -1.1935  0.7190  0.5916
21253SOL    HW264338   5.595   4.072   6.834 -0.0763  1.3135 -0.3790
21254SOL     OW64339   2.074   5.541   3.281  0.4178  0.1956 -0.1023
21254SOL    HW164340   2.006   5.530   3.213  0.1060  2.1082 -0.1510
21254SOL    HW264341   2.130   5.611   3.248  1.0577  0.2364  1.0226
21255SOL     OW64342   4.105   5.304   5.652  0.3186 -0.4289 -0.1396
21255SOL    HW164343   4.149   5.254   5.721  1.9580 -0.1599 -0.9223
21255SOL    HW264344   4.171   5.368   5.624 -0.6377  0.0839 -1.2949
21256SOL     OW64345   0.011   9.265   7.892  0.2120 -0.3547 -0.2737
21256SOL    HW164346  -0.032   9.305   7.816 -1.0950 -0.0186  0.6136
21256SOL    HW264347   0.068   9.334   7.926  1.2188 -0.6826 -1.2419
21257SOL     OW64348   0.784   9.651   3.105 -0.1507  0.2863 -0.1886
21257SOL    HW164349   0.795   9.566   3.063 -0.2907 -0.1737  0.6861
21257SOL    HW264350   0.717   9.695   3.054  0.1665  0.0096 -0.8541
21258SOL     OW64351   2.472   4.733   4.815 -0.1173 -0.1847 -0.0192
21258SOL    HW164352   2.467   4.673   4.889  0.1771 -0.4817 -0.2348
21258SOL    HW264353   2.393   4.786   4.821 -0.0770 -0.1812  0.5289
21259SOL     OW64354   7.216   9.289   6.823  0.1801 -0.4976 -0.1301
21259SOL    HW164355   7.311   9.289   6.829  0.1138  0.2086  1.3124
21259SOL    HW264356   7.188   9.356   6.886 -1.2769 -0.8926 -0.3258
21260SOL     OW64357   6.145   5.264   4.028 -0.5030 -0.6055 -0.5468
21260SOL    HW164358   6.226   5.258   3.977  1.1900 -1.2123  2.0249
21260SOL    HW264359   6.075   5.248   3.964  1.2217  1.6013 -3.2220
21261SOL     OW64360   1.507   9.097   9.638 -0.0473 -0.2782  0.0012
21261SOL    HW164361   1.556   9.094   9.556 -0.6362  0.8842 -0.4111
21261SOL    HW264362   1.537   9.176   9.682 -0.9796  0.0272  0.1099
21262SOL     OW64363   6.314   4.237   7.555 -0.6577  0.2919 -0.3497
21262SOL    HW164364   6.391   4.188   7.586 -0.8332  0.2304 -0.0060
21262SOL    HW264365   6.350   4.304   7.497 -0.1852  1.2379  0.9893
21263SOL     OW64366   1.238   3.288   4.409 -0.4507 -0.1386  0.5432
21263SOL    HW164367   1.325   3.253   4.427 -1.0104 -2.0583 -0.2051
21263SOL    HW264368   1.254   3.375   4.371  1.1546 -0.5813  0.1331
21264SOL     OW64369   8.653   9.265   0.799 -0.3510  0.2424  0.6145
21264SOL    HW164370   8.662   9.205   0.872  1.0190 -0.6448 -0.2286
21264SOL    HW264371   8.586   9.327   0.827 -2.1755 -1.9050  1.3506
21265SOL     OW64372   1.368   5.656   4.408  0.1105 -0.0355  0.1577
21265SOL    HW164373   1.393   5.565   4.427  0.1775 -0.1892 -0.6306
21265SOL    HW264374   1.372   5.662   4.313  1.6527  1.2404  0.2796
21266SOL     OW64375   6.431   2.558   1.141 -0.2729 -0.3663  0.6325
21266SOL    HW164376   6.443   2.526   1.230 -1.6034 -0.3902  0.8163
21266SOL    HW264377   6.458   2.650   1.145 -0.7976 -0.2325  1.1792
21267SOL     OW64378   1.908   5.268   4.861  0.0416 -0.0500  0.0119
21267SOL    HW164379   1.900   5.174   4.844 -2.0134 -0.5418  2.9297
21267SOL    HW264380   1.997   5.290   4.833  0.8874 -3.0470  0.0141
21268SOL     OW64381   9.732   6.501   3.557 -0.4542 -0.3622 -0.3283
21268SOL    HW164382   9.819   6.499   3.596  0.9955  0.5020 -3.2238
21268SOL    HW264383   9.691   6.579   3.595  0.7103  0.1934 -0.1669
21269SOL     OW64384   8.018   9.488   9.944 -0.0567  0.4499 -0.4928
21269SOL    HW164385   8.107   9.484   9.978  0.4055 -0.4090 -1.7244
21269SOL    HW264386   8.005   9.404   9.900 -1.3215  0.7325 -0.7104
21270SOL     OW64387   5.022   0.169   0.906  0.6610 -0.0818  0.1415
21270SOL    HW164388   5.012   0.252   0.858  0.9865  0.0236  0.2469
21270SOL    HW264389   5.046   0.105   0.838 -1.2341 -0.4723 -0.2065
21271SOL     OW64390   0.539   8.975   9.495 -0.0983 -0.4502  0.0436
21271SOL    HW164391   0.458   8.994   9.448  0.8320  0.2282 -1.3663
21271SOL    HW264392   0.576   8.899   9.450  0.5920 -0.0677 -0.0527
21272SOL     OW64393   5.388   7.350   0.029 -0.4674 -0.0667 -0.6465
21272SOL    HW164394   5.421   7.384   0.112  0.5201 -1.1433 -0.5603
21272SOL    HW264395   5.398   7.422  -0.033 -1.0975  0.7041  0.1337
21273SOL     OW64396   9.422   8.179   6.618 -0.1833  0.0063  0.3112
21273SOL    HW164397   9.513   8.207   6.625 -0.3322  0.6600 -0.2749
21273SOL    HW264398   9.417   8.134   6.533 -0.7987  1.5545 -0.5120
21274SOL     OW64399   2.908   0.073   6.625  0.5461 -0.0386  0.2177
21274SOL    HW164400   2.893   0.079   6.530  0.3675 -2.3566  0.0445
21274SOL    HW264401   2.985   0.017   6.634  0.4678  0.0256  1.4544
21275SOL     OW64402   5.559   1.623   7.654  0.0341  0.3052  0.1029
21275SOL    HW164403   5.501   1.548   7.669 -1.2029  0.9548 -1.2341
21275SOL    HW264404   5.514   1.696   7.695 -0.3535  0.9105 -1.3715
21276SOL     OW64405   3.115   8.009   8.675  0.4808 -0.1075 -0.0377
21276SOL    HW164406   3.081   8.016   8.764 -0.7765 -0.8851 -0.4267
21276SOL    HW264407   3.094   7.919   8.649  0.1645  0.3323 -1.3729
21277SOL     OW64408   1.829   8.020   1.486 -0.3974 -0.1821 -0.4316
21277SOL    HW164409   1.750   8.049   1.531 -0.9228 -1.1196 -0.7380
21277SOL    HW264410   1.828   8.066   1.402 -0.7106 -0.3426 -0.5138
21278SOL     OW64411   1.234   7.496   3.916 -0.1822 -0.2917 -0.1331
21278SOL    HW164412   1.318   7.525   3.951 -0.9099  0.8039  0.7790
21278SOL    HW264413   1.228   7.404   3.942  0.5032 -0.2397  0.2449
21279SOL     OW64414   6.454   5.362   4.672 -0.2722  0.2305  0.2067
21279SOL    HW164415   6.448   5.268   4.654 -0.3785 -0.1568  2.0046
21279SOL    HW264416   6.538   5.388   4.634 -0.3958 -0.5144 -0.6082
21280SOL     OW64417   7.583   7.087   2.013 -0.1585  0.0003  0.0152
21280SOL    HW164418   7.557   7.042   1.933 -0.5895  0.1021  0.0971
21280SOL    HW264419   7.554   7.177   2.001  0.3663  0.1741  0.0119
21281SOL     OW64420   8.978   3.510   8.403  0.2788 -0.5696 -1.0751
21281SOL    HW164421   8.993   3.602   8.382  0.1077 -0.1718  0.4282
21281SOL    HW264422   9.058   3.483   8.450 -1.1572 -0.0342  1.9489
21282SOL     OW64423   8.555   7.098   5.120  0.1184 -0.2479  0.1663
21282SOL    HW164424   8.640   7.052   5.119  0.3407  0.1567  0.4199
21282SOL    HW264425   8.505   7.053   5.188  0.2088 -0.3467  0.1686
21283SOL     OW64426   8.457   4.429   9.173  0.8883 -0.4808  0.3180
21283SOL    HW164427   8.419   4.375   9.242  0.6464 -0.1452  0.4503
21283SOL    HW264428   8.405   4.409   9.096  0.3564  0.0707  0.5287
21284SOL     OW64429   1.816   9.556   7.237 -0.5575  0.2907  0.3538
21284SOL    HW164430   1.851   9.509   7.161  1.6627  1.3766  0.6142
21284SOL    HW264431   1.831   9.497   7.310 -0.9365  0.0180  0.2138
21285SOL     OW64432   6.826   1.675   4.437 -0.1791 -0.2259 -0.8733
21285SOL    HW164433   6.814   1.769   4.453  0.5812 -0.2106 -0.3154
21285SOL    HW264434   6.783   1.633   4.512  1.5017 -0.2273  0.1467
21286SOL     OW64435   2.329   0.058   6.658  0.4901 -0.0663  0.2506
21286SOL    HW164436   2.302  -0.001   6.728 -0.1544 -0.6886 -0.5012
21286SOL    HW264437   2.363   0.135   6.704 -0.2357 -0.3148  1.2529
21287SOL     OW64438   1.078   6.270   8.988  0.7447 -0.1196  0.2125
21287SOL    HW164439   1.167   6.237   8.972  0.9111 -0.5004  1.7322
21287SOL    HW264440   1.025   6.191   9.000  1.1670 -0.0124  3.9965
21288SOL     OW64441   7.649   8.871   7.954 -0.6093  0.9974 -0.0745
21288SOL    HW164442   7.661   8.948   8.009 -2.1946  1.3223 -0.1286
21288SOL    HW264443   7.716   8.879   7.886  0.1380  1.5890  0.7145
21289SOL     OW64444   8.668   6.853   7.631 -0.0038  0.1971 -0.2201
21289SOL    HW164445   8.743   6.809   7.670 -0.4765  0.0891  0.5750
21289SOL    HW264446   8.611   6.782   7.602 -0.7161  0.2548  0.9677
21290SOL     OW64447   1.370   1.737   3.985 -0.2277  0.4836 -0.3384
21290SOL    HW164448   1.464   1.726   3.995 -0.2892 -1.5396 -1.4612
21290SOL    HW264449   1.360   1.820   3.937  0.9569  0.6994 -0.2395
21291SOL     OW64450   0.299   5.364   8.459 -0.0157  0.9113  0.6916
21291SOL    HW164451   0.219   5.319   8.432 -0.0132  0.3617  1.5574
21291SOL    HW264452   0.369   5.321   8.410 -0.3625  2.2563 -1.0600
21292SOL     OW64453   4.588   4.907   2.058 -0.2472 -0.7312  0.4563
21292SOL    HW164454   4.574   5.000   2.073 -0.6079 -0.5727 -0.8142
21292SOL    HW264455   4.655   4.902   1.991 -1.7918 -1.3132 -1.1239
21293SOL     OW64456   1.465   8.648   4.417  0.0568 -0.0881  0.2602
21293SOL    HW164457   1.459   8.625   4.324  0.2745  0.2910  0.1479
21293SOL    HW264458   1.473   8.564   4.462  1.4185 -0.2345 -0.1844
21294SOL     OW64459   8.281   2.981   9.459  0.1476  0.2107  0.3766
21294SOL    HW164460   8.339   3.048   9.425 -0.7883  0.8860  0.0807
21294SOL    HW264461   8.252   3.014   9.544  0.6537 -0.3979  0.7950
21295SOL     OW64462   2.611   0.030   3.684  0.2871  0.6168  0.1715
21295SOL    HW164463   2.620  -0.038   3.751 -0.5632 -0.3050 -0.6087
21295SOL    HW264464   2.675   0.096   3.708  0.4673 -0.0075  1.5095
21296SOL     OW64465   8.285   4.213   3.402 -0.3640 -0.5242 -0.0349
21296SOL    HW164466   8.262   4.244   3.314 -3.2114 -1.0524  0.4268
21296SOL    HW264467   8.343   4.139   3.386  3.2739  2.3021 -1.2444
21297SOL     OW64468   6.748   3.577   4.370  0.5080 -0.6653  0.3394
21297SOL    HW164469   6.657   3.606   4.368 -0.3425 -2.9233  1.6193
21297SOL    HW264470   6.744   3.492   4.414  3.2681 -0.7823  0.5138
21298SOL     OW64471   2.524   8.099   0.742  0.2698  0.1618  0.3112
21298SOL    HW164472   2.501   8.021   0.792  0.0310  0.0824  0.0785
21298SOL    HW264473   2.450   8.113   0.684  0.8427 -0.1760 -0.5351
21299SOL     OW64474   6.003   5.436   9.037 -0.1710  0.5540  0.4930
21299SOL    HW164475   5.940   5.376   9.077 -0.3979  0.5928  0.1967
21299SOL    HW264476   6.078   5.381   9.015 -1.6326 -0.3890 -2.8415
21300SOL     OW64477   3.501   6.673   9.599 -0.4021  0.1864 -0.0037
21300SOL    HW164478   3.563   6.700   9.667 -1.2160  2.0052  0.0875
21300SOL    HW264479   3.554   6.666   9.520  0.3823 -1.0106  0.5978
21301SOL     OW64480   5.665   1.345   0.342 -0.1286 -0.0164 -0.0635
21301SOL    HW164481   5.743   1.382   0.300 -0.5134  1.2584  0.3014
21301SOL    HW264482   5.681   1.357   0.436 -0.9796  0.7350 -0.0003
21302SOL     OW64483   0.851   8.073   0.492 -0.1213  0.0174  0.0743
21302SOL    HW164484   0.876   8.125   0.415  1.9252 -2.5545 -1.1240
21302SOL    HW264485   0.786   8.011   0.459  0.6991 -1.0434  0.3977
21303SOL     OW64486   8.022   5.812   8.619 -0.4768  0.5701 -0.1022
21303SOL    HW164487   7.934   5.785   8.592 -1.3147  1.3714  1.6883
21303SOL    HW264488   8.024   5.906   8.604  0.4007  0.4436 -0.8996
21304SOL     OW64489   5.608   7.766   1.564  0.1736  0.0683 -0.7410
21304SOL    HW164490   5.694   7.765   1.606  0.8715 -0.2062 -2.1205
21304SOL    HW264491   5.574   7.854   1.579  0.3566 -0.0550  0.4579
21305SOL     OW64492   9.256   7.807   5.073 -0.1394 -0.5229 -0.0518
21305SOL    HW164493   9.231   7.828   5.162 -0.5668  0.0853 -0.3066
21305SOL    HW264494   9.182   7.757   5.038  0.7131 -2.1894  0.4304
21306SOL     OW64495   6.817   5.951   7.329  0.2451 -0.1476  0.1204
21306SOL    HW164496   6.804   5.872   7.275 -0.4291 -0.6692  1.0032
21306SOL    HW264497   6.877   6.005   7.278  0.4332 -1.0684 -0.6837
21307SOL     OW64498   2.244   3.489   0.190  0.4844 -0.2413 -0.7158
21307SOL    HW164499   2.252   3.537   0.272  2.1446 -1.3431 -0.1936
21307SOL    HW264500   2.166   3.434   0.202 -1.4299  2.1529 -1.3160
21308SOL     OW64501   6.817   3.154   8.415  0.6564 -0.1474  0.8793
21308SOL    HW164502   6.725   3.153   8.389  1.1432 -0.1488 -1.0169
21308SOL    HW264503   6.848   3.066   8.392  1.3335  0.1438  0.6716
21309SOL     OW64504   2.550   6.264   9.143 -0.5308 -0.1321  0.0032
21309SOL    HW164505   2.501   6.335   9.099 -1.6320  0.2206  1.7214
21309SOL    HW264506   2.634   6.304   9.164  0.4550 -0.6091 -2.5894
21310SOL     OW64507   4.310   9.735   8.919  0.5083  0.3918 -0.3218
21310SOL    HW164508   4.257   9.669   8.875  0.6416 -0.1726  0.3504
21310SOL    HW264509   4.249   9.782   8.975  0.5297  0.4375 -0.3365
21311SOL     OW64510   0.644   3.930   6.764 -0.7686  0.6227 -0.2053
21311SOL    HW164511   0.731   3.890   6.769 -1.9959 -2.5241 -1.2290
21311SOL    HW264512   0.660   4.019   6.733  2.0721  0.2530 -0.0933
21312SOL     OW64513   6.437   7.981   3.158 -0.6648 -0.0982  0.3528
21312SOL    HW164514   6.374   7.952   3.092 -1.1108  0.5951  0.4653
21312SOL    HW264515   6.386   7.991   3.238 -0.3715  0.2566  0.5004
21313SOL     OW64516   8.662   4.750   7.686 -0.1380  0.0002 -0.1212
21313SOL    HW164517   8.599   4.685   7.654  0.0771  0.3003 -1.2145
21313SOL    HW264518   8.635   4.831   7.644 -0.3815  0.6242  1.2074
21314SOL     OW64519   7.514   5.724   6.717 -0.3988 -0.2115  0.1302
21314SOL    HW164520   7.535   5.767   6.800 -0.7882  1.0083 -0.3648
21314SOL    HW264521   7.553   5.637   6.724 -1.9413 -0.8293  2.3124
21315SOL     OW64522   4.059   6.326   5.480 -0.1183 -0.1426 -0.3847
21315SOL    HW164523   4.026   6.259   5.540 -0.8432  0.5144 -0.0314
21315SOL    HW264524   4.083   6.400   5.537  1.9473 -0.5462 -0.6233
21316SOL     OW64525   7.051   9.070   0.652 -0.1521  0.1069 -0.3189
21316SOL    HW164526   7.113   9.007   0.689 -0.5406  0.7113  1.4286
21316SOL    HW264527   7.085   9.155   0.679 -0.3463  0.6081 -1.5651
21317SOL     OW64528   2.460   0.348   3.830  0.1865 -0.2719 -0.1916
21317SOL    HW164529   2.401   0.423   3.831  0.5196  0.0962 -2.3168
21317SOL    HW264530   2.546   0.384   3.849  0.2356 -0.2278 -0.4919
21318SOL     OW64531   7.802   6.762   5.030  0.1850 -0.2942  0.2600
21318SOL    HW164532   7.793   6.851   5.066  1.7772  0.4933 -1.1357
21318SOL    HW264533   7.884   6.730   5.067 -0.0255 -0.9039  0.1985
21319SOL     OW64534   7.674   8.225   8.920 -0.0892 -0.3216 -0.9351
21319SOL    HW164535   7.738   8.244   8.989 -0.0377 -0.8818 -0.8218
21319SOL    HW264536   7.591   8.215   8.968  0.1363 -1.7896 -0.8117
21320SOL     OW64537   8.901   4.180   6.769  0.3377  0.1068 -0.3315
21320SOL    HW164538   8.862   4.247   6.825 -0.8351  0.8812 -1.9751
21320SOL    HW264539   8.827   4.122   6.746  0.5649  0.3252 -1.7411
21321SOL     OW64540   3.924   5.225   7.987  0.2406 -0.2105 -0.6390
21321SOL    HW164541   3.868   5.268   8.052  1.2370  0.8735 -0.4692
21321SOL    HW264542   3.887   5.137   7.978  0.2735 -0.5020  1.6418
21322SOL     OW64543   9.928   8.378   0.841 -0.1621  0.4151 -0.2347
21322SOL    HW164544   9.994   8.338   0.897 -1.0323  1.1082  1.3671
21322SOL    HW264545   9.968   8.459   0.809 -0.8724  1.9269  2.4330
21323SOL     OW64546   0.021   9.191   1.302  0.3146  0.0716 -0.3277
21323SOL    HW164547   0.063   9.106   1.292  0.2783 -0.1525  1.1836
21323SOL    HW264548   0.092   9.254   1.299  0.7386 -0.2550  1.5015
21324SOL     OW64549   3.423   6.925   6.449 -0.0315 -0.1582 -0.0735
21324SOL    HW164550   3.503   6.975   6.462 -0.0700 -0.1562  0.1670
21324SOL    HW264551   3.438   6.842   6.494 -0.1435 -0.1784 -0.0712
21325SOL     OW64552   5.874   5.216   7.054  0.1210 -1.0213  0.2415
21325SOL    HW164553   5.864   5.126   7.022 -1.2594 -0.8455  0.1378
21325SOL    HW264554   5.796   5.262   7.024  0.4860  0.0526  0.8635
21326SOL     OW64555   9.565   8.270   9.854  0.3542 -0.6624  0.0212
21326SOL    HW164556   9.650   8.310   9.835  0.5126 -0.6708  0.6884
21326SOL    HW264557   9.515   8.340   9.896 -0.2757 -0.3987 -1.1404
21327SOL     OW64558   0.363   8.163   6.011  0.0952 -0.0756  0.8598
21327SOL    HW164559   0.422   8.088   6.021 -0.5697 -0.5671  1.1955
21327SOL    HW264560   0.358   8.177   5.917  0.5761 -0.1712  0.8181
21328SOL     OW64561   5.909   3.160   4.471  0.1810  0.1394 -0.4666
21328SOL    HW164562   5.980   3.153   4.408  1.0051  1.7612  0.2025
21328SOL    HW264563   5.951   3.148   4.556 -0.4885  0.2487 -0.1093
21329SOL     OW64564   3.744   4.543   0.436 -0.4520  0.2199  0.2550
21329SOL    HW164565   3.752   4.633   0.469 -2.3874  1.0153 -1.2556
21329SOL    HW264566   3.667   4.545   0.380  0.2420 -2.0896 -0.8904
21330SOL     OW64567   8.021   8.844   4.947  0.2097 -0.1750 -0.0843
21330SOL    HW164568   7.975   8.889   4.876  1.5429 -0.7862 -1.3917
21330SOL    HW264569   8.062   8.915   4.997  0.2106  0.2146 -0.6256
21331SOL     OW64570   6.835   7.361   6.997  0.0568  0.0644 -0.3431
21331SOL    HW164571   6.847   7.378   7.090 -1.7839  0.2178 -0.1015
21331SOL    HW264572   6.863   7.270   6.986  0.7431  0.1936  0.2496
21332SOL     OW64573   4.270   8.990   7.877  0.3138 -0.1356  0.5178
21332SOL    HW164574   4.229   8.953   7.955  0.7800 -1.0904  0.3118
21332SOL    HW264575   4.250   8.928   7.807  0.5296  0.3437  0.0170
21333SOL     OW64576   6.858   9.738   5.496  0.0499 -0.2614  0.1521
21333SOL    HW164577   6.872   9.698   5.410  1.1316  0.1242  0.1387
21333SOL    HW264578   6.871   9.666   5.558  0.2661 -0.3180  0.0430
21334SOL     OW64579   1.266   3.579   0.194  0.0450  0.0451 -0.2418
21334SOL    HW164580   1.192   3.593   0.252  0.6775 -0.6096  0.7583
21334SOL    HW264581   1.289   3.666   0.162  0.5700  0.6297  1.6137
21335SOL     OW64582   0.834   5.994   6.885  0.1018  0.3147 -0.5852
21335SOL    HW164583   0.793   5.908   6.881 -0.5801  0.6167 -0.1440
21335SOL    HW264584   0.831   6.026   6.794  0.9805 -0.4008 -0.8816
21336SOL     OW64585   3.226   1.605   7.150  0.0694 -0.1872  0.2261
21336SOL    HW164586   3.308   1.578   7.110  0.6230 -1.6331  2.1996
21336SOL    HW264587   3.248   1.684   7.200  0.2784 -0.6100  0.8046
21337SOL     OW64588   7.933   8.481   5.704 -0.1716  0.0822 -0.3206
21337SOL    HW164589   7.855   8.535   5.720 -0.7205 -0.9325  0.5897
21337SOL    HW264590   7.900   8.405   5.656  0.1832 -0.5276  0.3838
21338SOL     OW64591   9.461   7.620   4.780  0.4632 -0.1989 -0.1233
21338SOL    HW164592   9.515   7.696   4.759  0.0363 -0.3378 -1.9034
21338SOL    HW264593   9.522   7.553   4.808  0.8864  0.6459  1.0345
21339SOL     OW64594   9.625   8.522   0.130  0.5750 -0.2994  0.6760
21339SOL    HW164595   9.604   8.596   0.072  1.6310 -0.7345 -0.2899
21339SOL    HW264596   9.570   8.537   0.208  0.8356  1.5559  0.5539
21340SOL     OW64597   5.766   2.297   9.078  0.0835 -0.0783  0.6467
21340SOL    HW164598   5.818   2.283   9.157  0.4546  1.3028  0.6744
21340SOL    HW264599   5.675   2.299   9.109  0.1085 -1.0970  0.8017
21341SOL     OW64600   9.922   3.780   9.746 -0.5457  0.0270 -0.6300
21341SOL    HW164601   9.853   3.844   9.761 -0.2996 -0.1909  1.9029
21341SOL    HW264602   9.993   3.807   9.803 -0.0301 -1.8828 -0.2909
21342SOL     OW64603   0.095   3.164   2.113 -0.2773 -0.1750 -0.0125
21342SOL    HW164604   0.143   3.182   2.194  0.2639  2.7533 -0.8339
21342SOL    HW264605   0.004   3.153   2.140  0.0333 -0.1583  1.0799
21343SOL     OW64606   0.022   6.675   1.675 -0.4411  0.4960 -0.0344
21343SOL    HW164607   0.036   6.674   1.770 -1.2953  0.0021  0.1036
21343SOL    HW264608   0.101   6.715   1.639  0.2560 -0.0710  0.8229
21344SOL     OW64609   2.519   5.386   2.737  0.1356 -0.1487 -0.1453
21344SOL    HW164610   2.429   5.379   2.768 -0.4137  1.1927 -1.2849
21344SOL    HW264611   2.530   5.312   2.678  0.0417 -0.7525  0.5883
21345SOL     OW64612   8.125   4.178   3.626  0.6455  0.2229 -0.3873
21345SOL    HW164613   8.182   4.184   3.550 -0.0348 -1.5345 -1.1076
21345SOL    HW264614   8.083   4.092   3.617 -1.8349  1.2750  0.2906
21346SOL     OW64615   5.224   0.388   4.871 -0.0964  0.1105 -0.3219
21346SOL    HW164616   5.316   0.369   4.853  0.4586  0.9657  1.3990
21346SOL    HW264617   5.202   0.334   4.947 -0.8869  0.2603 -0.4281
21347SOL     OW64618   4.019   4.093   0.249  0.1943 -0.3274 -0.4217
21347SOL    HW164619   4.033   4.183   0.219 -0.7006 -0.0492 -0.0316
21347SOL    HW264620   3.986   4.047   0.171  1.8697 -0.6777 -0.9930
21348SOL     OW64621   3.520   1.594   7.062  0.2147  0.1315 -0.2874
21348SOL    HW164622   3.550   1.637   6.982 -1.6007  1.2105 -0.4391
21348SOL    HW264623   3.590   1.609   7.125  0.7535  1.0564 -1.0827
21349SOL     OW64624   0.664   9.398   1.692  0.3415  0.1667  0.7141
21349SOL    HW164625   0.705   9.327   1.643 -0.7597 -1.3221  1.8823
21349SOL    HW264626   0.703   9.393   1.779 -1.7609 -0.8860  1.6613
21350SOL     OW64627   1.763   5.088   3.728  0.9713 -0.1986  0.3551
21350SOL    HW164628   1.840   5.095   3.783  0.8901 -0.8604  0.5569
21350SOL    HW264629   1.784   5.020   3.664  0.0288 -1.4320  1.3154
21351SOL     OW64630   8.612   5.433   3.015  0.0978  0.1564  0.0258
21351SOL    HW164631   8.612   5.447   3.110  0.4624  0.0389  0.0440
21351SOL    HW264632   8.578   5.344   3.005  1.2605 -0.3109  0.1237
21352SOL     OW64633   5.506   8.096   2.923 -0.4712 -0.5628 -0.0520
21352SOL    HW164634   5.504   8.191   2.914  0.2945 -0.6901 -1.9114
21352SOL    HW264635   5.515   8.063   2.834  0.5502 -2.3426  0.6522
21353SOL     OW64636   9.753   0.038   1.947 -0.2325  0.3456  0.0717
21353SOL    HW164637   9.840   0.074   1.930  0.0564 -1.0287 -1.6976
21353SOL    HW264638   9.763  -0.056   1.931 -2.1410  0.2182 -0.6320
21354SOL     OW64639   3.989   9.126   2.822  0.9355  0.2155  0.0139
21354SOL    HW164640   3.990   9.172   2.738  1.7456  0.3188  0.0631
21354SOL    HW264641   4.073   9.149   2.861  1.8274 -2.0783 -0.3902
21355SOL     OW64642   6.463   5.946   4.398 -0.3677  0.1146  0.0950
21355SOL    HW164643   6.500   5.909   4.478 -0.4148  0.7242  0.4009
21355SOL    HW264644   6.373   5.914   4.397 -0.6302  0.8270  0.7451
21356SOL     OW64645   3.438   3.031   6.790 -0.0242  0.1996  0.2377
21356SOL    HW164646   3.441   3.063   6.881 -1.9926  2.1039 -0.2892
21356SOL    HW264647   3.380   3.093   6.745  1.2740 -0.4121 -2.4554
21357SOL     OW64648   1.345   4.308   5.807 -0.1398  0.3513  0.2873
21357SOL    HW164649   1.288   4.289   5.732  1.2543 -0.5660 -0.5936
21357SOL    HW264650   1.373   4.399   5.793  0.5626  0.0093 -0.6487
21358SOL     OW64651   4.684   5.803   5.345  0.6869 -0.1487  0.5338
21358SOL    HW164652   4.698   5.756   5.262 -1.6655 -0.6166  0.3190
21358SOL    HW264653   4.663   5.892   5.318 -0.5937 -0.4232  0.5437
21359SOL     OW64654   8.762   5.731   5.755  0.3190 -0.3287 -0.5588
21359SOL    HW164655   8.777   5.823   5.776  1.2442 -0.2070 -1.6272
21359SOL    HW264656   8.676   5.711   5.792  0.5743  0.6593  0.6160
21360SOL     OW64657   5.193   6.236   1.162  0.0494 -0.2931  0.3946
21360SOL    HW164658   5.107   6.219   1.124 -0.0233 -0.8271  0.7827
21360SOL    HW264659   5.255   6.204   1.096 -0.0635 -0.6172  0.4457
21361SOL     OW64660   7.160   4.696   6.423  0.7798 -0.0588  0.7043
21361SOL    HW164661   7.073   4.735   6.428  0.9444  1.1720 -3.0563
21361SOL    HW264662   7.221   4.770   6.428  1.3644 -0.4099 -0.6582
21362SOL     OW64663   5.016   0.386   4.660 -0.3358 -0.0116  0.4172
21362SOL    HW164664   5.063   0.309   4.627 -0.4725 -0.0574  0.3275
21362SOL    HW264665   5.077   0.427   4.721 -0.4298 -0.4418  0.8038
21363SOL     OW64666   7.072   8.581   3.501  0.0878  0.1952  0.5335
21363SOL    HW164667   7.167   8.595   3.493  0.2911 -0.6504  1.3268
21363SOL    HW264668   7.036   8.669   3.514  0.7281  0.5517 -0.0109
21364SOL     OW64669   1.250   9.887   0.287 -0.4123 -0.2976  0.2369
21364SOL    HW164670   1.192   9.810   0.280 -1.4900  0.4249  0.8592
21364SOL    HW264671   1.193   9.961   0.267  0.4830  0.3910  0.2060
21365SOL     OW64672   0.851   4.604   5.136  0.3469  0.1703 -0.4700
21365SOL    HW164673   0.942   4.601   5.107  0.3142  0.1794 -0.5757
21365SOL    HW264674   0.849   4.672   5.204  0.4958 -0.1078 -0.1888
21366SOL     OW64675   0.498   8.826   0.058  0.6036  0.3127  0.9186
21366SOL    HW164676   0.587   8.855   0.037  0.5834 -0.4998 -0.4419
21366SOL    HW264677   0.507   8.733   0.079  0.1536  0.3635  1.3456
21367SOL     OW64678   2.699   9.103   4.925 -0.9417  0.2573  0.2294
21367SOL    HW164679   2.661   9.105   5.012  1.4772 -0.8408  1.4163
21367SOL    HW264680   2.723   9.012   4.910 -1.7791  0.3231 -1.8435
21368SOL     OW64681   4.613   4.768   6.567  0.1861  0.2451  0.1953
21368SOL    HW164682   4.656   4.690   6.601 -0.8228 -0.1170  0.6742
21368SOL    HW264683   4.618   4.759   6.472 -0.2940 -0.6279  0.2428
21369SOL     OW64684   1.359   0.895   1.732 -0.3242  0.8045 -0.3329
21369SOL    HW164685   1.336   0.808   1.763 -0.2162  0.7297 -0.4630
21369SOL    HW264686   1.412   0.932   1.804 -1.2702  1.1733  0.1871
21370SOL     OW64687   0.504   3.404   1.070 -0.4598 -0.4179 -0.3450
21370SOL    HW164688   0.556   3.363   1.001 -1.6438 -0.0915 -1.4553
21370SOL    HW264689   0.498   3.337   1.138 -0.1284 -1.1250 -0.9924
21371SOL     OW64690   1.934   8.402   1.693  0.0753  0.0572  0.4180
21371SOL    HW164691   1.874   8.448   1.752 -1.0633  0.7686 -1.2338
21371SOL    HW264692   1.931   8.311   1.723  1.3997  0.7329  2.9328
21372SOL     OW64693   7.254   8.290   7.406  0.6027  0.3725 -0.4377
21372SOL    HW164694   7.269   8.292   7.501 -0.2503  2.7723 -0.2835
21372SOL    HW264695   7.232   8.199   7.388  0.0675 -0.0190  1.7989
21373SOL     OW64696   6.365   6.921   4.906 -0.0724  0.4129  0.1243
21373SOL    HW164697   6.302   6.961   4.966 -1.0810 -0.4652 -0.3210
21373SOL    HW264698   6.368   6.981   4.831 -0.6744  0.2647 -0.0205
21374SOL     OW64699   3.982   6.034   6.962 -0.3652 -0.0286 -0.0823
21374SOL    HW164700   3.986   5.940   6.980 -0.9756  0.0217  0.3610
21374SOL    HW264701   3.894   6.048   6.926 -0.3156  0.3805 -0.0544
21375SOL     OW64702   5.758   2.385   9.519 -0.1107  0.4225  0.4072
21375SOL    HW164703   5.704   2.461   9.538  0.1790  0.2620  1.9765
21375SOL    HW264704   5.727   2.317   9.579  2.0320  0.4405  1.6496
21376SOL     OW64705   1.197   3.761   1.474 -0.2559 -0.1953  0.2005
21376SOL    HW164706   1.276   3.784   1.427  0.6302 -1.2316  1.1356
21376SOL    HW264707   1.126   3.797   1.421  0.7936  0.1561 -1.0012
21377SOL     OW64708   8.880   5.586   9.346  0.4829 -0.3602  0.4083
21377SOL    HW164709   8.879   5.663   9.403  0.9824 -1.0079  1.3069
21377SOL    HW264710   8.909   5.619   9.261  0.6840  0.4437  0.7853
21378SOL     OW64711   7.435   4.419   5.376 -0.0072 -0.2870  0.5622
21378SOL    HW164712   7.374   4.390   5.308  0.2748 -1.3283  0.7357
21378SOL    HW264713   7.380   4.433   5.454 -0.0794 -0.8383  0.6100
21379SOL     OW64714   7.169   9.867   3.294 -0.1940  0.0571  0.0710
21379SOL    HW164715   7.213   9.877   3.209 -0.6643 -0.9911 -0.3157
21379SOL    HW264716   7.099   9.804   3.277  1.2019 -2.0948  1.7554
21380SOL     OW64717   9.332   9.492   8.773 -0.2076  0.3194 -0.4641
21380SOL    HW164718   9.340   9.586   8.757 -3.5472  0.4980 -2.0044
21380SOL    HW264719   9.280   9.486   8.853 -0.6508 -0.1722 -0.7801
21381SOL     OW64720   5.998   7.967   8.040 -0.2571 -0.7208  0.3241
21381SOL    HW164721   5.992   8.044   8.096 -1.9264 -0.5303 -0.0554
21381SOL    HW264722   5.953   7.898   8.089 -0.1032 -1.0429  0.0162
21382SOL     OW64723   6.569   0.367   9.411 -0.1047  0.4326  0.0391
21382SOL    HW164724   6.566   0.463   9.410 -2.2497  0.4048  0.0694
21382SOL    HW264725   6.594   0.344   9.500  2.7301  0.9164 -0.5153
21383SOL     OW64726   1.067   9.609   0.562  0.5476  0.5943  0.0370
21383SOL    HW164727   1.114   9.543   0.511 -0.6342 -1.6112  1.6377
21383SOL    HW264728   0.993   9.633   0.507 -1.3283 -2.5604  0.9154
21384SOL     OW64729   6.508   9.552   1.739  0.2455 -0.3469  0.2374
21384SOL    HW164730   6.529   9.645   1.733 -0.5870 -0.2140 -0.9935
21384SOL    HW264731   6.431   9.548   1.795 -0.5750 -0.1283 -0.8396
21385SOL     OW64732   6.720   1.793   8.642 -0.0497 -0.1845  0.2176
21385SOL    HW164733   6.643   1.777   8.696 -0.6731 -0.5013 -0.7357
21385SOL    HW264734   6.696   1.760   8.555  0.6341  1.0260 -0.4582
21386SOL     OW64735   7.494   4.100   2.335  0.6524  0.3791  0.2233
21386SOL    HW164736   7.515   4.177   2.389 -0.0882  0.1902  0.7919
21386SOL    HW264737   7.579   4.069   2.304  0.9902  1.2329  0.2487
21387SOL     OW64738   7.665   5.084   9.764  0.1523  0.2806 -0.6171
21387SOL    HW164739   7.701   5.164   9.801  1.0920  0.3725 -1.6920
21387SOL    HW264740   7.573   5.104   9.748 -0.0965  0.4787  0.9349
21388SOL     OW64741   8.813   4.775   4.469 -0.0373 -0.1938 -0.4318
21388SOL    HW164742   8.840   4.701   4.524  2.1192 -0.1315 -1.3035
21388SOL    HW264743   8.793   4.735   4.384 -2.4915 -0.1819  0.0827
21389SOL     OW64744   6.338   0.743   9.946  0.0711  0.3400 -0.5809
21389SOL    HW164745   6.351   0.728  10.039  2.2133 -1.7540 -1.1395
21389SOL    HW264746   6.270   0.681   9.920  0.1770  0.2257 -0.5866
21390SOL     OW64747   9.754   3.164   9.207  0.3109 -0.6975  0.0887
21390SOL    HW164748   9.781   3.123   9.125  0.3762 -2.5071  0.9560
21390SOL    HW264749   9.836   3.191   9.249  0.2084  1.5797 -1.0402
21391SOL     OW64750   8.860   2.656   4.815 -0.1265 -0.0540  1.0424
21391SOL    HW164751   8.917   2.726   4.849 -0.3777  0.2486  0.8508
21391SOL    HW264752   8.802   2.636   4.888 -0.7398  0.6747  0.7670
21392SOL     OW64753   1.555   8.781   1.703 -0.0644 -0.1779 -0.0219
21392SOL    HW164754   1.554   8.845   1.632  1.1476  1.0936  1.0304
21392SOL    HW264755   1.541   8.832   1.782  0.7097 -1.2315  0.8430
21393SOL     OW64756   7.174   2.463   2.640 -0.2777 -0.4235  0.0035
21393SOL    HW164757   7.241   2.486   2.703 -0.9471  0.8086  0.3001
21393SOL    HW264758   7.121   2.396   2.684  0.4398 -1.0244 -0.0378
21394SOL     OW64759   9.934   8.132   2.127 -0.7028 -0.8492 -0.2143
21394SOL    HW164760   9.980   8.052   2.102  0.9798 -0.1450  0.5013
21394SOL    HW264761   9.979   8.162   2.206 -0.7654  1.2132 -0.9016
21395SOL     OW64762   2.045   4.576   3.104  0.2738  0.1765 -0.2321
21395SOL    HW164763   2.063   4.633   3.029  1.8253  1.6906  1.2186
21395SOL    HW264764   2.092   4.495   3.085 -0.4051  0.0369 -1.4392
21396SOL     OW64765   5.368   3.191   3.568 -0.5795  0.0215  0.6331
21396SOL    HW164766   5.312   3.206   3.644  0.0262 -1.4757  1.4099
21396SOL    HW264767   5.457   3.203   3.601 -0.3458  0.5681 -0.1563
21397SOL     OW64768   1.053   0.345   5.569 -0.1607  0.2728  0.4203
21397SOL    HW164769   1.031   0.335   5.662 -0.2752  0.6470  0.4335
21397SOL    HW264770   1.135   0.297   5.559 -1.4305 -1.9723  0.1709
21398SOL     OW64771   9.841   1.275   5.198 -0.3516  0.2662  0.5993
21398SOL    HW164772   9.804   1.347   5.148  1.2653  0.2756 -0.6680
21398SOL    HW264773   9.917   1.312   5.243  0.8555 -0.7396 -0.5407
21399SOL     OW64774   5.975   5.489   3.491 -0.3078 -0.5257  0.4635
21399SOL    HW164775   5.962   5.487   3.586 -2.2054  0.1805  0.2669
21399SOL    HW264776   5.890   5.518   3.456  0.3398 -0.8161 -1.4527
21400SOL     OW64777   2.575   6.968   9.955 -0.1597 -0.0878 -0.4517
21400SOL    HW164778   2.548   7.041   9.899 -1.0949 -0.0384  0.0592
21400SOL    HW264779   2.590   6.896   9.894  2.5280  0.9663 -1.1851
21401SOL     OW64780   4.057   2.785   9.255  0.6273 -0.2379  0.4013
21401SOL    HW164781   4.126   2.727   9.287  1.6733 -0.2965 -1.7338
21401SOL    HW264782   4.072   2.868   9.300  1.8125 -0.3985  0.3449
21402SOL     OW64783   6.747   5.530   3.784 -0.1232 -0.1018  0.2245
21402SOL    HW164784   6.780   5.471   3.716 -0.0228 -0.8097  0.8693
21402SOL    HW264785   6.654   5.507   3.793  0.0274 -0.5026  0.8104
21403SOL     OW64786   1.709   3.653   7.918  0.4614  0.6403  0.2190
21403SOL    HW164787   1.671   3.735   7.949 -1.2179  1.2084 -2.9495
21403SOL    HW264788   1.723   3.667   7.824  1.1470 -2.3400 -0.2182
21404SOL     OW64789   7.359   5.032   5.694  0.4656 -0.1452  0.3284
21404SOL    HW164790   7.290   5.094   5.670  0.6897 -0.2633 -0.6372
21404SOL    HW264791   7.364   5.039   5.789 -0.9041 -0.1710  0.4259
21405SOL     OW64792   5.436   3.552   2.500 -0.1216  0.1261  0.5141
21405SOL    HW164793   5.392   3.634   2.475 -0.9254 -0.5552 -0.3820
21405SOL    HW264794   5.504   3.580   2.561 -1.2565  1.3106  1.3038
21406SOL     OW64795   6.959   9.025   1.221  0.2425  0.2561  0.4344
21406SOL    HW164796   7.053   9.027   1.238  0.2695 -0.6371  0.4276
21406SOL    HW264797   6.918   9.023   1.308  0.2574 -0.2338  0.4309
21407SOL     OW64798   1.244   1.259   3.890  0.5529 -0.3625  0.3946
21407SOL    HW164799   1.271   1.351   3.890  1.3891 -0.5962  0.1719
21407SOL    HW264800   1.286   1.222   3.967 -1.1801 -0.1848  1.4715
21408SOL     OW64801   6.559   4.044   4.550  0.4153 -0.1417  0.9178
21408SOL    HW164802   6.617   4.113   4.584  0.9215  0.1187 -0.4298
21408SOL    HW264803   6.599   4.017   4.468 -0.4125 -1.2472  0.8541
21409SOL     OW64804   5.152   3.166   6.715  0.3527  0.2137  0.5373
21409SOL    HW164805   5.111   3.116   6.645 -0.7021  0.6967  0.7973
21409SOL    HW264806   5.241   3.130   6.720 -0.2061 -1.2766  0.3852
21410SOL     OW64807   9.234   0.689   5.042 -0.0522  0.4188  0.2509
21410SOL    HW164808   9.155   0.728   5.081  0.4304  2.3769 -0.6149
21410SOL    HW264809   9.284   0.764   5.011  0.8714 -0.9377 -1.6706
21411SOL     OW64810   5.888   8.111   0.651 -0.0899  0.3238  0.0521
21411SOL    HW164811   5.955   8.083   0.712 -1.3082 -0.5143  1.0419
21411SOL    HW264812   5.831   8.168   0.702 -0.0843  1.1258 -0.8064
21412SOL     OW64813   7.605   7.316   9.566  0.3696 -0.0844 -0.0791
21412SOL    HW164814   7.563   7.243   9.520  1.4492  0.6309 -2.3736
21412SOL    HW264815   7.544   7.389   9.554 -0.9188 -0.5769  2.5821
21413SOL     OW64816   0.197   2.505   3.579 -0.4080 -0.1268 -0.1260
21413SOL    HW164817   0.273   2.504   3.637 -0.4037  2.7512  0.0519
21413SOL    HW264818   0.123   2.518   3.638 -0.8046 -0.6194 -0.5042
21414SOL     OW64819   9.038   2.053   1.558  0.2700 -1.0315  0.0833
21414SOL    HW164820   9.034   2.051   1.462  0.5339  2.6305 -0.1298
21414SOL    HW264821   9.119   2.006   1.579  1.2138 -0.2847 -1.6620
21415SOL     OW64822   2.600   2.555   1.413 -0.1145 -0.1319  0.1012
21415SOL    HW164823   2.583   2.613   1.339 -1.9496  1.8251  1.9483
21415SOL    HW264824   2.648   2.481   1.375 -2.6557 -0.2122 -3.4001
21416SOL     OW64825   3.154   9.168   0.018  0.7062  0.5033 -0.0218
21416SOL    HW164826   3.231   9.224   0.009  2.0420 -1.1091  0.7165
21416SOL    HW264827   3.190   9.079   0.019 -0.8990 -0.2253  2.7779
21417SOL     OW64828   5.276   4.286   2.504  0.4666  0.6405 -0.0765
21417SOL    HW164829   5.337   4.315   2.572  1.3160  0.3918 -0.7091
21417SOL    HW264830   5.323   4.303   2.422 -0.6245  1.1306 -0.6060
21418SOL     OW64831   8.244   8.400   4.489  0.2288 -0.3394  0.6197
21418SOL    HW164832   8.238   8.307   4.468 -2.8460  0.1644 -1.4503
21418SOL    HW264833   8.189   8.410   4.567 -2.4490  0.1051 -1.1887
21419SOL     OW64834   7.717   9.182   4.808  1.0823 -0.1947 -0.9658
21419SOL    HW164835   7.704   9.276   4.822  1.5784 -0.3103  0.4379
21419SOL    HW264836   7.632   9.151   4.777  0.6837  0.6006 -0.7123
21420SOL     OW64837   6.088   6.124   3.320 -0.4117 -0.4428  0.4049
21420SOL    HW164838   6.002   6.090   3.294 -0.2656 -1.8536  1.6484
21420SOL    HW264839   6.072   6.217   3.340 -1.4642 -0.4889 -0.1533
21421SOL     OW64840   9.074   1.485   1.063 -0.1090  0.2733  0.3364
21421SOL    HW164841   9.153   1.523   1.024  0.4917 -0.3064  0.9561
21421SOL    HW264842   9.095   1.392   1.073 -1.5732 -0.2786 -1.2144
21422SOL     OW64843   5.547   6.582   3.312  0.6926  0.3742 -0.0366
21422SOL    HW164844   5.469   6.624   3.348  1.6218 -0.4244  3.2540
21422SOL    HW264845   5.514   6.502   3.270 -0.4357  1.0852 -0.5306
21423SOL     OW64846   0.302   0.851   3.209  0.0969  0.1571 -0.4033
21423SOL    HW164847   0.255   0.866   3.292  0.1014  1.2070 -0.5719
21423SOL    HW264848   0.235   0.864   3.142  0.3740  0.5625 -0.6042
21424SOL     OW64849   8.315   5.435   8.524 -0.7691  0.5273 -0.2362
21424SOL    HW164850   8.335   5.348   8.558 -0.0002  0.4660 -0.7972
21424SOL    HW264851   8.220   5.437   8.515 -0.9708  0.4673  1.6661
21425SOL     OW64852   0.064   1.826   2.536 -0.2830  0.3356  0.9919
21425SOL    HW164853  -0.007   1.772   2.570 -0.2314  0.1838  0.8555
21425SOL    HW264854   0.136   1.812   2.598  0.4847 -1.4837 -0.2382
21426SOL     OW64855   8.326   8.730   3.988 -0.3329 -0.7676 -0.1450
21426SOL    HW164856   8.298   8.758   3.901 -0.5177 -0.4608  0.0132
21426SOL    HW264857   8.337   8.635   3.979 -1.1730 -0.8613 -0.2811
21427SOL     OW64858   8.090   9.074   7.308 -0.5463  0.2311  0.0888
21427SOL    HW164859   8.109   9.046   7.218  0.3706 -2.1435  0.9406
21427SOL    HW264860   8.013   9.022   7.332  0.8466 -1.2702  1.5370
21428SOL     OW64861   1.956   7.325   9.155 -0.2710  0.4649  0.4199
21428SOL    HW164862   2.036   7.329   9.208  0.1731  1.0473 -0.2785
21428SOL    HW264863   1.892   7.377   9.204 -0.4243 -0.5313  1.3041
21429SOL     OW64864   3.546   3.244   4.873  0.2605  0.7385 -0.1107
21429SOL    HW164865   3.462   3.250   4.827  0.3994  2.2420 -0.2307
21429SOL    HW264866   3.590   3.170   4.832 -0.8883  0.0872 -0.2257
21430SOL     OW64867   5.748   2.919   3.586  0.0439 -0.1646 -0.1500
21430SOL    HW164868   5.756   2.831   3.550  2.1009  0.1310 -0.4780
21430SOL    HW264869   5.693   2.907   3.664  1.7518 -2.0685  0.8411
21431SOL     OW64870   6.835   9.562   8.737  0.3159 -0.2624 -0.1642
21431SOL    HW164871   6.917   9.521   8.710  0.1356  0.4187 -1.8309
21431SOL    HW264872   6.823   9.634   8.676 -0.2530  1.2365  1.6187
21432SOL     OW64873   5.590   1.588   5.140  0.4468  0.9650  0.5319
21432SOL    HW164874   5.555   1.627   5.060 -0.7912 -0.7377  0.1853
21432SOL    HW264875   5.601   1.495   5.118 -0.8383  0.2656  2.6119
21433SOL     OW64876   9.299   3.940   2.611 -0.7750 -0.1159 -0.4846
21433SOL    HW164877   9.311   3.849   2.640 -0.5900  0.1518  0.3072
21433SOL    HW264878   9.214   3.966   2.649  0.1933  0.7484  1.2256
21434SOL     OW64879   7.224   4.309   2.329  0.1992  0.1687  0.2740
21434SOL    HW164880   7.314   4.280   2.344  0.1557  0.4001  0.9944
21434SOL    HW264881   7.223   4.401   2.356 -0.4336 -0.0339  0.9605
21435SOL     OW64882   5.760   6.512   2.138  0.0027  0.2524  0.0450
21435SOL    HW164883   5.822   6.442   2.157  2.9603  2.8899  0.8612
21435SOL    HW264884   5.720   6.531   2.223  0.7449  0.9063  0.2534
21436SOL     OW64885   7.315   1.832   8.919  0.3318 -0.3453  0.4107
21436SOL    HW164886   7.362   1.792   8.846  0.5201 -0.8661  0.8098
21436SOL    HW264887   7.367   1.809   8.996 -0.0084 -0.0270  0.7378
21437SOL     OW64888   4.978   7.938   5.853 -0.4003 -0.1273 -0.0861
21437SOL    HW164889   5.047   7.984   5.900 -1.7212  1.8656  0.0691
21437SOL    HW264890   4.976   7.981   5.767 -1.1328 -0.4609 -0.2436
21438SOL     OW64891   2.893   9.979   4.555 -0.2608 -0.2756  0.2749
21438SOL    HW164892   2.911   9.896   4.599 -0.9712 -0.2364  0.6444
21438SOL    HW264893   2.803  10.001   4.579 -0.2096  0.4148 -0.1229
21439SOL     OW64894   5.651   9.029   8.123 -0.0397 -0.2155  0.1153
21439SOL    HW164895   5.603   8.967   8.178  0.3906 -0.6790 -0.0168
21439SOL    HW264896   5.675   8.978   8.046  0.9986 -0.1098  0.3490
21440SOL     OW64897   8.137   9.304   5.258 -0.7674 -0.1900  0.5179
21440SOL    HW164898   8.230   9.328   5.250 -0.5829 -0.8559  0.6142
21440SOL    HW264899   8.112   9.336   5.345  0.2469 -2.7648  1.8805
21441SOL     OW64900   3.300   3.953   1.317 -0.0593  0.4794  0.1131
21441SOL    HW164901   3.245   3.973   1.393  1.1565  1.5265  0.7634
21441SOL    HW264902   3.373   3.901   1.352 -0.0848 -0.0179 -0.5470
21442SOL     OW64903   5.844   0.679   0.880  0.6790  0.7176 -0.0357
21442SOL    HW164904   5.866   0.650   0.791 -0.9198 -0.4800 -0.0944
21442SOL    HW264905   5.820   0.598   0.926  0.3747  1.4564  1.1401
21443SOL     OW64906   9.107   1.034   8.728  0.2845  0.6293  0.2576
21443SOL    HW164907   9.188   1.025   8.778  0.3329  1.7538  0.4012
21443SOL    HW264908   9.083   1.126   8.738 -0.8727  0.3646 -0.0043
21444SOL     OW64909   1.202   5.644   9.123  0.0977  0.3853  0.1073
21444SOL    HW164910   1.136   5.638   9.054  1.1846 -1.2351 -0.8608
21444SOL    HW264911   1.239   5.732   9.113 -0.6212  0.6240 -0.5607
21445SOL     OW64912   9.643   1.196   6.662 -0.3612 -0.2017 -0.2650
21445SOL    HW164913   9.613   1.267   6.718 -1.3392  0.3002 -1.3702
21445SOL    HW264914   9.681   1.240   6.586  0.8968 -0.8688 -0.0533
21446SOL     OW64915   2.137   2.993   1.967 -0.1553 -0.3169 -0.0189
21446SOL    HW164916   2.049   3.023   1.940  0.0106  0.5277  0.3546
21446SOL    HW264917   2.196   3.032   1.902 -0.0131 -0.5624 -0.0391
21447SOL     OW64918   8.373   1.825   4.769  0.1318  0.1368  0.2749
21447SOL    HW164919   8.457   1.825   4.816 -0.6932 -2.0343  1.9242
21447SOL    HW264920   8.308   1.800   4.835 -1.6090  0.3113 -1.2883
21448SOL     OW64921   4.835   3.136   2.509 -0.2848  0.0804 -0.3630
21448SOL    HW164922   4.868   3.048   2.525  0.6292  0.7824  2.1367
21448SOL    HW264923   4.742   3.132   2.529 -0.5536 -0.5820 -1.6298
21449SOL     OW64924   1.221   2.358   6.149 -0.5899 -0.2688 -0.2236
21449SOL    HW164925   1.233   2.427   6.085  0.7486  1.3016  1.5785
21449SOL    HW264926   1.267   2.282   6.112  0.7086  0.7869 -0.8724
21450SOL     OW64927   2.367   3.020   1.251 -0.2391 -0.0919  0.0819
21450SOL    HW164928   2.446   2.971   1.276 -0.4374 -0.3793  0.1546
21450SOL    HW264929   2.396   3.110   1.243  0.1917 -0.2639 -0.3227
21451SOL     OW64930   4.524   0.113   8.932 -0.2996 -0.4086  0.0093
21451SOL    HW164931   4.456   0.156   8.880 -1.0887 -0.7690  0.7150
21451SOL    HW264932   4.504   0.139   9.023  2.0132  1.5560  0.0539
21452SOL     OW64933   1.827   6.779   1.328 -0.6536  0.3872  0.2136
21452SOL    HW164934   1.809   6.688   1.308  0.5122 -0.0446  1.0300
21452SOL    HW264935   1.741   6.821   1.326 -1.2128 -0.7313 -0.1120
21453SOL     OW64936   4.179   7.343   3.138 -0.7539  0.2127 -0.3383
21453SOL    HW164937   4.115   7.272   3.138 -0.4586 -0.0835 -1.6400
21453SOL    HW264938   4.254   7.308   3.089 -0.4439  1.2716 -0.6549
21454SOL     OW64939   0.416   7.550   3.731  0.5741  0.3713 -0.3197
21454SOL    HW164940   0.334   7.509   3.758 -0.5535  1.8929 -1.2868
21454SOL    HW264941   0.458   7.485   3.675 -1.7293  0.8606 -2.7960
21455SOL     OW64942   7.587   4.066   5.720  0.3419 -0.2750  0.0361
21455SOL    HW164943   7.500   4.037   5.692 -0.1457  1.1402  0.0100
21455SOL    HW264944   7.584   4.060   5.816  0.4732 -0.8969  0.0061
21456SOL     OW64945   7.978   4.004   9.552  0.3149  0.7094 -0.4658
21456SOL    HW164946   7.946   3.933   9.608 -0.3805  0.7047 -0.8675
21456SOL    HW264947   7.921   4.078   9.573  1.3259  1.3118  0.2974
21457SOL     OW64948   1.620   3.082   1.219  0.7641 -0.1298  0.5008
21457SOL    HW164949   1.641   3.025   1.293 -0.6593 -1.1711  0.1578
21457SOL    HW264950   1.568   3.153   1.258 -0.1223 -0.7628  0.4940
21458SOL     OW64951   5.077   4.392   8.898 -0.4011 -0.4364  0.4769
21458SOL    HW164952   5.012   4.418   8.832  0.0732  0.9200  0.5173
21458SOL    HW264953   5.105   4.305   8.871 -1.1686 -0.4314 -0.3746
21459SOL     OW64954   8.688   0.926   1.680  0.3057 -0.4403 -0.2363
21459SOL    HW164955   8.777   0.953   1.657  1.3396 -1.7191  1.9873
21459SOL    HW264956   8.679   0.838   1.645 -0.8468  0.3327 -2.0844
21460SOL     OW64957   7.100   9.062   5.108 -0.1390 -0.1256 -0.0846
21460SOL    HW164958   7.091   8.987   5.168 -2.2926 -0.6721 -0.9887
21460SOL    HW264959   7.065   9.136   5.157 -1.9914 -0.5918 -0.6325
21461SOL     OW64960   7.465   5.696   9.764 -0.3678  0.0767  0.0474
21461SOL    HW164961   7.497   5.712   9.853 -0.4272 -1.5206  0.3815
21461SOL    HW264962   7.538   5.721   9.707 -0.0568  0.3919  0.5812
21462SOL     OW64963   9.139   4.301   0.110 -0.3580 -0.9328  0.1803
21462SOL    HW164964   9.129   4.282   0.203 -0.4969 -1.0365  0.1456
21462SOL    HW264965   9.154   4.216   0.069  0.5193 -0.8024  0.2051
21463SOL     OW64966   2.002   4.914   6.567 -0.0967  1.0519 -0.6051
21463SOL    HW164967   2.057   4.838   6.546 -0.9384  0.0934  0.5156
21463SOL    HW264968   2.062   4.977   6.607  0.2129 -0.0571  0.7776
21464SOL     OW64969   2.085   7.319   2.244  0.2929  0.0760  0.2927
21464SOL    HW164970   2.179   7.303   2.237  0.0954 -0.9069 -0.3714
21464SOL    HW264971   2.051   7.244   2.292 -0.4392 -0.7546 -1.4252
21465SOL     OW64972   5.192   7.499   9.063 -0.5693  0.1907 -0.6770
21465SOL    HW164973   5.174   7.414   9.024 -0.2218 -0.2510  0.0886
21465SOL    HW264974   5.134   7.560   9.018  0.6587 -0.0515 -2.7256
21466SOL     OW64975   6.349   1.758   6.798 -0.4280 -0.0392  0.1036
21466SOL    HW164976   6.326   1.849   6.816 -2.7564 -0.8311  1.6037
21466SOL    HW264977   6.265   1.715   6.782  0.6132 -1.9649 -0.4710
21467SOL     OW64978   5.691   7.507   2.938 -0.4876 -0.3587  0.4630
21467SOL    HW164979   5.645   7.537   3.017 -2.3474  1.5418 -1.2253
21467SOL    HW264980   5.622   7.469   2.884  0.4975 -0.2999 -0.8719
21468SOL     OW64981   6.761   3.819   9.832  0.3055  0.1778 -0.0635
21468SOL    HW164982   6.794   3.743   9.783 -0.5492 -0.2720  0.0466
21468SOL    HW264983   6.782   3.894   9.776  1.8040 -0.0417  0.1549
21469SOL     OW64984   8.432   0.288   7.299 -0.4851  0.2228 -0.6135
21469SOL    HW164985   8.492   0.270   7.372 -1.3270  1.4583  0.4467
21469SOL    HW264986   8.371   0.214   7.301 -2.1104  1.4774  1.7426
21470SOL     OW64987   6.846   7.167   0.257 -0.0571 -0.4720  0.3599
21470SOL    HW164988   6.777   7.190   0.319  0.0772  2.6660 -0.4892
21470SOL    HW264989   6.925   7.159   0.311 -0.0486  1.6459  0.7262
21471SOL     OW64990   9.731   4.848   5.828 -0.2445 -0.5885  0.3865
21471SOL    HW164991   9.772   4.919   5.779 -0.8809 -0.2822  0.3002
21471SOL    HW264992   9.741   4.873   5.920 -0.8934 -0.1511  0.3406
21472SOL     OW64993   4.086   8.611   2.824  0.0874  1.0325  0.0999
21472SOL    HW164994   4.050   8.694   2.791  0.3112  1.0050 -0.2189
21472SOL    HW264995   4.061   8.610   2.916  0.5109  1.6941  0.2279
21473SOL     OW64996   3.226   1.974   4.195  0.2839  0.5716  0.7154
21473SOL    HW164997   3.261   1.906   4.138  1.0254  0.2062  1.5781
21473SOL    HW264998   3.234   2.054   4.144  0.8128  0.2361  0.2546
21474SOL     OW64999   3.995   0.382   0.160  0.4013 -0.3738  0.2500
21474SOL    HW165000   4.076   0.415   0.198  0.3081  1.1309 -0.7337
21474SOL    HW265001   4.024   0.329   0.086  0.5237 -1.4236  1.0404
21475SOL     OW65002   0.229   5.792   1.449  0.3088 -0.0031  0.3620
21475SOL    HW165003   0.181   5.870   1.424  0.4289  0.1011  0.4547
21475SOL    HW265004   0.194   5.723   1.393 -0.9667 -0.2503  1.4323
21476SOL     OW65005   7.304   6.382   5.658  0.4545  0.1061  0.5043
21476SOL    HW165006   7.289   6.441   5.584 -1.4039 -0.3675  0.4584
21476SOL    HW265007   7.265   6.427   5.733  1.2254  0.0240  0.9625
21477SOL     OW65008   3.011   8.441   3.711 -0.0520 -0.6263 -0.3109
21477SOL    HW165009   2.922   8.452   3.676 -0.1155  0.3679  0.1414
21477SOL    HW265010   3.065   8.425   3.633 -0.3922  0.3102 -0.7572
21478SOL     OW65011   1.008   6.574   9.874 -0.3588 -0.0374  0.0868
21478SOL    HW165012   1.070   6.633   9.917  0.6293 -0.1984 -1.0331
21478SOL    HW265013   0.925   6.621   9.873  0.0653  0.7277  0.4967
21479SOL     OW65014   4.953   3.521   2.954  0.1508  0.5283 -0.0138
21479SOL    HW165015   4.893   3.509   3.027  1.1988  0.4840  0.8705
21479SOL    HW265016   4.937   3.446   2.897 -0.8832  0.7224  0.0089
21480SOL     OW65017   0.117   4.814   5.283  0.1621  0.2014 -0.1574
21480SOL    HW165018   0.206   4.830   5.251  0.3925 -0.0071  0.3734
21480SOL    HW265019   0.073   4.772   5.210  1.4159 -2.6714  0.6024
21481SOL     OW65020   0.651   1.262   7.649 -0.1580 -0.1634  0.3158
21481SOL    HW165021   0.630   1.270   7.742 -1.0893 -2.9590  0.4187
21481SOL    HW265022   0.586   1.318   7.605 -0.7653 -0.1104  1.2465
21482SOL     OW65023   5.018   8.664   5.950 -0.3433  0.3620 -0.4936
21482SOL    HW165024   5.074   8.654   5.873  0.5025  0.4151  0.1097
21482SOL    HW265025   5.067   8.720   6.009  0.0144 -1.4570  1.0205
21483SOL     OW65026   6.880   6.295   0.215 -0.0107  0.1100  0.2229
21483SOL    HW165027   6.826   6.305   0.294  1.3063 -0.4082  1.2287
21483SOL    HW265028   6.907   6.384   0.193 -0.9797  0.3434 -0.1126
21484SOL     OW65029   8.462   3.344   3.200  0.0946  0.2123  0.0815
21484SOL    HW165030   8.482   3.420   3.256 -1.5292  0.5345  0.2915
21484SOL    HW265031   8.519   3.355   3.124 -0.2776  1.7988 -0.0123
21485SOL     OW65032   1.011   0.306   5.858  0.2702 -0.5511  0.6370
21485SOL    HW165033   0.917   0.302   5.876  0.3144  1.0654  1.4660
21485SOL    HW265034   1.049   0.342   5.938  1.4483 -0.0903 -0.1003
21486SOL     OW65035   5.989   4.202   8.279  0.0236  0.2273 -0.5122
21486SOL    HW165036   5.958   4.184   8.368  0.7796 -1.1722 -0.5003
21486SOL    HW265037   6.053   4.272   8.289 -1.1101  1.2592 -0.1951
21487SOL     OW65038   6.135   6.161   5.280 -0.4515 -0.1372  1.0817
21487SOL    HW165039   6.042   6.160   5.299 -0.6125  1.4807  0.4975
21487SOL    HW265040   6.163   6.250   5.301  0.2554  0.4296 -1.9011
21488SOL     OW65041   6.041   9.941   2.409 -0.0450 -0.1962  0.6294
21488SOL    HW165042   6.019  10.021   2.361 -0.7207 -1.2221 -0.8562
21488SOL    HW265043   6.136   9.946   2.423 -0.2598  1.4604  1.7477
21489SOL     OW65044   4.056   3.672   2.172  0.3719  0.3444 -0.2701
21489SOL    HW165045   3.966   3.644   2.184  0.8247 -1.5741 -1.0346
21489SOL    HW265046   4.081   3.639   2.086  1.5426  1.6381 -0.4757
21490SOL     OW65047   0.627   3.236   3.201 -0.6439  0.0079  0.0656
21490SOL    HW165048   0.558   3.209   3.261  0.2938 -0.0948  1.1477
21490SOL    HW265049   0.681   3.157   3.190  0.6474  0.6770  1.1777
21491SOL     OW65050   9.010   9.523   9.684  0.5478  0.2950 -0.1225
21491SOL    HW165051   8.996   9.461   9.757  0.6449  1.4850  0.9406
21491SOL    HW265052   8.969   9.604   9.714 -0.4080  0.5063 -1.8923
21492SOL     OW65053   1.535   6.287   6.833 -0.4033 -0.6795 -0.1394
21492SOL    HW165054   1.555   6.359   6.773 -0.8081 -1.8912 -1.7803
21492SOL    HW265055   1.445   6.305   6.861  0.1168  0.4258  0.9553
21493SOL     OW65056   0.514   2.279   2.224  1.0563 -0.4828 -0.4043
21493SOL    HW165057   0.527   2.357   2.170  2.1157 -0.3101  0.0578
21493SOL    HW265058   0.447   2.228   2.179 -0.8945  1.4671  0.1163
21494SOL     OW65059   8.791   9.901   9.140 -0.1130 -0.6543 -0.3823
21494SOL    HW165060   8.787   9.945   9.225 -0.3879 -1.8178  0.2259
21494SOL    HW265061   8.848   9.826   9.155  0.1220 -0.6784 -1.3317
21495SOL     OW65062   9.837   4.615   5.834  0.4403  0.4772  0.2652
21495SOL    HW165063   9.826   4.586   5.925 -1.2602 -2.1639 -0.6559
21495SOL    HW265064   9.797   4.702   5.832 -0.1892  0.2652  1.8910
21496SOL     OW65065   2.817   1.350   6.970  0.1832  0.6421  0.6951
21496SOL    HW165066   2.882   1.420   6.970 -0.1812  1.0484 -1.2461
21496SOL    HW265067   2.825   1.309   6.884 -0.2026 -1.1667  1.4722
21497SOL     OW65068   2.612   1.256   0.549 -0.1171 -0.3336  0.1201
21497SOL    HW165069   2.561   1.266   0.468  0.2153 -1.4814 -0.2389
21497SOL    HW265070   2.665   1.178   0.535 -0.3555 -0.7971  1.6010
21498SOL     OW65071   9.324   5.895   9.443  0.7439  0.0255 -0.4866
21498SOL    HW165072   9.391   5.831   9.420 -0.3472 -1.2193 -0.3190
21498SOL    HW265073   9.285   5.920   9.360  2.0379  1.4985 -0.6845
21499SOL     OW65074   0.497   9.162   8.820  0.0196  0.2045  0.1503
21499SOL    HW165075   0.570   9.154   8.759 -0.3211 -1.6767 -0.0791
21499SOL    HW265076   0.538   9.174   8.905  0.5235  1.3553 -0.2328
21500SOL     OW65077   9.289   9.175   1.411 -0.3834 -0.3228 -0.4512
21500SOL    HW165078   9.349   9.180   1.337  0.3443  0.3704  0.1638
21500SOL    HW265079   9.247   9.261   1.414 -1.0548 -0.6394 -0.5790
21501SOL     OW65080   8.941   1.596   2.212  0.1358 -0.7069  0.3572
21501SOL    HW165081   8.885   1.642   2.274  1.2432 -0.5117  1.2347
21501SOL    HW265082   8.926   1.503   2.232 -0.7200 -0.7086 -0.1969
21502SOL     OW65083   5.675   9.661   5.492 -1.0841  0.2411  0.0733
21502SOL    HW165084   5.686   9.646   5.586 -1.2448 -0.0507  0.0444
21502SOL    HW265085   5.715   9.747   5.477 -1.5588  0.5451  0.5064
21503SOL     OW65086   0.583   5.942   2.903  0.0454 -0.8166  0.2969
21503SOL    HW165087   0.649   5.951   2.972 -0.3671 -0.0576  0.5995
21503SOL    HW265088   0.592   6.022   2.851  0.5761 -1.5302 -0.7369
21504SOL     OW65089   4.991   5.850   9.216 -0.1177 -0.5651  0.2753
21504SOL    HW165090   4.919   5.906   9.187 -0.2944 -0.5584  0.7224
21504SOL    HW265091   5.000   5.868   9.310 -0.6653 -1.8162  0.5959
21505SOL     OW65092   8.874   9.466   4.502 -0.2572 -0.1716 -0.0796
21505SOL    HW165093   8.792   9.420   4.488  0.9131 -1.8884 -1.7991
21505SOL    HW265094   8.870   9.495   4.593 -3.8274  2.1621 -0.7926
21506SOL     OW65095   0.505   9.379   8.037  0.1093 -0.3468  0.1371
21506SOL    HW165096   0.481   9.445   7.973  1.2869 -0.1721 -0.1548
21506SOL    HW265097   0.521   9.300   7.986  2.6969  0.2095 -0.0716
21507SOL     OW65098   5.241   8.053   6.804 -0.3784  0.0896  0.0081
21507SOL    HW165099   5.314   8.094   6.757  0.6991 -0.8154  0.8449
21507SOL    HW265100   5.277   7.970   6.836 -1.6732 -0.1981  0.7496
21508SOL     OW65101   2.404   1.177   2.278 -0.2973  0.3053  0.0919
21508SOL    HW165102   2.327   1.232   2.294  0.1223  0.5743  1.3327
21508SOL    HW265103   2.455   1.226   2.213  0.8767  2.3096  2.3287
21509SOL     OW65104   6.502   7.025   8.811 -0.0660 -0.5984 -0.4233
21509SOL    HW165105   6.517   6.993   8.722 -1.2912 -0.5165 -0.6724
21509SOL    HW265106   6.564   6.976   8.865  0.9888 -0.3397 -1.3657
21510SOL     OW65107   1.939   2.240   8.740  0.2029  0.4597 -0.0001
21510SOL    HW165108   1.970   2.330   8.747 -0.7122  0.6758  1.9141
21510SOL    HW265109   1.862   2.237   8.796 -2.1477 -0.5440 -2.9879
21511SOL     OW65110   9.622   0.487   3.689  0.1673 -0.0724  0.3355
21511SOL    HW165111   9.647   0.565   3.639 -1.5292  0.2808 -0.0483
21511SOL    HW265112   9.701   0.462   3.737  1.7705 -0.1925 -2.1992
21512SOL     OW65113   3.435   9.089   7.152 -0.6646 -0.3851  0.4047
21512SOL    HW165114   3.410   9.035   7.228 -3.0011  0.6634  0.4692
21512SOL    HW265115   3.463   9.025   7.087  0.8780 -1.3520  1.9233
21513SOL     OW65116   3.877   8.691   6.896  0.6573 -0.1081 -0.3291
21513SOL    HW165117   3.937   8.675   6.969 -0.3603  1.3288  0.9082
21513SOL    HW265118   3.790   8.672   6.932  0.3496 -3.9261 -2.6128
21514SOL     OW65119   1.654   7.456   5.105 -0.0531  0.0830 -0.0477
21514SOL    HW165120   1.713   7.421   5.172  2.2248  1.7536 -1.0432
21514SOL    HW265121   1.584   7.498   5.154 -0.4492 -1.8928  1.1899
21515SOL     OW65122   8.695   5.400   8.524  0.2495 -0.5330 -0.1630
21515SOL    HW165123   8.726   5.327   8.471  0.3348  0.3966 -1.4452
21515SOL    HW265124   8.736   5.477   8.484 -1.7936  0.4860 -0.4218
21516SOL     OW65125   9.892   4.589   9.250 -0.1574 -0.0544 -0.0253
21516SOL    HW165126   9.965   4.531   9.225 -2.1769 -2.8951  0.2204
21516SOL    HW265127   9.846   4.607   9.168 -0.5896 -0.3689  0.1433
21517SOL     OW65128   1.561   8.951   9.857 -0.0839  0.1173 -0.2562
21517SOL    HW165129   1.651   8.923   9.839  0.0002  1.0122 -1.3127
21517SOL    HW265130   1.527   8.981   9.773 -1.3200 -0.0221  0.1645
21518SOL     OW65131   4.954   3.572   2.137 -0.1771 -0.3176  0.4307
21518SOL    HW165132   5.036   3.600   2.178 -1.2976 -0.0118  2.6422
21518SOL    HW265133   4.958   3.477   2.137 -0.3340 -0.3584  1.8191
21519SOL     OW65134   1.049   4.964   0.499  0.3177  0.2208  0.2139
21519SOL    HW165135   1.045   4.937   0.590  0.1683 -0.4695  0.0064
21519SOL    HW265136   0.975   5.024   0.488  2.0471  2.7824  1.3075
21520SOL     OW65137   4.227   6.941   7.413  0.3896  0.8989 -0.3315
21520SOL    HW165138   4.145   6.924   7.459 -0.0435 -0.5661 -1.5454
21520SOL    HW265139   4.200   6.968   7.325  1.2030  1.9119 -0.2888
21521SOL     OW65140   2.644   7.067   3.280 -0.0571 -0.4799 -0.4229
21521SOL    HW165141   2.689   6.999   3.329 -0.3091 -1.0447 -0.9643
21521SOL    HW265142   2.706   7.139   3.275 -0.1524 -0.2681  1.0273
21522SOL     OW65143   5.588   6.458   6.680  0.0118 -0.4397  0.1415
21522SOL    HW165144   5.537   6.485   6.757 -0.2342 -1.0576  0.2034
21522SOL    HW265145   5.544   6.379   6.649 -0.1075 -0.0036 -0.8532
21523SOL     OW65146   0.103   0.226   3.067  0.3387  0.2192  0.2645
21523SOL    HW165147   0.016   0.185   3.065  0.0720  0.6382  2.0163
21523SOL    HW265148   0.106   0.273   3.150  2.2313  0.2530  0.2273
21524SOL     OW65149   1.521   7.070   5.637  0.2887 -0.3209  0.0938
21524SOL    HW165150   1.504   7.157   5.672 -0.1487 -0.1280 -0.5789
21524SOL    HW265151   1.465   7.012   5.689  0.4279 -0.1726  0.4083
21525SOL     OW65152   6.666   7.585   4.311  0.4908 -0.2130  0.6366
21525SOL    HW165153   6.736   7.535   4.269 -0.0538  0.2135 -0.8273
21525SOL    HW265154   6.586   7.538   4.288  0.0351  0.9533 -0.2006
21526SOL     OW65155   1.967   6.431   6.940 -0.1629 -0.2739 -0.2432
21526SOL    HW165156   1.991   6.463   7.027 -1.8910 -0.7011  0.4522
21526SOL    HW265157   2.049   6.429   6.891  0.8224  0.1861  1.3053
21527SOL     OW65158   8.973   1.690   3.420  0.0305  0.1203 -0.5165
21527SOL    HW165159   8.984   1.767   3.475  1.7790 -1.0982  0.9587
21527SOL    HW265160   8.980   1.724   3.330  0.5924  1.6931  0.0866
21528SOL     OW65161   9.424   2.417   8.943  0.2764  0.0482  0.2428
21528SOL    HW165162   9.373   2.460   8.875 -0.0216  0.3946  0.6760
21528SOL    HW265163   9.366   2.350   8.978 -0.0320  0.6850  0.9868
21529SOL     OW65164   1.102   5.466   4.700 -0.0014 -0.0914 -0.8375
21529SOL    HW165165   1.088   5.546   4.751  1.4603 -0.2498 -0.1355
21529SOL    HW265166   1.024   5.413   4.717 -0.0085  0.2875  0.4548
21530SOL     OW65167   7.516   6.960   3.878  0.0897 -0.2832 -0.5829
21530SOL    HW165168   7.566   7.013   3.941 -2.5653  0.7023  0.8362
21530SOL    HW265169   7.545   6.991   3.793  2.8411 -0.7266  0.0873
21531SOL     OW65170   0.799   2.286   8.884 -0.2561 -0.4909 -0.0367
21531SOL    HW165171   0.704   2.300   8.876 -0.3848 -1.4740 -0.3429
21531SOL    HW265172   0.822   2.329   8.967 -0.9542 -0.1753  0.0052
21532SOL     OW65173   9.496   4.862   5.409  0.0492  0.3610 -0.0972
21532SOL    HW165174   9.499   4.934   5.472 -0.1629  0.4030 -0.1336
21532SOL    HW265175   9.510   4.783   5.462  0.4915  0.4412 -0.0860
21533SOL     OW65176   7.782   2.704   5.232  0.0577 -0.1198 -0.0101
21533SOL    HW165177   7.714   2.771   5.241 -1.3865 -1.4598 -0.4915
21533SOL    HW265178   7.857   2.750   5.196  0.1609  1.8500  2.4391
21534SOL     OW65179   4.843   0.903   9.739 -0.0075  0.1212  0.0616
21534SOL    HW165180   4.915   0.962   9.764  0.8731 -0.8335 -0.1413
21534SOL    HW265181   4.834   0.914   9.644  0.9584 -0.8900 -0.1771
21535SOL     OW65182   3.608   3.576   0.412  0.5425  0.2599  0.3843
21535SOL    HW165183   3.591   3.517   0.485  3.1602 -0.4185  0.5664
21535SOL    HW265184   3.565   3.534   0.337 -0.9763  0.2344  1.2263
21536SOL     OW65185   0.056   3.450   8.815  0.0929 -0.2557 -0.5925
21536SOL    HW165186   0.017   3.382   8.760  1.6371 -0.8615 -0.9964
21536SOL    HW265187   0.118   3.403   8.871  0.5817  0.7039 -0.3000
21537SOL     OW65188   7.892   7.268   5.951  0.2008 -0.6537  0.1538
21537SOL    HW165189   7.903   7.326   6.026  0.8864 -2.6161  1.6839
21537SOL    HW265190   7.977   7.270   5.907  0.8007 -1.7184  1.1950
21538SOL     OW65191   7.973   7.007   6.155  0.0234 -0.0592  0.0746
21538SOL    HW165192   7.942   7.063   6.226 -0.8553 -0.5884  0.1238
21538SOL    HW265193   7.958   6.918   6.186 -1.3689 -0.3049 -1.1707
21539SOL     OW65194   9.901   9.873   6.816  0.1750  0.2081 -0.1367
21539SOL    HW165195   9.915   9.956   6.861 -1.5533 -0.5517  1.9904
21539SOL    HW265196   9.880   9.897   6.726  2.2254  1.8844 -0.2464
21540SOL     OW65197   3.160   6.128   0.328 -0.9660  0.0057 -0.0208
21540SOL    HW165198   3.199   6.052   0.371 -0.1298  0.3541 -0.1347
21540SOL    HW265199   3.085   6.093   0.280 -0.1118 -0.8979 -0.7436
21541SOL     OW65200   7.127   5.206   7.490 -0.2766 -0.4303  0.1579
21541SOL    HW165201   7.055   5.265   7.469  1.3305  0.9111 -1.9397
21541SOL    HW265202   7.133   5.148   7.414  1.8050  0.5011 -0.4468
21542SOL     OW65203   1.473   4.074   3.077  0.3594  0.5017 -0.5247
21542SOL    HW165204   1.542   4.010   3.096 -0.0173  0.4912  0.8644
21542SOL    HW265205   1.423   4.080   3.158 -1.8031 -0.1029 -1.7521
21543SOL     OW65206   6.210   5.722   7.926 -0.0571  0.3308  0.2461
21543SOL    HW165207   6.141   5.788   7.916  0.0343  0.3017 -0.6490
21543SOL    HW265208   6.240   5.733   8.016 -0.1121  1.4528  0.1500
21544SOL     OW65209   0.449   9.052   2.469 -0.3298 -0.4908  0.4698
21544SOL    HW165210   0.503   9.119   2.511  0.8599 -0.2875 -1.3130
21544SOL    HW265211   0.455   8.976   2.527  0.6164  0.0360  1.0778
21545SOL     OW65212   6.816   5.197   0.394 -0.4365  0.2793 -0.4106
21545SOL    HW165213   6.779   5.128   0.339 -1.0969 -0.8640  1.3611
21545SOL    HW265214   6.902   5.163   0.420 -0.2005  0.7308 -0.5952
21546SOL     OW65215   9.737   2.634   4.417 -0.6797  0.0181  0.4958
21546SOL    HW165216   9.646   2.630   4.448 -0.3794 -0.5992  1.3233
21546SOL    HW265217   9.759   2.544   4.396 -1.5483  0.5881 -3.6933
21547SOL     OW65218   2.219   5.446   3.714 -0.3252 -0.0725  0.2533
21547SOL    HW165219   2.178   5.475   3.633 -2.6283  1.4542  1.8281
21547SOL    HW265220   2.308   5.479   3.710  0.1714 -1.4849 -2.3118
21548SOL     OW65221   3.319   7.119   1.702  0.1214 -0.0354 -0.0751
21548SOL    HW165222   3.389   7.057   1.723  0.5663  0.8898  1.2427
21548SOL    HW265223   3.245   7.091   1.756  0.0142  0.0276 -0.1869
21549SOL     OW65224   3.205   2.562   4.376  0.0895 -0.6353  0.2152
21549SOL    HW165225   3.231   2.569   4.467  0.9426 -1.3978  0.0496
21549SOL    HW265226   3.287   2.563   4.327 -0.3819  0.4527 -0.6070
21550SOL     OW65227   1.603   3.898   8.022 -0.0412  0.1813 -0.1649
21550SOL    HW165228   1.664   3.861   8.086  1.5621  0.0009 -1.7265
21550SOL    HW265229   1.517   3.892   8.064  0.5827 -2.4266  0.8862
21551SOL     OW65230   7.780   0.927   9.927 -0.3772  0.1688 -0.4675
21551SOL    HW165231   7.831   0.895  10.001 -1.8863 -0.1824  0.4505
21551SOL    HW265232   7.792   1.022   9.929  0.1773  0.0970 -0.2356
21552SOL     OW65233   7.726   8.319   6.981  0.6160  0.2787  0.7187
21552SOL    HW165234   7.672   8.309   7.059  0.6883  2.4560  1.0930
21552SOL    HW265235   7.758   8.409   6.984  1.9082 -0.0569 -1.0125
21553SOL     OW65236   0.644   6.477   6.158 -0.2545 -0.3467 -0.4628
21553SOL    HW165237   0.665   6.538   6.087 -2.6304 -0.3351 -1.2729
21553SOL    HW265238   0.626   6.394   6.114  1.6496 -1.3364  0.5081
21554SOL     OW65239   3.127   1.356   2.418  0.1164 -0.1414  0.2377
21554SOL    HW165240   3.160   1.431   2.370 -1.3323  0.3933  0.0605
21554SOL    HW265241   3.090   1.393   2.498 -0.9340 -0.6143 -0.0159
21555SOL     OW65242   1.173   7.810   9.475  0.2223  0.2496  0.3304
21555SOL    HW165243   1.233   7.741   9.447  1.1816  1.4572 -0.7908
21555SOL    HW265244   1.177   7.808   9.571  1.4145 -0.2654  0.2955
21556SOL     OW65245   3.711   3.173   0.193 -0.1523  0.4617  0.1160
21556SOL    HW165246   3.777   3.215   0.136 -1.1914  0.0252 -1.4673
21556SOL    HW265247   3.641   3.147   0.134 -1.6166  0.5824  1.7167
21557SOL     OW65248   9.320   8.246   4.619 -0.0817 -0.7718  0.3857
21557SOL    HW165249   9.282   8.282   4.539 -0.5586 -0.6885  0.6486
21557SOL    HW265250   9.361   8.320   4.662 -1.4025 -0.4328  1.1235
21558SOL     OW65251   8.867   3.865   2.971  0.3784  0.3163  0.0068
21558SOL    HW165252   8.804   3.922   3.017 -1.6416 -1.0602 -0.9210
21558SOL    HW265253   8.894   3.802   3.037  1.1968  1.1804  0.5332
21559SOL     OW65254   7.032   0.570   8.532  0.4399 -0.4878  0.2055
21559SOL    HW165255   7.032   0.646   8.591  0.5324 -1.0971  1.0192
21559SOL    HW265256   6.959   0.586   8.472 -1.0187 -0.8101  1.7932
21560SOL     OW65257   5.985   4.302   2.108 -0.1244 -0.5351  0.2713
21560SOL    HW165258   5.995   4.276   2.200  0.8385 -2.2534 -0.2784
21560SOL    HW265259   5.935   4.230   2.069  1.4010 -0.9632 -1.0045
21561SOL     OW65260   7.002   6.540   3.078  0.3174  0.7051 -0.5058
21561SOL    HW165261   6.929   6.537   3.016 -1.5049  1.2982  1.4795
21561SOL    HW265262   7.070   6.484   3.039 -3.0159 -4.1269 -0.1716
21562SOL     OW65263   5.845   7.207   9.038  0.0914 -0.0277 -0.4508
21562SOL    HW165264   5.819   7.126   9.083  0.1705  0.8673  1.3226
21562SOL    HW265265   5.826   7.191   8.946  1.7012 -2.6835 -0.3979
21563SOL     OW65266   2.130   2.203   6.708 -0.4005 -0.2159 -0.5638
21563SOL    HW165267   2.075   2.167   6.639 -1.4534  1.1217 -0.4691
21563SOL    HW265268   2.071   2.259   6.759  0.2869 -1.2571  1.5294
21564SOL     OW65269   4.397   0.390   6.127  0.1309  0.4364 -0.2823
21564SOL    HW165270   4.443   0.473   6.140  2.6032 -0.5843 -1.8372
21564SOL    HW265271   4.351   0.402   6.043 -0.2918  0.5307 -0.0422
21565SOL     OW65272   5.898   6.505   5.042  0.0793 -0.1240  0.5854
21565SOL    HW165273   5.858   6.452   4.973  0.2364  0.3166  0.1481
21565SOL    HW265274   5.902   6.447   5.118 -1.3675 -0.1948  0.6440
21566SOL     OW65275   8.932   0.553   7.117 -0.0418 -0.4720  0.4534
21566SOL    HW165276   8.917   0.583   7.206  0.5460 -0.4280  0.5431
21566SOL    HW265277   8.903   0.626   7.062  0.2030 -0.2421  0.6296
21567SOL     OW65278   7.851   3.625   8.595 -0.4470 -0.1099 -0.7197
21567SOL    HW165279   7.776   3.581   8.635  1.3050 -1.0254  1.8674
21567SOL    HW265280   7.854   3.710   8.639  1.1081 -0.8575  0.7397
21568SOL     OW65281   3.880   6.440   7.133  0.3294 -0.1981 -0.1900
21568SOL    HW165282   3.801   6.411   7.178  0.9884 -1.5149  0.1627
21568SOL    HW265283   3.848   6.488   7.057 -0.8540  3.3803  2.3104
21569SOL     OW65284   0.815   9.062   2.497  0.5196 -0.1513 -0.2412
21569SOL    HW165285   0.783   8.973   2.509  0.9381 -0.4876 -1.4203
21569SOL    HW265286   0.747   9.118   2.534 -0.3245 -0.9235 -0.5785
21570SOL     OW65287   5.229   1.506   2.859 -0.1162 -0.5126  0.0262
21570SOL    HW165288   5.194   1.595   2.848 -2.1290 -1.0195  1.7630
21570SOL    HW265289   5.322   1.514   2.836 -0.6591  1.6028 -1.7140
21571SOL     OW65290   5.588   5.578   8.860  0.2448 -0.0795 -0.0337
21571SOL    HW165291   5.585   5.527   8.780 -1.7867  3.1526 -2.2548
21571SOL    HW265292   5.681   5.577   8.886  1.0188 -0.9973 -2.5773
21572SOL     OW65293   5.567   3.137   3.750  0.1245 -0.2369 -0.4560
21572SOL    HW165294   5.569   3.041   3.754 -0.2579 -0.2314  0.0210
21572SOL    HW265295   5.594   3.165   3.838  0.5707  0.0999 -0.6984
21573SOL     OW65296   4.371   1.671   6.791 -0.0946  0.1102 -0.4007
21573SOL    HW165297   4.364   1.766   6.806  1.2285  0.1829 -0.1069
21573SOL    HW265298   4.388   1.635   6.878 -1.3159 -0.4949 -0.3977
21574SOL     OW65299   0.101   6.384   5.314 -0.6636  0.4911  0.0424
21574SOL    HW165300   0.125   6.361   5.404 -0.2075 -0.8187 -0.3938
21574SOL    HW265301   0.043   6.314   5.286  0.1940  0.2151 -1.1024
21575SOL     OW65302   5.305   9.235   6.594 -0.1128 -0.0354 -0.5266
21575SOL    HW165303   5.266   9.155   6.631 -0.0685 -0.2113 -0.8493
21575SOL    HW265304   5.310   9.217   6.500  0.3093  0.1758 -0.5451
21576SOL     OW65305   4.120   6.677   2.722  0.6326 -0.0751 -0.1583
21576SOL    HW165306   4.167   6.630   2.653  2.5503 -1.9107  2.2189
21576SOL    HW265307   4.140   6.629   2.802 -2.0784  1.4971  1.6411
21577SOL     OW65308   4.966   7.872   8.195 -0.2543  0.2867  0.3912
21577SOL    HW165309   4.957   7.890   8.288 -1.6029 -0.5940  0.4737
21577SOL    HW265310   5.060   7.875   8.178 -0.0739  1.8377  1.4710
21578SOL     OW65311   9.102   7.797   4.104  0.1055  0.7203  0.4576
21578SOL    HW165312   9.055   7.880   4.107  0.6789  1.0159  2.1036
21578SOL    HW265313   9.037   7.733   4.074 -0.5130  1.6338 -0.1778
21579SOL     OW65314   4.801   0.153   2.740 -0.6769  0.3285  0.4332
21579SOL    HW165315   4.891   0.132   2.717 -0.4326 -1.2321  2.5204
21579SOL    HW265316   4.748   0.096   2.684 -0.5135  2.1330 -1.6996
21580SOL     OW65317   1.315   8.166   1.072  0.4945 -0.2833  0.4571
21580SOL    HW165318   1.344   8.079   1.046 -0.4399  0.0903 -2.0509
21580SOL    HW265319   1.378   8.225   1.032 -0.4849  0.2891 -0.2771
21581SOL     OW65320   4.383   0.719   0.975 -0.0224 -0.3961  0.1125
21581SOL    HW165321   4.430   0.773   0.912  0.7341 -1.9245 -0.7009
21581SOL    HW265322   4.337   0.654   0.921 -2.0254  0.2297  0.9630
21582SOL     OW65323   2.274   4.748   8.519 -0.1233  0.7203 -0.0159
21582SOL    HW165324   2.326   4.748   8.600  0.7267  2.0016 -0.5247
21582SOL    HW265325   2.187   4.717   8.546  0.6276 -0.5928  1.0319
21583SOL     OW65326   0.962   5.054   2.593  0.2356  0.1434  0.3867
21583SOL    HW165327   1.027   5.014   2.650  0.8405  0.6289  0.0470
21583SOL    HW265328   0.992   5.034   2.504 -0.6701 -0.5673  0.2185
21584SOL     OW65329   8.242   3.796   7.103  0.0518  0.4454 -0.0742
21584SOL    HW165330   8.206   3.766   7.020 -1.8919  2.9195 -0.2500
21584SOL    HW265331   8.294   3.873   7.080 -0.3076  1.0233  0.9650
21585SOL     OW65332   7.053   6.389   6.747 -0.6870  0.2412  0.0890
21585SOL    HW165333   7.031   6.477   6.779 -1.0777  0.4822 -0.8056
21585SOL    HW265334   6.973   6.339   6.757 -1.0401  0.5286 -1.1920
21586SOL     OW65335   7.248   1.968   0.617 -0.0132  0.4916  0.2243
21586SOL    HW165336   7.334   1.998   0.649  0.6050  0.8124 -1.6264
21586SOL    HW265337   7.190   2.043   0.630 -0.2155  0.0535  2.1038
21587SOL     OW65338   0.460   2.147   2.583 -0.1729 -0.4379 -0.5555
21587SOL    HW165339   0.416   2.228   2.556 -1.3471 -1.0376 -0.4734
21587SOL    HW265340   0.420   2.123   2.666  1.0432 -0.4563  0.0571
21588SOL     OW65341   2.914   0.355   1.210 -0.6784  0.2787  0.2917
21588SOL    HW165342   2.993   0.407   1.225 -0.8397  0.3042  1.1030
21588SOL    HW265343   2.874   0.348   1.296 -1.4001 -0.0003 -0.0638
21589SOL     OW65344   4.979   2.228   0.709 -0.1567 -1.0053 -0.5477
21589SOL    HW165345   5.036   2.184   0.646  0.3356  0.6423 -1.3057
21589SOL    HW265346   4.898   2.246   0.660 -1.1259 -2.7181  0.3216
21590SOL     OW65347   6.470   0.777   5.164  0.1687 -0.2116 -0.3581
21590SOL    HW165348   6.509   0.836   5.229  0.6412 -1.1830  0.2756
21590SOL    HW265349   6.483   0.689   5.202 -2.3745 -0.6079 -0.2753
21591SOL     OW65350   2.561   9.064   9.673  0.2095  0.0064  0.2122
21591SOL    HW165351   2.619   9.039   9.744  1.0380  0.5440 -0.2608
21591SOL    HW265352   2.484   9.102   9.716  0.1213 -0.8586  0.8432
21592SOL     OW65353   8.934   2.943   4.621 -0.1675  0.3940  0.1992
21592SOL    HW165354   8.940   2.866   4.677  0.7207 -0.1509 -0.6012
21592SOL    HW265355   8.974   2.915   4.538  0.0077  1.6529 -0.1639
21593SOL     OW65356   1.566   1.493   2.856 -0.2975 -0.4340  0.3533
21593SOL    HW165357   1.626   1.547   2.908 -0.3666  0.5759 -0.5806
21593SOL    HW265358   1.555   1.413   2.908  1.3091 -0.3541  0.8617
21594SOL     OW65359   6.431   8.981   8.856 -0.5071  0.4205  0.3189
21594SOL    HW165360   6.359   9.027   8.813  0.4350  0.5567 -1.2305
21594SOL    HW265361   6.414   8.990   8.949 -1.4062  2.2296  0.0283
21595SOL     OW65362   7.210   3.181   2.004 -0.7655 -0.2463  0.1313
21595SOL    HW165363   7.247   3.172   2.092 -2.4053 -1.5000  0.7609
21595SOL    HW265364   7.127   3.227   2.018 -1.4791 -1.2560 -0.6048
21596SOL     OW65365   5.700   8.932   9.284  0.3136 -0.4574  0.1264
21596SOL    HW165366   5.693   8.882   9.365 -0.7799 -2.4462 -1.1032
21596SOL    HW265367   5.782   8.981   9.292  0.2788 -0.6831  2.3437
21597SOL     OW65368   9.388   2.709   2.138 -0.1372 -0.1724 -0.0378
21597SOL    HW165369   9.362   2.708   2.230 -0.6932  0.3546 -0.1865
21597SOL    HW265370   9.330   2.645   2.097 -0.9979  0.7709 -0.3115
21598SOL     OW65371   9.928   7.610   7.557  0.4653 -0.3210  0.3831
21598SOL    HW165372   9.860   7.543   7.559  1.4066 -1.3465 -0.3816
21598SOL    HW265373   9.911   7.664   7.634 -2.1584  0.4475 -0.6254
21599SOL     OW65374   6.091   3.270   4.996 -0.2149  0.4861  0.1694
21599SOL    HW165375   6.063   3.239   5.082 -0.2165  1.9086  0.7075
21599SOL    HW265376   6.016   3.319   4.962  0.3995  1.4319  0.1389
21600SOL     OW65377   8.524   4.216   1.029 -0.3050 -0.7678 -0.3878
21600SOL    HW165378   8.486   4.275   1.095  1.9858  0.5672 -0.1383
21600SOL    HW265379   8.515   4.129   1.066  0.1316 -0.1297  1.3322
21601SOL     OW65380   3.917   5.364   1.844 -0.3665  0.0633 -0.0427
21601SOL    HW165381   3.882   5.309   1.914 -0.5004  0.4574  0.2108
21601SOL    HW265382   3.897   5.454   1.873  0.0608  0.2538 -0.3240
21602SOL     OW65383   7.932   3.733   4.992  0.0045 -0.0635 -0.2186
21602SOL    HW165384   8.008   3.677   4.973  1.1968  0.6239  2.1338
21602SOL    HW265385   7.961   3.822   4.972 -0.7559  0.0713 -0.7950
21603SOL     OW65386   3.861   9.099   3.255 -0.3310 -0.2830  0.2755
21603SOL    HW165387   3.868   9.034   3.186 -0.9609  1.2531 -1.2985
21603SOL    HW265388   3.775   9.084   3.295 -0.4070 -0.5006  0.0281
21604SOL     OW65389   8.851   3.061   7.317  0.4624  0.0906 -0.4672
21604SOL    HW165390   8.866   3.110   7.398 -0.3200  1.9803 -1.3816
21604SOL    HW265391   8.912   2.988   7.321 -0.3907 -0.5863  2.3640
21605SOL     OW65392   3.812   0.877   5.847 -0.4776  0.2394 -0.2401
21605SOL    HW165393   3.746   0.829   5.898  0.4660  0.5151  1.2911
21605SOL    HW265394   3.834   0.952   5.902 -0.7843  1.6037 -1.9084
21606SOL     OW65395   1.895   8.702   0.538  0.1965  0.2013 -0.2020
21606SOL    HW165396   1.955   8.744   0.600 -0.5875  1.7866 -0.4722
21606SOL    HW265397   1.810   8.741   0.556 -1.7235 -4.3431  2.5041
21607SOL     OW65398   1.497   2.379   6.780  0.4416  0.1124  0.2896
21607SOL    HW165399   1.513   2.409   6.690  1.3494 -0.2555  0.3257
21607SOL    HW265400   1.409   2.340   6.776  0.2684  0.5417 -0.3225
21608SOL     OW65401   2.073   6.059   6.168  0.6490  0.5679  0.3896
21608SOL    HW165402   2.078   6.131   6.105 -0.2251  0.3280  0.0338
21608SOL    HW265403   2.080   6.102   6.253 -0.6939  1.1932  0.2174
21609SOL     OW65404   0.116   6.208   7.890 -0.5988 -0.0538 -0.1985
21609SOL    HW165405   0.155   6.132   7.847 -0.6690 -0.3460  0.2394
21609SOL    HW265406   0.185   6.239   7.949 -1.0495 -0.6454  0.6700
21610SOL     OW65407   9.030   3.541   0.671 -0.3507  0.2455  0.3598
21610SOL    HW165408   9.018   3.633   0.648  0.8591 -0.1277 -2.0020
21610SOL    HW265409   9.076   3.503   0.597 -2.8248 -2.8259  0.1763
21611SOL     OW65410   3.579   5.763   8.919  0.3599 -0.3143 -0.3071
21611SOL    HW165411   3.529   5.795   8.994 -0.2407 -0.7313 -0.5310
21611SOL    HW265412   3.671   5.777   8.944  0.1528 -0.0702  0.3285
21612SOL     OW65413   4.818   8.918   4.269 -0.2039  0.1401 -0.0590
21612SOL    HW165414   4.903   8.951   4.300  1.3238 -1.8358 -1.8042
21612SOL    HW265415   4.826   8.823   4.276 -1.5923 -0.1526 -1.9105
21613SOL     OW65416   9.923   3.757   2.830 -0.4480 -0.1025  0.2451
21613SOL    HW165417   9.851   3.768   2.892  0.3379 -1.0089  1.3793
21613SOL    HW265418   9.960   3.671   2.851  0.2132 -0.1855 -1.1122
21614SOL     OW65419   5.068   9.797   0.143 -0.2840 -0.2772 -0.3200
21614SOL    HW165420   5.163   9.794   0.155 -0.2461  0.6120 -0.2936
21614SOL    HW265421   5.037   9.847   0.218 -0.7746 -0.5339 -0.3508
21615SOL     OW65422   8.154   8.043   1.591  0.0569  0.1681 -0.3629
21615SOL    HW165423   8.215   8.103   1.634 -0.0018 -0.2191  0.2821
21615SOL    HW265424   8.201   7.961   1.584 -0.6860 -0.4156  1.0194
21616SOL     OW65425   6.590   3.954   0.687  0.1747  0.4602 -0.2166
21616SOL    HW165426   6.528   3.979   0.619 -0.9300  0.9607  0.9448
21616SOL    HW265427   6.629   3.872   0.655  0.0403  0.9240 -1.6493
21617SOL     OW65428   6.336   5.509   0.390 -0.2441 -0.1403  0.4693
21617SOL    HW165429   6.394   5.563   0.336 -2.5137  0.0111 -2.0308
21617SOL    HW265430   6.385   5.428   0.404  0.8613  0.2415 -0.9333
21618SOL     OW65431   6.421   1.565   2.307 -0.1646  0.0070 -0.0793
21618SOL    HW165432   6.466   1.487   2.275  1.9354  1.4765 -0.8926
21618SOL    HW265433   6.351   1.581   2.244  0.6883 -0.0561 -1.0471
21619SOL     OW65434   2.690   5.497   9.377 -0.0313 -0.1086  0.0380
21619SOL    HW165435   2.730   5.493   9.291 -0.7230  4.4302 -0.7130
21619SOL    HW265436   2.596   5.487   9.360 -0.0868 -0.2801  0.4266
21620SOL     OW65437   1.504   9.770   5.343 -0.5203  0.3170 -0.0607
21620SOL    HW165438   1.465   9.856   5.360 -1.1559  0.4018 -1.7826
21620SOL    HW265439   1.430   9.710   5.336 -0.1788 -0.0777 -0.3518
21621SOL     OW65440   4.271   4.608   5.545  0.2084 -0.2799  0.0492
21621SOL    HW165441   4.209   4.550   5.589 -0.3701 -0.7775 -1.3507
21621SOL    HW265442   4.351   4.556   5.537 -1.0814 -2.0477 -3.5499
21622SOL     OW65443   0.780   6.215   2.576  0.2176 -1.2273  0.3698
21622SOL    HW165444   0.689   6.211   2.606 -0.0215 -1.5039 -0.3678
21622SOL    HW265445   0.832   6.187   2.652 -0.2405 -0.1999  1.0911
21623SOL     OW65446   2.946   2.713   0.639  0.2337 -0.0813 -0.0637
21623SOL    HW165447   2.869   2.753   0.599  0.6199  0.3259 -0.4104
21623SOL    HW265448   3.018   2.734   0.579  0.6028 -0.5201  0.2150
21624SOL     OW65449   5.552   2.653   5.429  0.3425 -0.7505 -0.2538
21624SOL    HW165450   5.579   2.585   5.367  0.5361  1.0361 -2.2418
21624SOL    HW265451   5.513   2.721   5.374 -0.7374  0.3283  1.7568
21625SOL     OW65452   5.141   9.551   6.125 -0.2028  0.1305  0.3664
21625SOL    HW165453   5.055   9.510   6.135 -0.7044  0.3254 -2.4801
21625SOL    HW265454   5.122   9.639   6.092  1.0509 -0.2149 -1.4217
21626SOL     OW65455   0.472   2.662   1.902  0.2983  0.4222 -0.1931
21626SOL    HW165456   0.514   2.731   1.851 -1.0462  0.4923 -1.2503
21626SOL    HW265457   0.408   2.707   1.956 -0.3206  0.0401 -0.6020
21627SOL     OW65458   1.923   1.493   9.021  0.7174 -0.2413  0.0420
21627SOL    HW165459   1.981   1.556   9.064 -0.5649  2.8798 -2.4069
21627SOL    HW265460   1.890   1.439   9.092  2.7599  1.0977  2.1812
21628SOL     OW65461   8.541   8.204   6.069 -0.3279 -0.5768  0.0341
21628SOL    HW165462   8.449   8.197   6.094 -0.5994  0.0983 -0.7386
21628SOL    HW265463   8.557   8.125   6.017 -1.2395  0.5366 -2.0850
21629SOL     OW65464   9.057   9.372   2.462 -0.3375  0.3005  0.8640
21629SOL    HW165465   9.002   9.303   2.425  0.0750  2.2140 -4.0455
21629SOL    HW265466   8.999   9.447   2.472  0.3932  0.9669  0.2536
21630SOL     OW65467   7.973   3.978   2.413  0.1000 -0.2528 -0.3907
21630SOL    HW165468   7.996   3.963   2.321  0.9955  0.0712 -0.2290
21630SOL    HW265469   8.052   4.016   2.451 -0.4768  0.1975  0.3699
21631SOL     OW65470   3.913   4.367   5.229  0.2525  0.2268  0.1330
21631SOL    HW165471   3.943   4.406   5.147 -0.0485 -1.5464 -0.8671
21631SOL    HW265472   3.856   4.295   5.202 -0.0284 -0.2712  1.9164
21632SOL     OW65473   8.131   2.155   6.228  0.0832  0.2935  0.4335
21632SOL    HW165474   8.113   2.143   6.135 -0.4071  0.1842  0.5351
21632SOL    HW265475   8.149   2.249   6.237 -2.0722  0.7582  0.5531
21633SOL     OW65476   8.329   4.427   7.351  0.4841  0.4981  0.0926
21633SOL    HW165477   8.282   4.386   7.278  0.8595 -2.0252  1.1477
21633SOL    HW265478   8.376   4.501   7.312 -0.1084 -0.1715 -2.0120
21634SOL     OW65479   2.604   8.192   9.165  0.1686  0.7257  0.3448
21634SOL    HW165480   2.540   8.136   9.122  1.4339 -0.6040  0.1263
21634SOL    HW265481   2.617   8.152   9.251  1.4532  0.3754 -0.0020
21635SOL     OW65482   4.901   9.988   9.080 -0.0385  0.2374 -0.9811
21635SOL    HW165483   4.989  10.009   9.112  0.4479  0.2475 -2.2600
21635SOL    HW265484   4.885   9.899   9.113  0.5243  0.1721 -0.8607
21636SOL     OW65485   5.642   3.747   7.595 -0.0429 -0.4297  0.7238
21636SOL    HW165486   5.556   3.724   7.629  0.2562 -0.2765  1.6227
21636SOL    HW265487   5.676   3.810   7.658 -0.3539  1.6079 -1.0201
21637SOL     OW65488   8.782   2.077   4.965 -0.1346 -0.1677  0.0953
21637SOL    HW165489   8.874   2.089   4.991 -0.2577  1.3031 -0.0478
21637SOL    HW265490   8.759   1.991   4.999  0.7084  0.2793  1.9788
21638SOL     OW65491   0.856   5.883   1.195  0.0785  0.0814 -0.1582
21638SOL    HW165492   0.768   5.897   1.161 -0.0326  0.5999  0.3269
21638SOL    HW265493   0.852   5.797   1.237 -0.4238  0.4562  0.5777
21639SOL     OW65494   3.299   8.067   3.525  0.1480  0.2288 -0.6533
21639SOL    HW165495   3.311   8.099   3.435 -0.0580  3.1577  0.2868
21639SOL    HW265496   3.204   8.058   3.534  0.0030  2.1211 -0.0641
21640SOL     OW65497   1.063   3.915   9.978 -0.1214  0.4177 -0.1244
21640SOL    HW165498   0.995   3.854  10.009 -0.4434  0.1309 -1.3627
21640SOL    HW265499   1.110   3.867   9.910 -0.2919  1.4801 -1.0263
21641SOL     OW65500   4.610   3.640   6.002 -0.1916  0.4155  0.1576
21641SOL    HW165501   4.599   3.719   5.948 -1.3136  0.2072  0.0639
21641SOL    HW265502   4.522   3.621   6.035 -0.2422 -1.5937 -0.9567
21642SOL     OW65503   6.850   2.375   6.514  0.2242 -0.0989  0.2853
21642SOL    HW165504   6.920   2.329   6.560 -1.7888 -2.5459  1.1293
21642SOL    HW265505   6.819   2.440   6.577  0.3358 -0.4524  0.7105
21643SOL     OW65506   7.657   1.885   2.374  0.4216  0.4868  0.4099
21643SOL    HW165507   7.601   1.953   2.336  1.8505  1.4715 -0.0218
21643SOL    HW265508   7.605   1.847   2.445 -2.3003 -1.2413 -2.2430
21644SOL     OW65509   4.170   1.151   4.124 -0.0083 -0.0916  0.6284
21644SOL    HW165510   4.223   1.231   4.128 -0.1332 -0.0210  0.9866
21644SOL    HW265511   4.182   1.118   4.036 -1.8716  1.6433 -0.3714
21645SOL     OW65512   4.910   5.868   1.555 -0.5009  0.2596  0.6322
21645SOL    HW165513   4.918   5.854   1.461 -2.0668 -0.2285  0.5460
21645SOL    HW265514   5.000   5.863   1.587  0.1630  1.3042 -0.9293
21646SOL     OW65515   3.076   5.690   4.283  0.1826 -0.3280  0.7067
21646SOL    HW165516   3.119   5.775   4.270 -2.2206  0.9904  0.7594
21646SOL    HW265517   3.138   5.627   4.246  2.1623  1.3925  0.8610
21647SOL     OW65518   3.212   7.175   2.507  0.9477  0.0833  0.5241
21647SOL    HW165519   3.186   7.182   2.415  1.1194 -2.2058  0.2601
21647SOL    HW265520   3.235   7.265   2.532 -0.0934  0.9272 -1.3456
21648SOL     OW65521   3.547   8.329   5.361 -0.0397 -0.4676  0.1391
21648SOL    HW165522   3.493   8.376   5.297 -0.6114 -0.3515  0.6928
21648SOL    HW265523   3.521   8.238   5.352  0.9360 -0.6671 -0.8056
21649SOL     OW65524   6.865   0.966   4.743  0.5161  0.0520  0.2473
21649SOL    HW165525   6.900   0.935   4.660 -1.7170  0.7476 -1.0498
21649SOL    HW265526   6.891   0.900   4.807  1.3793 -1.0480 -1.1804
21650SOL     OW65527   3.782   0.533   8.648 -0.3915 -0.3434 -0.1070
21650SOL    HW165528   3.867   0.502   8.615 -0.0713 -0.6053  0.9080
21650SOL    HW265529   3.756   0.601   8.587  1.6312  1.2983  0.7583
21651SOL     OW65530   0.015   5.899   9.801 -0.6273 -0.4515 -0.0779
21651SOL    HW165531   0.021   5.907   9.896  1.5267 -0.3526 -0.1652
21651SOL    HW265532   0.092   5.846   9.777 -1.1999 -0.5696 -1.7488
21652SOL     OW65533   5.130   2.213   5.204  0.1197  0.0619  0.3459
21652SOL    HW165534   5.058   2.228   5.265  0.1211 -0.2054  0.4153
21652SOL    HW265535   5.127   2.119   5.186  1.1945 -0.1696  1.2709
21653SOL     OW65536   6.413   2.471   0.885  0.2889  0.3195  0.6563
21653SOL    HW165537   6.503   2.441   0.878 -0.2285 -1.1994  0.2667
21653SOL    HW265538   6.411   2.520   0.967  1.6728  1.1835  0.2064
21654SOL     OW65539   2.896   1.861   5.581  0.1629  0.1963 -0.3783
21654SOL    HW165540   2.809   1.888   5.552 -0.4551 -0.7644  0.5348
21654SOL    HW265541   2.925   1.930   5.640  0.6592  1.2449 -1.7818
21655SOL     OW65542   8.456   7.557   2.380 -0.1450 -0.4038 -0.2779
21655SOL    HW165543   8.371   7.533   2.416  0.0729 -0.1032  0.4611
21655SOL    HW265544   8.514   7.486   2.407  0.6768  1.1938  2.5958
21656SOL     OW65545   4.333   9.861   7.607 -0.0951  0.3000 -0.0697
21656SOL    HW165546   4.300   9.785   7.654  1.1003  0.6582  1.4205
21656SOL    HW265547   4.261   9.887   7.550 -0.1216 -2.7108 -1.6363
21657SOL     OW65548   7.252   8.179   3.231 -0.2885 -0.5877 -0.7059
21657SOL    HW165549   7.291   8.190   3.317 -1.7932 -0.6351  0.0186
21657SOL    HW265550   7.325   8.184   3.170  0.7594 -0.2352  0.5496
21658SOL     OW65551   8.635   1.596   9.829 -0.2665  0.2890 -0.0687
21658SOL    HW165552   8.710   1.538   9.844  0.0173  0.5351 -0.5263
21658SOL    HW265553   8.628   1.604   9.734 -1.8701 -1.0232 -0.1100
21659SOL     OW65554   7.615   2.321   7.721 -0.2771 -0.4134 -0.4219
21659SOL    HW165555   7.665   2.400   7.699 -0.0140 -0.8955 -1.6756
21659SOL    HW265556   7.657   2.288   7.800  0.0543  0.3267 -0.2759
21660SOL     OW65557   0.463   3.035   8.682  0.3331  0.2942 -0.0281
21660SOL    HW165558   0.506   3.051   8.598 -1.6281  0.6681 -1.0201
21660SOL    HW265559   0.506   2.957   8.717  0.1584 -0.8183 -2.1373
21661SOL     OW65560   9.525   9.059   5.991 -0.8336  0.5046  0.6051
21661SOL    HW165561   9.474   9.076   5.912 -2.0672  0.9800  1.4784
21661SOL    HW265562   9.490   9.120   6.056  1.2261  1.2183  1.0946
21662SOL     OW65563   1.358   5.227   4.816 -0.2500 -0.1985  0.0877
21662SOL    HW165564   1.339   5.158   4.880 -2.0667  1.1461  1.0974
21662SOL    HW265565   1.275   5.242   4.772 -0.5238  2.7337  1.3723
21663SOL     OW65566   1.553   3.139   8.756  0.5174  0.2293  0.6229
21663SOL    HW165567   1.624   3.154   8.693 -0.1356 -1.7223 -0.6864
21663SOL    HW265568   1.571   3.052   8.793 -1.0075 -0.1962  0.4602
21664SOL     OW65569   0.016   9.539   4.036 -0.0305 -0.6098  0.6900
21664SOL    HW165570  -0.034   9.578   4.108 -1.0261  0.0734 -0.3305
21664SOL    HW265571   0.079   9.481   4.079  0.6431  1.1345  2.2172
21665SOL     OW65572   4.455   5.807   9.887  0.5096 -0.4910  0.2715
21665SOL    HW165573   4.485   5.848   9.968  1.0393  0.6282 -0.4801
21665SOL    HW265574   4.423   5.721   9.915 -0.2318  0.2482  1.8138
21666SOL     OW65575   4.822   7.984   1.981 -0.2995 -0.0885 -0.0948
21666SOL    HW165576   4.807   8.046   1.909  1.1317  0.3740 -0.0226
21666SOL    HW265577   4.868   7.910   1.940  1.2350  0.5270  0.4567
21667SOL     OW65578   4.543   8.798   5.596  0.7048  0.4728 -0.0291
21667SOL    HW165579   4.637   8.789   5.583  0.6876 -1.2350  0.8199
21667SOL    HW265580   4.534   8.880   5.645  1.4367  2.3170 -2.7401
21668SOL     OW65581   0.297   7.274   9.067 -1.0506  0.0005 -0.2607
21668SOL    HW165582   0.335   7.357   9.039  0.6471 -1.4190 -2.6158
21668SOL    HW265583   0.219   7.264   9.012 -1.1299 -0.0549 -0.1376
21669SOL     OW65584   8.179   3.732   1.310  0.6013  0.4174 -0.3303
21669SOL    HW165585   8.190   3.761   1.401 -0.0653  1.5378 -0.5881
21669SOL    HW265586   8.130   3.651   1.317  2.1276 -0.4808  0.3958
21670SOL     OW65587   0.446   0.375   2.753 -0.0351  0.2673  0.4414
21670SOL    HW165588   0.453   0.387   2.848  0.0120 -0.8425  0.5860
21670SOL    HW265589   0.359   0.339   2.740  0.9624 -2.3439  0.3882
21671SOL     OW65590   6.173   6.516   2.671  0.1017  0.1510  0.1394
21671SOL    HW165591   6.220   6.599   2.680 -0.8948  0.5555  2.2908
21671SOL    HW265592   6.231   6.451   2.712  1.3568 -0.5064 -2.4552
21672SOL     OW65593   6.786   7.858   5.952 -0.0531  0.0977 -0.6371
21672SOL    HW165594   6.763   7.951   5.942 -0.5203 -0.1090 -1.5937
21672SOL    HW265595   6.753   7.835   6.039  1.6641  1.2696  0.3904
21673SOL     OW65596   4.887   0.262   5.707  0.2401  0.3566 -0.4199
21673SOL    HW165597   4.818   0.325   5.727  1.4568  1.5687  0.1371
21673SOL    HW265598   4.899   0.214   5.789 -0.8553 -0.8033 -0.9154
21674SOL     OW65599   4.685   0.475   1.220 -0.2772 -0.1287 -0.3669
21674SOL    HW165600   4.649   0.462   1.308  0.0182 -0.5046 -0.2996
21674SOL    HW265601   4.754   0.410   1.213 -0.0768  0.1264 -0.7579
21675SOL     OW65602   8.570   8.924   5.835 -0.6617 -0.0785  0.0516
21675SOL    HW165603   8.502   8.943   5.769 -0.4666 -0.2798 -0.2089
21675SOL    HW265604   8.580   9.006   5.883  1.0100  0.8980 -1.8121
21676SOL     OW65605   5.695   7.135   9.670 -0.0269 -0.1253 -0.4748
21676SOL    HW165606   5.750   7.171   9.739  0.7138 -0.9680 -0.6078
21676SOL    HW265607   5.627   7.086   9.716  1.0861 -1.5949 -0.3159
21677SOL     OW65608   4.881   3.549   1.023 -0.3619  0.1812  0.2185
21677SOL    HW165609   4.798   3.541   0.976 -2.0627 -1.3917  3.2259
21677SOL    HW265610   4.871   3.628   1.076 -0.1230 -0.2554  0.9247
21678SOL     OW65611   4.475   9.882   8.736  0.2847  0.9172 -0.0381
21678SOL    HW165612   4.394   9.844   8.769 -0.9075  2.5092 -0.9922
21678SOL    HW265613   4.502   9.944   8.804 -0.7518  2.2761 -0.8065
21679SOL     OW65614   4.916   9.910   4.862 -0.4297 -0.2512 -0.1083
21679SOL    HW165615   4.869   9.847   4.917 -1.7879 -0.3117 -1.2562
21679SOL    HW265616   4.937   9.860   4.782 -0.5224  0.4327 -0.5665
21680SOL     OW65617   9.965   5.538   0.123 -0.0637  0.1204  0.2498
21680SOL    HW165618   9.915   5.603   0.074  1.0496  1.3723  0.7247
21680SOL    HW265619   9.959   5.458   0.070 -2.8791  0.0664  0.4974
21681SOL     OW65620   1.702   6.862   0.988  0.0843  0.7777 -0.0797
21681SOL    HW165621   1.672   6.865   1.079  0.4701 -0.3882  0.1109
21681SOL    HW265622   1.737   6.949   0.970 -0.6323  1.2339  0.6572
21682SOL     OW65623   0.870   2.919   5.452  0.3842  0.5223 -0.2571
21682SOL    HW165624   0.853   2.848   5.514 -0.4181 -0.2222 -1.3093
21682SOL    HW265625   0.928   2.881   5.386 -1.5601  0.2405 -1.8688
21683SOL     OW65626   3.067   3.256   2.085  0.5138  0.0631 -0.0159
21683SOL    HW165627   3.111   3.281   2.166  1.0112  0.4557 -0.3999
21683SOL    HW265628   2.982   3.301   2.089  0.7951  0.6018 -0.0038
21684SOL     OW65629   9.050   2.381   2.978  0.0148 -0.4208 -0.4846
21684SOL    HW165630   8.972   2.363   2.926 -0.8281  1.3828  0.0635
21684SOL    HW265631   9.027   2.458   3.030  1.4508 -1.0506  1.2144
21685SOL     OW65632   1.424   5.405   9.065  0.5241  0.0937 -0.2732
21685SOL    HW165633   1.370   5.388   8.988 -0.0634  0.8385 -0.0482
21685SOL    HW265634   1.364   5.395   9.139  0.5054  1.5217 -0.0511
21686SOL     OW65635   8.306   1.017   8.307  0.0547 -0.0710 -0.0678
21686SOL    HW165636   8.279   1.078   8.238 -2.0188  0.5253  1.1739
21686SOL    HW265637   8.351   0.946   8.261 -1.6437  0.0798 -2.0831
21687SOL     OW65638   9.683   5.525   0.184 -0.0986 -0.1065 -0.2156
21687SOL    HW165639   9.778   5.531   0.176 -0.1821  0.8067 -0.6211
21687SOL    HW265640   9.662   5.567   0.267 -0.2192  0.4657 -0.5317
21688SOL     OW65641   4.181   6.699   2.329  0.4175 -0.0354  0.1455
21688SOL    HW165642   4.191   6.793   2.337 -3.8661  0.7196 -0.7787
21688SOL    HW265643   4.088   6.686   2.308  1.3275 -4.3021 -2.6135
21689SOL     OW65644   2.404   3.014   8.167  0.3449 -0.0639  0.4935
21689SOL    HW165645   2.447   3.030   8.252  2.8308  1.8740 -0.9782
21689SOL    HW265646   2.416   2.921   8.151  0.6296 -0.2869  1.8847
21690SOL     OW65647   9.332   9.297   6.055  0.1507  0.7503 -0.3223
21690SOL    HW165648   9.252   9.349   6.057 -0.0652  0.8113 -3.9364
21690SOL    HW265649   9.334   9.260   5.967  3.6609 -0.0056 -0.0638
21691SOL     OW65650   1.391   4.701   4.190 -0.0918 -0.0762  0.0723
21691SOL    HW165651   1.395   4.771   4.126 -0.0284 -2.0432 -2.2325
21691SOL    HW265652   1.478   4.661   4.188 -0.6701 -1.3950 -0.1614
21692SOL     OW65653   9.220   4.776   9.227  0.3769 -0.2130 -0.4254
21692SOL    HW165654   9.266   4.783   9.310 -0.6865  0.3055  0.1355
21692SOL    HW265655   9.128   4.792   9.248 -0.4488 -3.2409 -1.1673
21693SOL     OW65656   3.328   3.610   7.312  0.5924  0.0970 -0.0430
21693SOL    HW165657   3.315   3.515   7.303  1.2039 -0.0406  0.4469
21693SOL    HW265658   3.335   3.624   7.406  0.4490  0.6394 -0.1122
21694SOL     OW65659   2.928   5.775   6.022 -0.7491 -0.8328 -0.2604
21694SOL    HW165660   3.020   5.789   6.000 -1.1102  2.8944  0.0180
21694SOL    HW265661   2.888   5.742   5.941  0.4424 -0.5009 -1.0011
21695SOL     OW65662   7.129   3.244   2.566 -0.1503 -0.1933  0.4435
21695SOL    HW165663   7.200   3.239   2.630 -0.9844 -1.5511  1.3264
21695SOL    HW265664   7.128   3.157   2.525 -0.3148  0.3187 -0.6678
21696SOL     OW65665   2.713   5.888   9.153  0.3091 -0.5176  0.2803
21696SOL    HW165666   2.686   5.962   9.099  2.6182  1.4573  1.6478
21696SOL    HW265667   2.739   5.820   9.091 -2.3002 -0.4573 -1.0033
21697SOL     OW65668   2.468   6.995   3.074  0.7123  0.5215  0.0236
21697SOL    HW165669   2.530   7.038   3.133  0.2723  1.4473 -0.1703
21697SOL    HW265670   2.479   7.039   2.990 -0.8154  1.3444  0.2024
21698SOL     OW65671   4.502   0.573   3.254  0.0834  0.1934 -0.1646
21698SOL    HW165672   4.593   0.569   3.225  0.5846 -0.7457  1.4325
21698SOL    HW265673   4.506   0.612   3.341 -1.2935  2.1764 -0.9155
21699SOL     OW65674   3.774   1.981   9.191  0.1758 -0.3107 -0.0726
21699SOL    HW165675   3.711   2.047   9.161 -2.1374 -0.8319  3.1524
21699SOL    HW265676   3.754   1.903   9.140  0.8628  0.5576 -1.7462
21700SOL     OW65677   0.129   3.588   3.750  0.4195 -0.0005  0.4654
21700SOL    HW165678   0.108   3.607   3.658  1.2762  0.1918  0.2943
21700SOL    HW265679   0.076   3.512   3.772  0.1310  0.0128 -0.1614
21701SOL     OW65680   7.441   0.724   0.374  0.1921  0.3775 -0.0576
21701SOL    HW165681   7.501   0.780   0.424 -0.0247 -0.2699  0.9720
21701SOL    HW265682   7.354   0.760   0.391  0.0972  0.0244  0.2206
21702SOL     OW65683   3.943   5.023   2.396 -0.0090  0.2519 -0.1279
21702SOL    HW165684   3.978   4.948   2.348  2.4226  1.9026 -1.1713
21702SOL    HW265685   3.988   5.019   2.481  0.2383  0.5896 -0.2414
21703SOL     OW65686   5.702   3.311   7.742 -0.3836  0.1133  0.3089
21703SOL    HW165687   5.623   3.289   7.693 -0.2875 -0.6331  0.4840
21703SOL    HW265688   5.743   3.382   7.692  0.4836 -1.5988 -1.5100
21704SOL     OW65689   5.809   8.007   3.684  0.0681 -1.1891 -0.3118
21704SOL    HW165690   5.904   8.018   3.688  0.0705 -0.6861 -1.2975
21704SOL    HW265691   5.774   8.078   3.737  0.2370 -1.7227  0.5390
21705SOL     OW65692   8.424   5.238   3.087  0.5686  1.0140 -0.1815
21705SOL    HW165693   8.468   5.153   3.082  1.6021  1.5015  0.2304
21705SOL    HW265694   8.409   5.252   3.180 -0.8341  0.6939 -0.3384
21706SOL     OW65695   6.946   7.160   8.134 -0.3834  0.2219 -0.1824
21706SOL    HW165696   6.882   7.089   8.130 -1.1393  0.7585  1.4732
21706SOL    HW265697   6.895   7.238   8.154  0.7952  0.6169  1.4910
21707SOL     OW65698   8.537   8.923   4.648 -0.2014 -0.6165 -0.2205
21707SOL    HW165699   8.599   8.899   4.716  0.6809  0.2920 -0.6867
21707SOL    HW265700   8.452   8.922   4.692  0.3339 -0.1679  0.8723
21708SOL     OW65701   0.574   3.512   4.941  0.4115  0.2469 -0.4069
21708SOL    HW165702   0.501   3.572   4.926 -0.0521  0.2993  1.7185
21708SOL    HW265703   0.535   3.424   4.937  0.2879  0.2609  0.3836
21709SOL     OW65704   4.171   6.145   5.214  0.5336  0.4262  0.1726
21709SOL    HW165705   4.132   6.091   5.283 -0.7566  0.2208 -0.6891
21709SOL    HW265706   4.216   6.082   5.158 -1.1881  0.1339 -0.9789
21710SOL     OW65707   6.143   1.718   5.468  0.1185  0.0646  0.0815
21710SOL    HW165708   6.214   1.708   5.404  0.7092 -0.5037  0.8082
21710SOL    HW265709   6.063   1.698   5.419  0.6562 -1.4756 -0.2345
21711SOL     OW65710   9.709   6.491   1.831 -0.1190  0.0177 -0.4137
21711SOL    HW165711   9.637   6.449   1.783  1.0881 -0.8562 -1.5396
21711SOL    HW265712   9.669   6.570   1.869 -1.4491  0.0780 -1.8038
21712SOL     OW65713   9.620   6.865   2.681 -0.6691  0.0348  0.4702
21712SOL    HW165714   9.636   6.886   2.589  0.9953  0.1481  0.7493
21712SOL    HW265715   9.528   6.888   2.696 -0.7230  0.8192 -0.9345
21713SOL     OW65716   0.838   2.040   8.064 -0.6789 -0.8339 -0.4603
21713SOL    HW165717   0.798   2.038   7.977 -2.5415  0.4110  0.2968
21713SOL    HW265718   0.764   2.031   8.124  0.1208  1.5670  1.0216
21714SOL     OW65719   0.882   5.773   0.623 -0.0087 -0.4214 -0.0562
21714SOL    HW165720   0.824   5.759   0.548  0.3138 -1.0788 -0.1873
21714SOL    HW265721   0.868   5.865   0.646 -0.3455 -0.2930 -0.7260
21715SOL     OW65722   5.761   1.023   0.979  0.1323  0.2945  0.6233
21715SOL    HW165723   5.807   1.017   0.895  0.8566 -0.6178  1.0703
21715SOL    HW265724   5.786   1.108   1.014  1.1271  0.0076  0.6430
21716SOL     OW65725   8.376   9.762   7.835  0.1850 -0.3801  0.4537
21716SOL    HW165726   8.323   9.686   7.811 -0.4869  0.1561  0.1670
21716SOL    HW265727   8.445   9.766   7.769 -0.3684 -0.1774 -0.1339
21717SOL     OW65728   0.656   7.167   2.992  0.6630  0.0137  0.0371
21717SOL    HW165729   0.685   7.153   3.083  0.3879  2.3958  0.5489
21717SOL    HW265730   0.564   7.143   2.992  0.6843 -0.0746  0.3592
21718SOL     OW65731   9.152   7.118   6.055 -0.6634 -0.3015  0.2334
21718SOL    HW165732   9.218   7.133   5.987  0.9208  0.1221  1.8085
21718SOL    HW265733   9.075   7.086   6.007  0.1129  0.7499 -1.8429
21719SOL     OW65734   0.051   4.188   6.745 -0.1812  0.3983 -0.3640
21719SOL    HW165735   0.142   4.196   6.773 -0.3690  0.5066  0.2233
21719SOL    HW265736   0.028   4.275   6.712 -0.6055  0.8806  1.1295
21720SOL     OW65737   0.755   7.488   3.477 -0.5597  0.2302 -0.1650
21720SOL    HW165738   0.696   7.462   3.548 -2.1694 -0.6726 -1.7487
21720SOL    HW265739   0.829   7.530   3.521 -0.5485 -2.0069  2.1728
21721SOL     OW65740   7.929   4.128   1.013 -0.2833 -0.4908 -0.3955
21721SOL    HW165741   7.958   4.199   0.955 -2.8038 -0.0944 -1.3178
21721SOL    HW265742   7.886   4.173   1.086 -0.2841 -1.0602 -0.0401
21722SOL     OW65743   4.035   9.947   5.752 -0.6741  0.4440 -0.3563
21722SOL    HW165744   4.082   9.953   5.835  0.8544 -0.4479 -1.1040
21722SOL    HW265745   3.967  10.013   5.758 -2.4836 -1.4278  2.7563
21723SOL     OW65746   9.052   2.823   1.604 -0.2030 -0.4425 -1.0464
21723SOL    HW165747   9.024   2.896   1.548  0.8573  0.4989 -0.3815
21723SOL    HW265748   9.111   2.772   1.549  2.2794  1.4684 -0.3476
21724SOL     OW65749   0.762   0.968   6.272  0.8936 -0.0541  0.2827
21724SOL    HW165750   0.834   0.922   6.229  1.5091  0.5455  0.6465
21724SOL    HW265751   0.764   0.936   6.363 -0.5418 -1.4867 -0.1491
21725SOL     OW65752   3.242   0.947   2.087 -0.0442 -0.2278  0.4611
21725SOL    HW165753   3.159   0.910   2.056 -0.4613 -1.1282  2.5216
21725SOL    HW265754   3.299   0.871   2.099  0.8622  0.3219 -0.2567
21726SOL     OW65755   8.452   0.823   8.031 -0.2268  0.1966 -0.0084
21726SOL    HW165756   8.482   0.765   8.101 -0.3356 -0.6449 -0.6420
21726SOL    HW265757   8.391   0.770   7.980 -1.0734  1.1854 -0.0396
21727SOL     OW65758   4.372   2.016   7.201  0.7652 -0.4592  0.0266
21727SOL    HW165759   4.279   1.994   7.211  1.1268 -1.8076  0.6945
21727SOL    HW265760   4.395   2.061   7.283  0.1881  2.0403 -1.0719
21728SOL     OW65761   5.640   0.582   8.073  0.3103 -0.5209  0.3125
21728SOL    HW165762   5.560   0.538   8.101 -0.4781 -0.1102 -1.1626
21728SOL    HW265763   5.630   0.592   7.978  1.0811  1.5579  0.3847
21729SOL     OW65764   9.019   5.860   8.483 -0.3394  0.0600  0.4662
21729SOL    HW165765   9.007   5.926   8.551  0.4893  1.3304 -0.5697
21729SOL    HW265766   8.958   5.886   8.414 -0.0748 -0.3292  0.0837
21730SOL     OW65767   0.608   9.575   6.540 -0.3515  0.3638  0.1413
21730SOL    HW165768   0.698   9.565   6.509  0.5465  1.4266  2.2133
21730SOL    HW265769   0.572   9.644   6.485  0.3294  0.4471 -0.2235
21731SOL     OW65770   8.984   8.944   8.515 -0.3321 -0.4847  0.4904
21731SOL    HW165771   8.908   8.905   8.471 -0.8771  1.0590 -0.0142
21731SOL    HW265772   8.979   8.910   8.605 -0.7780 -1.5378  0.0863
21732SOL     OW65773   1.837   8.591   6.454 -0.0642 -0.4546  0.4655
21732SOL    HW165774   1.869   8.626   6.537 -0.6567  0.3000  0.3850
21732SOL    HW265775   1.777   8.658   6.420  0.1081 -0.7797 -0.5347
21733SOL     OW65776   9.929   7.616   5.121 -0.4184 -0.2299 -0.0181
21733SOL    HW165777   9.969   7.697   5.154 -0.2123 -0.8295  1.2677
21733SOL    HW265778   9.883   7.643   5.042  2.1209  0.5936 -1.3213
21734SOL     OW65779   5.597   4.039   7.661 -0.5361 -0.5034  0.7986
21734SOL    HW165780   5.529   4.091   7.703  1.1304  1.1693  1.5521
21734SOL    HW265781   5.563   4.020   7.573 -1.7447  0.7305  0.9804
21735SOL     OW65782   5.116   5.134   4.503  0.6252 -0.1912  0.1236
21735SOL    HW165783   5.040   5.123   4.559  0.5703  0.2494  0.1408
21735SOL    HW265784   5.164   5.051   4.510  0.1216 -0.4894  0.0660
21736SOL     OW65785   0.707   9.329   3.110 -0.3185  0.4372  1.0626
21736SOL    HW165786   0.787   9.308   3.159  0.1345 -0.5012 -0.0262
21736SOL    HW265787   0.649   9.367   3.175  0.9699  1.0302  1.9158
21737SOL     OW65788   1.019   8.191   5.748 -0.1229 -0.5387  0.7320
21737SOL    HW165789   0.941   8.231   5.788 -1.9682 -0.2502 -2.7583
21737SOL    HW265790   1.032   8.110   5.797 -1.8391  0.0450  2.2487
21738SOL     OW65791   8.180   1.815   6.990  0.3002  0.4857 -0.2493
21738SOL    HW165792   8.152   1.902   7.017 -0.5447 -0.3600  1.8394
21738SOL    HW265793   8.117   1.788   6.923  0.8401  1.6185 -1.2498
21739SOL     OW65794   6.676   6.855   8.320  0.8115  0.2215 -0.6085
21739SOL    HW165795   6.633   6.771   8.337  0.1494  0.4160 -1.2834
21739SOL    HW265796   6.629   6.891   8.245  1.8873  0.6378 -1.0998
21740SOL     OW65797   5.112   5.904   4.455 -0.1666  0.5702  0.0150
21740SOL    HW165798   5.062   5.827   4.428 -0.5326  0.9949 -0.5324
21740SOL    HW265799   5.193   5.868   4.491 -1.0510 -0.1503  1.3622
21741SOL     OW65800   7.779   8.421   6.117 -0.6740 -0.7509  0.0208
21741SOL    HW165801   7.870   8.404   6.093 -1.0005  0.8184 -2.6318
21741SOL    HW265802   7.783   8.449   6.209  1.6510  0.3552 -0.3669
21742SOL     OW65803   2.893   7.892   9.839 -0.7630  0.0644  0.2805
21742SOL    HW165804   2.947   7.970   9.834 -2.1243  0.9775 -0.8476
21742SOL    HW265805   2.935   7.829   9.780 -0.7903  0.6865 -0.4169
21743SOL     OW65806   4.217   9.505   4.011  0.2251 -0.0697 -0.0487
21743SOL    HW165807   4.136   9.551   3.992  0.0933 -0.7573 -1.2372
21743SOL    HW265808   4.195   9.445   4.082  0.2656  1.2644  1.1347
21744SOL     OW65809   8.953   4.166   3.755 -0.3276 -0.2993 -0.7522
21744SOL    HW165810   8.932   4.220   3.831 -0.3533 -0.2845 -0.7699
21744SOL    HW265811   9.008   4.096   3.791  0.8291  0.4785 -0.9486
21745SOL     OW65812   7.184   4.690   2.336 -0.5486 -0.1686 -0.2191
21745SOL    HW165813   7.090   4.704   2.345 -0.6385 -0.6049 -0.4960
21745SOL    HW265814   7.205   4.721   2.248 -0.3980  0.1150 -0.0840
21746SOL     OW65815   9.137   3.401   0.452  0.4712 -0.8079  0.0501
21746SOL    HW165816   9.078   3.424   0.381 -0.0972 -0.7185  0.5486
21746SOL    HW265817   9.205   3.469   0.450 -0.5768  0.2814  0.7958
21747SOL     OW65818   9.084   8.538   5.592 -0.6804 -0.3944 -0.5445
21747SOL    HW165819   9.054   8.507   5.506  0.5513 -0.8765 -0.8279
21747SOL    HW265820   9.062   8.466   5.652 -1.1362 -0.2502 -0.5376
21748SOL     OW65821   5.213   4.898   1.385  0.0591  0.1776  0.5449
21748SOL    HW165822   5.259   4.842   1.447 -0.2159 -1.1911 -0.4375
21748SOL    HW265823   5.136   4.848   1.359 -0.2323  1.0257 -0.3324
21749SOL     OW65824   0.349   2.943   2.246  0.3353 -0.0686 -0.6919
21749SOL    HW165825   0.403   3.017   2.219 -0.6148  0.9906  0.2151
21749SOL    HW265826   0.272   2.983   2.285  1.2209 -1.4685  2.8379
21750SOL     OW65827   4.206   1.223   5.286  0.0604  0.0377  0.7116
21750SOL    HW165828   4.283   1.242   5.338  0.7739  0.2694 -0.3929
21750SOL    HW265829   4.222   1.135   5.250  0.7281  0.8272 -1.0433
21751SOL     OW65830   4.291   6.611   3.323  0.5946 -0.1962  0.8024
21751SOL    HW165831   4.344   6.603   3.244 -0.4921 -1.3985  0.1503
21751SOL    HW265832   4.242   6.692   3.310  2.2593  0.9669  1.4489
21752SOL     OW65833   7.317   8.227   1.646 -0.0095  0.0081  0.4608
21752SOL    HW165834   7.308   8.306   1.592  1.6093  0.1534  0.3628
21752SOL    HW265835   7.238   8.226   1.700 -0.5113  1.1665 -0.2138
21753SOL     OW65836   3.673   9.065   9.898 -0.0884  0.1465 -0.1720
21753SOL    HW165837   3.701   9.110   9.978  1.3339 -2.1118  0.7198
21753SOL    HW265838   3.629   8.986   9.929 -0.6905 -0.1433 -1.6546
21754SOL     OW65839   1.138   6.125   4.472 -0.0386 -0.0292 -0.6923
21754SOL    HW165840   1.082   6.172   4.533  2.1395  0.3015  1.1904
21754SOL    HW265841   1.203   6.189   4.444  0.3256 -0.7693 -1.5920
21755SOL     OW65842   7.864   5.786   8.223 -0.2857 -0.0931 -0.2892
21755SOL    HW165843   7.952   5.761   8.253  0.4158  0.5656 -1.6958
21755SOL    HW265844   7.813   5.705   8.228  0.3976 -0.4908  0.5309
21756SOL     OW65845   3.775   0.143   5.129 -0.5644 -0.7400 -0.2067
21756SOL    HW165846   3.848   0.082   5.134 -0.8488 -1.1206 -0.5992
21756SOL    HW265847   3.701   0.096   5.167 -0.7331 -0.5637 -0.3107
21757SOL     OW65848   0.382   2.534   5.776  0.0555 -0.3890 -0.2301
21757SOL    HW165849   0.357   2.451   5.735  0.4101  0.2309 -1.7708
21757SOL    HW265850   0.477   2.538   5.768  0.2501 -0.6807  1.5697
21758SOL     OW65851   0.329   0.689   4.178  0.9093  0.4320 -0.5877
21758SOL    HW165852   0.357   0.769   4.222 -0.3721  0.8645 -0.5018
21758SOL    HW265853   0.329   0.622   4.247 -0.1916  0.8962 -0.1111
21759SOL     OW65854   2.165   4.051   4.442 -0.9430  0.4931 -0.1381
21759SOL    HW165855   2.237   3.991   4.422  0.5250  1.7872  1.0940
21759SOL    HW265856   2.094   3.993   4.471 -1.0063 -0.9192 -2.8462
21760SOL     OW65857   5.583   3.553   8.879  0.0818  0.6928  0.0626
21760SOL    HW165858   5.626   3.614   8.940 -1.4526  0.6856  1.2023
21760SOL    HW265859   5.654   3.497   8.848  0.7848 -0.0594  2.7490
21761SOL     OW65860   0.154   4.704   0.694  0.0838 -1.1086  0.4563
21761SOL    HW165861   0.150   4.613   0.664 -1.1762 -1.0966  0.5469
21761SOL    HW265862   0.068   4.720   0.733 -0.2906  0.5837 -0.9563
21762SOL     OW65863   0.023   4.851   1.282 -0.3975 -0.0007  0.1055
21762SOL    HW165864   0.003   4.941   1.310  0.1049  0.1408  0.0240
21762SOL    HW265865   0.074   4.815   1.355 -0.8277 -0.3097  0.2547
21763SOL     OW65866   1.682   6.914   5.839  0.0328  0.3046  0.8815
21763SOL    HW165867   1.588   6.922   5.823 -0.0611 -0.1851  1.1871
21763SOL    HW265868   1.723   6.956   5.763 -0.4250 -0.0746  0.4210
21764SOL     OW65869   1.415   0.660   4.335 -0.0172  0.0895  0.3677
21764SOL    HW165870   1.405   0.657   4.430  1.3392  0.9279  0.5689
21764SOL    HW265871   1.462   0.579   4.313 -0.3774 -0.1297  0.3910
21765SOL     OW65872   5.487   0.869   7.971 -0.5682 -0.2440  0.0160
21765SOL    HW165873   5.529   0.798   7.922  0.2207  0.0603  0.2424
21765SOL    HW265874   5.448   0.826   8.047  0.1634 -0.3964  0.3081
21766SOL     OW65875   0.606   1.926   1.558 -0.2272  0.0307  0.2371
21766SOL    HW165876   0.593   2.001   1.500  0.8787 -0.6717 -0.9786
21766SOL    HW265877   0.699   1.903   1.548 -0.4624 -1.3079  0.8099
21767SOL     OW65878   2.476   5.516   7.874 -0.0061 -0.0895  0.1671
21767SOL    HW165879   2.565   5.549   7.864 -0.3595  0.6120 -0.8501
21767SOL    HW265880   2.477   5.468   7.957  1.3115 -0.1042  0.1571
21768SOL     OW65881   1.217   3.437   4.829  0.5220  0.3518  0.2372
21768SOL    HW165882   1.198   3.451   4.922  0.5220  0.3574  0.2365
21768SOL    HW265883   1.294   3.379   4.829 -0.1030 -0.4943  0.2438
21769SOL     OW65884   3.720   6.485   9.915 -0.2940 -0.4193  0.1473
21769SOL    HW165885   3.679   6.431   9.847  0.7456  1.7818 -2.4247
21769SOL    HW265886   3.810   6.453   9.920 -0.3958 -0.6460  0.5968
21770SOL     OW65887   1.010   7.510   1.441 -0.1107  0.7550 -0.5768
21770SOL    HW165888   0.975   7.599   1.448  1.1930  1.2766 -0.1297
21770SOL    HW265889   1.104   7.521   1.455  0.0776 -0.7044 -0.5148
21771SOL     OW65890   1.195   6.113   3.120  0.4382  0.6041 -0.1496
21771SOL    HW165891   1.214   6.184   3.181  0.7923  0.2889  0.1078
21771SOL    HW265892   1.102   6.097   3.130 -0.0102  2.1557 -1.4065
21772SOL     OW65893   9.730   4.661   3.911  0.2674  0.1055  0.3509
21772SOL    HW165894   9.803   4.714   3.943  0.5013 -0.4740  0.7917
21772SOL    HW265895   9.714   4.597   3.981  0.2012 -0.6066 -0.2961
21773SOL     OW65896   0.599   4.608   7.529  0.1414 -0.1633 -0.0946
21773SOL    HW165897   0.636   4.522   7.511  1.1208 -0.0061  1.0282
21773SOL    HW265898   0.674   4.668   7.527 -0.1080  0.2670  1.5406
21774SOL     OW65899   1.666   4.091   4.370 -0.4464  0.4711  0.1966
21774SOL    HW165900   1.577   4.126   4.379 -0.4877  0.2397  0.7297
21774SOL    HW265901   1.691   4.066   4.459 -0.4800 -1.0109 -0.1834
21775SOL     OW65902   8.919   0.401   7.983  0.2525  0.5402  0.2124
21775SOL    HW165903   8.963   0.483   7.958  0.1387  0.8987  1.1385
21775SOL    HW265904   8.826   0.421   7.974  0.2148  0.6432  0.8200
21776SOL     OW65905   8.098   0.934   2.225 -0.0553 -0.3472 -0.1742
21776SOL    HW165906   8.098   0.868   2.155 -0.1554  0.4401 -0.9236
21776SOL    HW265907   8.011   0.972   2.221  0.6932  1.3508 -1.2063
21777SOL     OW65908   2.957   6.391   2.644 -0.0520 -0.3422  0.6668
21777SOL    HW165909   3.041   6.437   2.640  1.2291 -2.5269  0.8624
21777SOL    HW265910   2.936   6.386   2.737  0.2137 -0.7865  0.7087
21778SOL     OW65911   7.901   1.811   0.721 -0.5886 -0.1257 -0.1441
21778SOL    HW165912   7.810   1.832   0.701 -0.2714  0.8944 -0.6024
21778SOL    HW265913   7.949   1.892   0.702  0.1930 -0.1095  1.6977
21779SOL     OW65914   8.556   3.032   8.593  0.1177 -0.2604  0.5142
21779SOL    HW165915   8.491   3.093   8.558  0.0562 -0.2638  0.6230
21779SOL    HW265916   8.556   3.048   8.687  1.5715  1.0027  0.3381
21780SOL     OW65917   2.566   2.021   2.870 -0.2875  0.1852 -0.1838
21780SOL    HW165918   2.471   2.024   2.884 -0.5118 -0.2828 -1.4337
21780SOL    HW265919   2.577   1.962   2.795  0.4667  4.3306 -3.7856
21781SOL     OW65920   4.956   5.651   4.371  0.0920  0.1992 -0.4288
21781SOL    HW165921   4.877   5.646   4.316 -1.2581 -0.3380  1.4641
21781SOL    HW265922   5.006   5.573   4.348 -0.9607 -0.5736 -0.1808
21782SOL     OW65923   6.757   6.660   8.576 -0.1890 -0.5358  0.5128
21782SOL    HW165924   6.819   6.601   8.532 -0.2032 -0.4955  0.4387
21782SOL    HW265925   6.672   6.636   8.539 -0.3510 -1.2755  1.3423
21783SOL     OW65926   8.524   4.658   9.922  0.0223 -0.3946 -0.6385
21783SOL    HW165927   8.496   4.632   9.834  0.4614 -0.1481 -0.8576
21783SOL    HW265928   8.516   4.753   9.922  0.5293 -0.3505 -0.5947
21784SOL     OW65929   7.622   9.731   5.885  0.5912 -0.7085 -0.5395
21784SOL    HW165930   7.578   9.711   5.968  0.4875 -0.5358 -0.5508
21784SOL    HW265931   7.713   9.747   5.910  0.2211  1.1059 -0.1833
21785SOL     OW65932   2.469   8.214   6.020  0.4905  0.2934  0.0189
21785SOL    HW165933   2.414   8.195   6.096 -0.7986  1.6796 -0.5165
21785SOL    HW265934   2.408   8.229   5.948  1.6306  0.4685 -0.9528
21786SOL     OW65935   3.695   1.318   1.999 -0.1089  0.2216  0.0833
21786SOL    HW165936   3.627   1.253   1.979 -1.4362  0.5532  3.0051
21786SOL    HW265937   3.649   1.385   2.048  2.3354  0.4637  2.2019
21787SOL     OW65938   3.868   3.993   7.888  0.0812  0.0629 -0.5459
21787SOL    HW165939   3.920   3.914   7.899  1.0450  0.8246  0.6069
21787SOL    HW265940   3.919   4.048   7.829 -0.2176  0.1462 -0.7320
21788SOL     OW65941   6.187   2.716   0.408  0.2943  0.1336 -0.4400
21788SOL    HW165942   6.268   2.684   0.448  0.7372 -0.4037 -1.6808
21788SOL    HW265943   6.173   2.802   0.446  1.1474  0.0032  0.2057
21789SOL     OW65944   4.556   3.864   4.074  0.5927  0.2134 -0.4605
21789SOL    HW165945   4.570   3.824   4.160 -2.6069 -2.4415 -0.9599
21789SOL    HW265946   4.546   3.789   4.015  2.8828  1.9439 -3.2948
21790SOL     OW65947   7.148   4.683   4.901  0.0402  0.2302 -0.6740
21790SOL    HW165948   7.162   4.589   4.891 -2.3311 -0.0980 -1.3076
21790SOL    HW265949   7.057   4.692   4.929  0.6106  2.2960  0.8224
21791SOL     OW65950   7.355   5.784   7.641  0.2643  0.2749  0.7428
21791SOL    HW165951   7.335   5.718   7.708  0.0562  0.6875  1.0903
21791SOL    HW265952   7.412   5.846   7.686 -0.2800  0.8239  0.6795
21792SOL     OW65953   3.372   1.639   8.147 -0.1872 -0.0511 -0.0340
21792SOL    HW165954   3.375   1.638   8.052 -0.1853 -0.6607 -0.0358
21792SOL    HW265955   3.420   1.717   8.173 -3.5716  2.4276 -0.6209
21793SOL     OW65956   4.406   9.204   2.776  0.3447  0.0893 -0.2027
21793SOL    HW165957   4.404   9.132   2.713  0.9326  1.1662 -1.5016
21793SOL    HW265958   4.445   9.277   2.728  1.4682  0.7700  1.6340
21794SOL     OW65959   1.636   0.514   3.544 -0.4998 -0.6403  0.4589
21794SOL    HW165960   1.683   0.435   3.572 -0.5781  0.0159  2.6257
21794SOL    HW265961   1.702   0.564   3.495  0.9649 -0.0646  2.8375
21795SOL     OW65962   2.638   4.811   8.588  0.0783 -0.6598  0.3068
21795SOL    HW165963   2.599   4.727   8.614 -0.5033  0.2284  2.6066
21795SOL    HW265964   2.723   4.787   8.551 -0.4575 -2.3051  0.0463
21796SOL     OW65965   1.177   5.982   9.228  0.0993  0.3733  0.2100
21796SOL    HW165966   1.113   5.967   9.158 -0.8387 -1.7479  1.4345
21796SOL    HW265967   1.235   6.050   9.193 -2.6095  2.1956 -1.0666
21797SOL     OW65968   8.397   3.582   7.106  0.5669 -0.3302 -0.4970
21797SOL    HW165969   8.488   3.599   7.130  0.9682 -0.7392 -1.6468
21797SOL    HW265970   8.351   3.663   7.128  0.5244 -1.1616  3.1302
21798SOL     OW65971   2.419   9.015   8.913  0.0771 -0.6916  0.2053
21798SOL    HW165972   2.473   9.036   8.989 -0.2421  0.0086  0.2468
21798SOL    HW265973   2.416   8.919   8.911  1.7789 -0.7626 -0.1357
21799SOL     OW65974   1.411   0.685   6.611 -0.6523  0.3735 -0.0859
21799SOL    HW165975   1.334   0.628   6.612 -0.2620 -0.2794 -2.6201
21799SOL    HW265976   1.486   0.625   6.619 -0.2746  1.0495  3.1899
21800SOL     OW65977   0.057   2.394   4.598 -0.6727 -0.3895  0.3607
21800SOL    HW165978   0.070   2.486   4.623 -0.7877 -0.6049  1.2194
21800SOL    HW265979  -0.028   2.371   4.636 -1.3965 -0.4055 -1.1760
21801SOL     OW65980   7.107   8.096   7.619  0.4141 -0.2430 -0.0725
21801SOL    HW165981   7.065   8.051   7.693  0.8757  1.0271  1.0184
21801SOL    HW265982   7.082   8.045   7.542 -0.0395 -1.6484  0.9610
21802SOL     OW65983   8.120   2.593   6.772  0.4558 -0.1578  0.0258
21802SOL    HW165984   8.144   2.672   6.820  0.1110  0.1230 -0.2680
21802SOL    HW265985   8.203   2.554   6.746  0.6546 -0.3379  0.8859
21803SOL     OW65986   3.552   6.508   6.717 -0.4688  0.1596 -0.0113
21803SOL    HW165987   3.522   6.426   6.677 -1.2823  0.0797  0.7360
21803SOL    HW265988   3.630   6.483   6.766 -0.9938 -0.2781  0.6211
21804SOL     OW65989   7.075   9.947   4.254 -0.5973 -0.4861  0.2777
21804SOL    HW165990   7.027  10.022   4.290 -0.8428 -1.8163  2.9762
21804SOL    HW265991   7.006   9.892   4.217 -1.0202 -1.4473  2.3591
21805SOL     OW65992   8.889   7.504   2.776 -0.3191  0.3173 -0.2426
21805SOL    HW165993   8.961   7.475   2.719  0.0047 -2.0868  1.2573
21805SOL    HW265994   8.821   7.437   2.765  0.2181 -0.9106  2.9617
21806SOL     OW65995   3.829   6.221   7.956  0.2361 -0.0943  0.2255
21806SOL    HW165996   3.841   6.155   7.888 -1.0001 -0.8255  0.6811
21806SOL    HW265997   3.917   6.251   7.977  0.5973  1.1261 -2.6142
21807SOL     OW65998   9.187   6.621   7.266 -0.3464 -0.0003 -0.1222
21807SOL    HW165999   9.123   6.607   7.335 -1.4543  0.7772 -0.9478
21807SOL    HW266000   9.135   6.622   7.185  0.7354  0.4074 -0.8391
21808SOL     OW66001   6.204   2.485   7.582 -0.8132  0.2271  0.5711
21808SOL    HW166002   6.242   2.419   7.523 -2.2853  0.1470 -0.3484
21808SOL    HW266003   6.138   2.528   7.529 -1.0043  1.3405  1.6794
21809SOL     OW66004   0.687   4.717   3.241 -0.3257 -0.2046  0.4812
21809SOL    HW166005   0.621   4.720   3.172 -0.0381  0.0465  0.2149
21809SOL    HW266006   0.637   4.700   3.321 -0.4528 -3.4917 -0.1268
21810SOL     OW66007   3.149   4.051   6.933  0.4066  0.5744 -0.4169
21810SOL    HW166008   3.179   4.099   7.010 -1.9362  0.6530  0.5255
21810SOL    HW266009   3.184   3.962   6.944 -1.2798  0.0987  1.6927
21811SOL     OW66010   8.221   8.505   7.000  0.0130  0.3826 -0.1361
21811SOL    HW166011   8.304   8.474   7.035  0.0558 -1.3944 -1.6538
21811SOL    HW266012   8.245   8.568   6.932 -0.0194  2.1134  1.3716
21812SOL     OW66013   8.406   0.346   1.429 -0.2810  1.1525 -0.4797
21812SOL    HW166014   8.433   0.300   1.351  0.2700  1.3814 -0.4290
21812SOL    HW266015   8.488   0.371   1.472 -0.5625  0.3815  0.5596
21813SOL     OW66016   0.443   8.250   3.246 -0.0555  0.0014 -0.6168
21813SOL    HW166017   0.351   8.272   3.252  0.0295  0.6052 -1.4051
21813SOL    HW266018   0.474   8.251   3.336 -0.6207  0.6581 -0.4219
21814SOL     OW66019   9.767   5.315   1.480  0.0358  0.0660  0.2758
21814SOL    HW166020   9.675   5.339   1.480 -0.4663 -1.7557 -0.3391
21814SOL    HW266021   9.791   5.310   1.573  0.1670  2.7242  0.4604
21815SOL     OW66022   3.538   5.013   2.657  0.2993 -0.2849 -0.4174
21815SOL    HW166023   3.547   5.039   2.749 -1.0711  0.4196 -0.4459
21815SOL    HW266024   3.611   5.055   2.613 -0.2780  1.2719  0.0095
21816SOL     OW66025   1.038   7.891   0.209  0.1144 -0.2548 -0.0728
21816SOL    HW166026   1.019   7.977   0.245 -0.6353 -0.4921  0.1266
21816SOL    HW266027   1.125   7.899   0.170  0.0417  0.5882 -0.0676
21817SOL     OW66028   2.984   3.218   1.587  0.1886 -0.0033  0.2579
21817SOL    HW166029   3.027   3.295   1.550  0.6433 -0.5073 -0.2907
21817SOL    HW266030   2.914   3.253   1.641  0.8536  0.8212  0.6152
21818SOL     OW66031   6.279   2.422   9.314  0.4025 -0.1390  0.2542
21818SOL    HW166032   6.283   2.518   9.316  1.0642 -0.1771  1.7071
21818SOL    HW266033   6.369   2.394   9.299  0.8569 -0.5513  3.2097
21819SOL     OW66034   3.710   3.526   6.555  0.0029 -0.3406  0.5175
21819SOL    HW166035   3.727   3.440   6.594 -1.7316 -1.5430 -1.2119
21819SOL    HW266036   3.657   3.572   6.619 -1.1880 -1.5573  0.4487
21820SOL     OW66037   3.672   6.140   7.466 -0.6777  0.4329 -0.2064
21820SOL    HW166038   3.601   6.077   7.481  0.1151 -0.6258 -0.8100
21820SOL    HW266039   3.726   6.100   7.398  0.8501  0.9246  0.6695
21821SOL     OW66040   2.213   4.664   9.743  0.3465  0.2583  0.5990
21821SOL    HW166041   2.236   4.582   9.785  2.5940  0.0333 -0.8820
21821SOL    HW266042   2.185   4.721   9.815  0.4491 -1.2340  1.8673
21822SOL     OW66043   6.394   1.602   3.299 -0.1268 -0.1553 -0.1631
21822SOL    HW166044   6.443   1.520   3.306  0.8671  0.4648  0.3753
21822SOL    HW266045   6.404   1.627   3.207 -1.0502 -0.9928 -0.5078
21823SOL     OW66046   9.966   2.848   2.707 -0.5795  0.1597  0.3220
21823SOL    HW166047  10.057   2.828   2.730 -0.3315  0.8761 -0.0143
21823SOL    HW266048   9.916   2.772   2.737  0.4041 -1.3024 -1.5114
21824SOL     OW66049   9.780   1.937   7.190 -0.1145 -0.5764 -0.2466
21824SOL    HW166050   9.797   1.895   7.274  0.0899 -4.1661 -1.8991
21824SOL    HW266051   9.685   1.942   7.184 -0.1338 -0.5207  0.1125
21825SOL     OW66052   7.440   0.760   6.832  0.2141 -0.2165  0.5483
21825SOL    HW166053   7.454   0.855   6.832  1.5255 -0.3661 -0.7903
21825SOL    HW266054   7.345   0.750   6.835  0.0797  1.1011  1.9563
21826SOL     OW66055   5.241   8.640   2.872 -0.2202  0.4576 -0.4555
21826SOL    HW166056   5.331   8.612   2.858 -0.7225 -1.0217 -0.9769
21826SOL    HW266057   5.220   8.692   2.794 -0.0373  0.2029 -0.6790
21827SOL     OW66058   7.359   0.619   4.745  0.3108 -0.2224  0.2842
21827SOL    HW166059   7.393   0.552   4.803  3.2853  2.2684  1.7119
21827SOL    HW266060   7.310   0.679   4.802  0.3205  0.4394 -0.3762
21828SOL     OW66061   6.197   0.109   9.483  0.3688 -1.1072 -0.0388
21828SOL    HW166062   6.232   0.104   9.572  3.2415 -0.2726 -1.0238
21828SOL    HW266063   6.241   0.184   9.444 -1.0078 -1.2999 -2.1135
21829SOL     OW66064   6.153   6.309   6.773  0.1190 -0.2471  0.0717
21829SOL    HW166065   6.114   6.336   6.690  0.6881  0.9830  0.1908
21829SOL    HW266066   6.083   6.317   6.837 -0.6890 -2.3805 -0.4480
21830SOL     OW66067   6.887   5.727   4.873 -0.5032 -0.8827  0.3697
21830SOL    HW166068   6.829   5.774   4.933 -2.1169 -1.6855 -0.4908
21830SOL    HW266069   6.828   5.675   4.819  0.8114  0.2070 -2.3149
21831SOL     OW66070   3.753   6.649   0.948  0.3663  0.2009  0.1697
21831SOL    HW166071   3.799   6.716   0.998  0.4587 -0.1691  0.5877
21831SOL    HW266072   3.821   6.587   0.921  0.4139  0.7457 -0.9867
21832SOL     OW66073   0.118   0.138   0.466 -0.4205 -0.2928  0.6450
21832SOL    HW166074   0.160   0.057   0.436 -0.4505 -0.7501  1.7846
21832SOL    HW266075   0.029   0.112   0.489 -1.1542  0.5322 -1.0715
21833SOL     OW66076   0.012   2.279   6.639  0.1192 -0.1091 -0.0630
21833SOL    HW166077   0.009   2.308   6.548  0.0026  2.5021  0.7022
21833SOL    HW266078   0.103   2.290   6.665 -0.2497  1.3440  0.7345
21834SOL     OW66079   3.892   8.164   9.730 -0.0377 -0.6004 -0.2234
21834SOL    HW166080   3.877   8.257   9.714  1.9069 -0.5580 -2.3468
21834SOL    HW266081   3.807   8.123   9.712 -1.4283  0.8220  2.4334
21835SOL     OW66082   1.775   8.033   9.565 -0.5486  0.2004  0.1679
21835SOL    HW166083   1.681   8.017   9.579 -0.5826 -0.3752 -0.6366
21835SOL    HW266084   1.817   7.995   9.642 -0.9543  0.1387  0.3619
21836SOL     OW66085   2.913   6.863   4.549  0.2716  0.7312  0.2194
21836SOL    HW166086   2.983   6.917   4.511 -0.1869  1.4639  0.4140
21836SOL    HW266087   2.836   6.919   4.548 -0.8488 -0.6864 -1.8401
21837SOL     OW66088   3.949   7.016   6.232  0.3200  0.3391  0.1281
21837SOL    HW166089   3.962   6.935   6.280 -0.5456 -0.6052 -1.1554
21837SOL    HW266090   3.981   6.997   6.144  0.9681  1.6956  0.0482
21838SOL     OW66091   5.097   4.102   2.495  0.2588 -0.6405 -0.3258
21838SOL    HW166092   5.150   4.180   2.513 -1.2753 -0.1227  2.7710
21838SOL    HW266093   5.079   4.106   2.401  2.6874  1.0491 -0.8194
21839SOL     OW66094   9.918   6.593   1.356  0.2094  0.3787  0.0157
21839SOL    HW166095   9.857   6.657   1.321  0.1259  0.4621  0.3065
21839SOL    HW266096   9.898   6.512   1.309 -0.2820  0.3481  0.2681
21840SOL     OW66097   8.462   3.631   8.300  0.0067  0.2695  0.3628
21840SOL    HW166098   8.517   3.646   8.377  0.7913 -1.0197  0.0873
21840SOL    HW266099   8.408   3.709   8.293 -0.2830  0.3000  2.3887
21841SOL     OW66100   6.053   2.115   2.930  0.5940 -0.4360  0.4853
21841SOL    HW166101   6.095   2.114   2.844  0.3980 -2.4234  0.3767
21841SOL    HW266102   6.044   2.208   2.950 -0.4657  0.1198 -2.1608
21842SOL     OW66103   7.465   3.939   3.953 -0.2229 -0.4376 -0.0773
21842SOL    HW166104   7.535   3.913   3.893  1.7983 -0.4612  2.1434
21842SOL    HW266105   7.414   3.859   3.966  0.9896 -1.1675  0.3292
21843SOL     OW66106   0.262   5.104   3.549 -0.0963  0.6462 -0.2877
21843SOL    HW166107   0.198   5.174   3.550  0.2900  1.0617  1.9210
21843SOL    HW266108   0.345   5.147   3.571  0.7670 -0.0486 -1.9916
21844SOL     OW66109   3.066   8.727   7.582  0.0898  0.0612  0.3163
21844SOL    HW166110   3.111   8.658   7.631  1.7845 -0.3879 -1.7175
21844SOL    HW266111   3.081   8.705   7.490 -1.3789  1.8623 -0.4326
21845SOL     OW66112   3.519   8.512   2.839  0.2347  0.6249  0.4395
21845SOL    HW166113   3.456   8.441   2.832 -1.3334  1.8759  1.0283
21845SOL    HW266114   3.604   8.471   2.828 -0.6972 -1.0549 -0.9496
21846SOL     OW66115   6.938   6.003   1.945 -0.0121 -0.1438 -0.3529
21846SOL    HW166116   7.027   5.996   1.909  0.4801 -0.9107  0.9585
21846SOL    HW266117   6.921   5.918   1.984  0.2153  1.1413  2.8270
21847SOL     OW66118   1.357   0.510   6.252 -0.1478  0.3684  0.1350
21847SOL    HW166119   1.446   0.480   6.234 -1.4156 -3.4887 -0.6904
21847SOL    HW266120   1.332   0.465   6.332 -1.3771  1.3915  0.3663
21848SOL     OW66121   0.255   8.366   2.439 -0.0788  0.1550 -0.4840
21848SOL    HW166122   0.179   8.382   2.384 -0.6724  0.7850  0.4973
21848SOL    HW266123   0.317   8.322   2.381 -0.7975  0.5205 -1.5657
21849SOL     OW66124   7.526   7.504   6.773 -0.0470 -0.5519  0.0434
21849SOL    HW166125   7.496   7.566   6.839 -0.2860 -0.4574 -0.1486
21849SOL    HW266126   7.480   7.531   6.693  1.2019  0.1209 -0.4654
21850SOL     OW66127   8.580   1.155   2.312 -0.0617  0.0175 -0.5970
21850SOL    HW166128   8.487   1.131   2.310  0.3995 -1.9854 -0.4401
21850SOL    HW266129   8.599   1.173   2.404  0.1787 -1.8795 -0.2253
21851SOL     OW66130   1.199   3.430   0.766  0.5913 -0.0435  0.2589
21851SOL    HW166131   1.187   3.336   0.754 -1.8161  0.0567  1.2172
21851SOL    HW266132   1.198   3.467   0.678  0.0697 -0.7888 -0.0550
21852SOL     OW66133   8.121   8.932   7.071 -0.6444  0.3351 -0.3205
21852SOL    HW166134   8.162   8.978   6.997 -0.2668 -2.2582 -1.8359
21852SOL    HW266135   8.029   8.924   7.046 -0.8770  0.8992  0.3098
21853SOL     OW66136   4.627   5.486   2.653  0.2018 -0.7130  0.2023
21853SOL    HW166137   4.579   5.526   2.726 -0.7735 -4.0254  1.5348
21853SOL    HW266138   4.561   5.471   2.586  0.7614  0.7005 -0.7087
21854SOL     OW66139   8.882   2.778   5.446  0.1939 -0.6923 -0.1659
21854SOL    HW166140   8.852   2.841   5.511  0.6688 -1.3409  0.7122
21854SOL    HW266141   8.802   2.737   5.414 -0.1854  0.8370 -1.2889
21855SOL     OW66142   4.691   9.099   8.538  0.7485 -0.6217  0.3512
21855SOL    HW166143   4.758   9.166   8.547  0.6882 -0.6566  1.1489
21855SOL    HW266144   4.723   9.026   8.592 -0.9694  0.1970  2.6682
21856SOL     OW66145   8.711   2.918   1.765  0.0554 -0.0733  0.3173
21856SOL    HW166146   8.745   2.972   1.694 -0.8154 -0.1435 -0.1731
21856SOL    HW266147   8.759   2.946   1.842 -1.5380  2.6560  0.4276
21857SOL     OW66148   9.544   9.025   5.246 -0.1744  0.3674 -0.3936
21857SOL    HW166149   9.557   9.105   5.196  2.3599 -0.1618 -0.7105
21857SOL    HW266150   9.550   9.052   5.337 -0.7092  0.7165 -0.4572
21858SOL     OW66151   5.148   0.333   6.470  0.0789  0.5614  0.5850
21858SOL    HW166152   5.139   0.297   6.558  0.5028 -2.5296 -0.5217
21858SOL    HW266153   5.243   0.336   6.455 -0.0155 -0.4225 -0.2988
21859SOL     OW66154   8.662   4.426   1.635 -0.6870 -0.3943  0.2944
21859SOL    HW166155   8.636   4.335   1.627 -3.8791  0.3487  0.5565
21859SOL    HW266156   8.633   4.467   1.554 -1.2858  0.7429  1.0421
21860SOL     OW66157   2.247   9.187   2.515 -0.4179  0.0131  0.0449
21860SOL    HW166158   2.298   9.106   2.525 -1.1781 -0.6372 -1.0479
21860SOL    HW266159   2.304   9.256   2.549  2.0251 -0.3988 -2.7364
21861SOL     OW66160   8.707   8.508   3.809  0.0346  0.2999  0.0812
21861SOL    HW166161   8.636   8.572   3.799  0.1376  0.3915 -0.0769
21861SOL    HW266162   8.779   8.558   3.848 -0.5536 -0.1866  1.8582
21862SOL     OW66163   0.828   5.645   9.539  0.3226 -0.0063 -0.0598
21862SOL    HW166164   0.902   5.603   9.583  0.2912 -0.4710 -0.4415
21862SOL    HW266165   0.867   5.721   9.495  0.4077  0.2788  0.5073
21863SOL     OW66166   2.855   5.640   3.396  0.5604  0.3107  0.0362
21863SOL    HW166167   2.798   5.577   3.351 -0.7159  1.5058 -0.0902
21863SOL    HW266168   2.827   5.637   3.487  1.9911 -0.8537  0.4868
21864SOL     OW66169   6.468   9.950   4.448  0.1540 -0.0270 -0.2837
21864SOL    HW166170   6.400   9.952   4.516  0.0210 -0.4779 -0.3952
21864SOL    HW266171   6.471   9.858   4.420  0.6849  0.0252 -0.4105
21865SOL     OW66172   3.501   6.631   1.424 -0.0139 -0.0555 -0.4354
21865SOL    HW166173   3.487   6.641   1.330  0.7914 -0.1564 -0.5762
21865SOL    HW266174   3.485   6.719   1.460 -1.1283 -0.2024 -0.5459
21866SOL     OW66175   7.747   4.626   6.570 -0.0636 -0.2175 -0.0149
21866SOL    HW166176   7.684   4.625   6.498  1.0218 -1.5011 -1.0013
21866SOL    HW266177   7.826   4.586   6.534  1.2725  1.1510  1.2434
21867SOL     OW66178   4.359   7.935   6.235 -0.1859  0.4927  0.4088
21867SOL    HW166179   4.381   7.939   6.328  1.5800  0.9560  0.0127
21867SOL    HW266180   4.275   7.889   6.232 -0.0377  0.0290  2.1898
21868SOL     OW66181   4.826   6.640   8.834 -0.5831  0.7765 -0.1229
21868SOL    HW166182   4.818   6.552   8.797 -2.5361 -0.0229  1.9963
21868SOL    HW266183   4.810   6.699   8.760  0.1800 -0.6051 -1.4557
21869SOL     OW66184   8.865   0.822   8.086  0.0686 -0.1086 -0.0992
21869SOL    HW166185   8.897   0.874   8.159 -0.0136 -0.1763 -0.0138
21869SOL    HW266186   8.939   0.767   8.061  0.8410  1.5544 -1.5924
21870SOL     OW66187   1.494   6.932   3.848 -0.8500 -0.1453 -0.5654
21870SOL    HW166188   1.416   6.913   3.797 -1.5601 -0.7294  0.6950
21870SOL    HW266189   1.554   6.861   3.828 -1.8150 -1.3788  0.7571
21871SOL     OW66190   7.441   9.521   1.380 -0.0810  0.0359 -0.2699
21871SOL    HW166191   7.507   9.555   1.320  1.1989 -1.3917  0.2791
21871SOL    HW266192   7.430   9.429   1.356 -0.3002 -0.2953  0.9994
21872SOL     OW66193   2.457   6.311   6.327 -0.1245 -0.1528  0.4452
21872SOL    HW166194   2.388   6.247   6.339 -0.9492  0.6954  0.3130
21872SOL    HW266195   2.450   6.369   6.403  0.2837  0.0819  0.3110
21873SOL     OW66196   6.637   3.980   5.384  0.4544  0.3138  0.0547
21873SOL    HW166197   6.707   3.956   5.445  0.3111 -1.0221 -0.2736
21873SOL    HW266198   6.584   4.044   5.431  0.6125 -0.3510  1.1555
21874SOL     OW66199   1.465   6.034   7.213 -0.5594 -0.3563  0.4413
21874SOL    HW166200   1.468   5.965   7.279 -0.9519 -2.4668 -1.6511
21874SOL    HW266201   1.556   6.063   7.203 -0.3679 -0.6787  1.1778
21875SOL     OW66202   5.795   7.311   4.321  0.5005 -0.4663  0.5358
21875SOL    HW166203   5.718   7.320   4.377 -0.0917 -0.5996 -0.2482
21875SOL    HW266204   5.853   7.382   4.348  0.8785 -1.3873  2.3163
21876SOL     OW66205   3.122   6.675   3.744 -0.0467 -0.3473 -0.4681
21876SOL    HW166206   3.027   6.677   3.727  0.1201 -1.1150 -1.5925
21876SOL    HW266207   3.137   6.589   3.782 -0.2624  0.9806  2.9261
21877SOL     OW66208   6.381   2.277   6.510 -0.8320  0.0424  0.0443
21877SOL    HW166209   6.315   2.343   6.492  0.5203  1.3943 -0.0904
21877SOL    HW266210   6.455   2.300   6.454 -0.2320 -1.4638  0.1488
21878SOL     OW66211   5.780   4.604   0.313  0.1509 -0.5308  0.3433
21878SOL    HW166212   5.811   4.517   0.288  2.1212 -0.3833  2.0023
21878SOL    HW266213   5.693   4.589   0.351  0.9194 -1.9831  1.6376
21879SOL     OW66214   4.786   2.451   8.860 -0.1568 -0.0337  0.1543
21879SOL    HW166215   4.881   2.449   8.874 -0.0607  0.6927 -0.3570
21879SOL    HW266216   4.763   2.543   8.865 -0.7760 -0.1659 -0.1813
21880SOL     OW66217   8.709   5.849   9.211  0.0876 -0.0733 -0.1045
21880SOL    HW166218   8.699   5.753   9.211 -0.2045 -0.0417 -0.2285
21880SOL    HW266219   8.770   5.866   9.283 -0.8409 -0.2521  0.7382
21881SOL     OW66220   1.321   8.970   7.393 -0.5379 -0.3949 -0.4349
21881SOL    HW166221   1.318   9.051   7.443 -2.1870  0.8538 -2.3987
21881SOL    HW266222   1.233   8.933   7.402 -0.0372 -1.5647 -0.2146
21882SOL     OW66223   2.967   0.397   2.845  0.2435 -0.0705 -0.3168
21882SOL    HW166224   2.991   0.372   2.756 -0.9775 -1.7510 -0.2141
21882SOL    HW266225   2.937   0.487   2.838 -0.1390 -0.2868 -1.6724
21883SOL     OW66226   7.876   2.823   2.021  0.1071 -0.3045 -1.0209
21883SOL    HW166227   7.914   2.891   2.076  1.3700 -1.6283 -0.1985
21883SOL    HW266228   7.825   2.871   1.955  0.2859  1.3825  0.0154
21884SOL     OW66229   5.375   6.656   0.735  0.3501 -0.0249  0.7229
21884SOL    HW166230   5.281   6.668   0.742 -0.0220 -2.3696  0.3921
21884SOL    HW266231   5.401   6.715   0.663 -0.6947  1.2060  1.3129
21885SOL     OW66232   1.632   8.793   5.374  0.0949 -0.0778 -0.1415
21885SOL    HW166233   1.723   8.814   5.352 -0.0448  1.1762  0.3657
21885SOL    HW266234   1.592   8.878   5.395 -0.7384 -0.7923  1.3156
21886SOL     OW66235   7.788   3.023   2.883  0.0911 -0.2833 -0.0137
21886SOL    HW166236   7.736   3.021   2.802 -0.3898 -0.6645  0.3017
21886SOL    HW266237   7.841   3.102   2.874  1.5188 -1.3364 -1.6054
21887SOL     OW66238   6.295   1.707   8.553 -0.4792  0.3945  0.7425
21887SOL    HW166239   6.365   1.652   8.588  0.1130 -1.2156 -2.5861
21887SOL    HW266240   6.220   1.648   8.546 -0.8317  0.8965  0.1804
21888SOL     OW66241   0.664   3.605   6.321 -0.0624 -0.7549  0.1243
21888SOL    HW166242   0.699   3.656   6.249  0.3895 -0.3989  0.5812
21888SOL    HW266243   0.740   3.557   6.355 -0.4091 -1.4572 -0.0775
21889SOL     OW66244   5.025   9.598   8.930 -0.3454 -0.3439  0.5319
21889SOL    HW166245   4.980   9.656   8.992 -0.2414  0.4206 -0.0971
21889SOL    HW266246   4.971   9.518   8.929 -2.8851  1.2304 -1.6458
21890SOL     OW66247   9.464   3.578   8.998 -0.2984  0.0016  0.0268
21890SOL    HW166248   9.493   3.504   9.051  1.6315 -0.0012 -0.9559
21890SOL    HW266249   9.483   3.553   8.908  0.2458  1.6076 -0.3454
21891SOL     OW66250   8.762   9.159   6.500  0.1889 -0.1310  0.3576
21891SOL    HW166251   8.798   9.209   6.426  1.2242  0.2304  1.0722
21891SOL    HW266252   8.763   9.068   6.470 -1.5273  0.2181 -0.8854
21892SOL     OW66253   2.250   3.762   3.431  0.8773  0.4081  0.0089
21892SOL    HW166254   2.204   3.776   3.513  1.6456  3.2511  0.0569
21892SOL    HW266255   2.262   3.667   3.426 -2.5202 -0.2251  1.2712
21893SOL     OW66256   4.052   5.326   3.324 -0.2267 -0.4380 -0.2552
21893SOL    HW166257   4.147   5.309   3.319 -0.0030  0.8936 -0.7661
21893SOL    HW266258   4.030   5.306   3.415  0.5054 -0.8986 -0.1640
21894SOL     OW66259   0.179   7.881   7.823 -0.1326 -0.3274  0.2241
21894SOL    HW166260   0.224   7.798   7.806  0.2167 -0.0697 -0.0963
21894SOL    HW266261   0.162   7.917   7.736 -0.7170 -0.2883  0.3459
21895SOL     OW66262   1.368   8.341   5.341  1.0618  0.3237 -0.3379
21895SOL    HW166263   1.347   8.249   5.328 -0.9032  0.9415 -1.9130
21895SOL    HW266264   1.371   8.378   5.253  1.5785  1.8358  0.2814
21896SOL     OW66265   6.626   8.915   4.456  0.4270 -0.0078  0.1516
21896SOL    HW166266   6.684   8.907   4.531  3.3465  1.4750 -1.7921
21896SOL    HW266267   6.613   8.825   4.426  0.0993 -0.5185  1.7381
21897SOL     OW66268   3.427   2.588   4.225  0.1258 -0.3996 -0.0162
21897SOL    HW166269   3.473   2.546   4.153  1.2966 -0.0101  0.4826
21897SOL    HW266270   3.485   2.658   4.254  0.4003 -1.4681  2.2652
21898SOL     OW66271   2.465   2.865   1.768  0.0648 -0.4055  0.0495
21898SOL    HW166272   2.501   2.886   1.854  0.8399  0.0810 -0.3854
21898SOL    HW266273   2.542   2.851   1.712 -0.4181 -1.7818 -0.3232
21899SOL     OW66274   1.774   5.510   1.917  0.2438  0.0805 -0.2562
21899SOL    HW166275   1.715   5.439   1.892  0.4330 -0.4488  0.7180
21899SOL    HW266276   1.762   5.519   2.012  0.7380  0.8747 -0.2561
21900SOL     OW66277   9.170   7.257   5.317 -0.5490  0.0948  0.5755
21900SOL    HW166278   9.254   7.214   5.302 -0.1929  1.2490 -1.0641
21900SOL    HW266279   9.171   7.333   5.258 -2.2765  0.7783  1.3458
21901SOL     OW66280   4.584   3.067   7.861 -0.5042  0.2257 -0.4742
21901SOL    HW166281   4.583   3.161   7.841  1.1728  0.1312 -1.0787
21901SOL    HW266282   4.495   3.049   7.891 -0.7934  2.0575 -0.1119
21902SOL     OW66283   7.536   1.564   4.014  0.1077 -0.5782 -0.0738
21902SOL    HW166284   7.522   1.551   4.108 -0.1242  0.2967  0.0147
21902SOL    HW266285   7.610   1.624   4.008  0.5858 -1.1920 -0.4686
21903SOL     OW66286   6.345   7.428   0.662  0.6006  0.0153 -0.1357
21903SOL    HW166287   6.348   7.420   0.567  0.5061  0.5161 -0.1832
21903SOL    HW266288   6.389   7.511   0.681  0.9812 -0.2778  0.2887
21904SOL     OW66289   6.152   8.834   8.894  0.4262 -0.2788  0.1441
21904SOL    HW166290   6.186   8.816   8.807  1.6288 -0.0051  0.5417
21904SOL    HW266291   6.097   8.759   8.914  3.3269 -2.3952  0.7532
21905SOL     OW66292   4.464   5.433   5.682 -0.3025  0.0773 -0.3942
21905SOL    HW166293   4.423   5.520   5.680 -0.2499  0.1251  0.4692
21905SOL    HW266294   4.491   5.418   5.591 -0.4148  0.9145 -0.5772
21906SOL     OW66295   1.867   1.788   6.525  0.0152 -0.4298  0.1519
21906SOL    HW166296   1.959   1.797   6.551 -0.2215  0.2804  0.7924
21906SOL    HW266297   1.829   1.731   6.592  0.3192 -1.9939 -0.9705
21907SOL     OW66298   1.839   0.648   4.616 -0.1168  0.2385  0.0870
21907SOL    HW166299   1.874   0.563   4.589 -1.9634 -0.7277  0.5329
21907SOL    HW266300   1.845   0.702   4.537  1.4392 -0.1538 -0.1028
21908SOL     OW66301   3.278   8.820   2.667  0.5049 -0.5116  0.1306
21908SOL    HW166302   3.298   8.811   2.574  0.7217 -1.2573  0.2440
21908SOL    HW266303   3.351   8.869   2.703  1.6807 -2.3315  0.3509
21909SOL     OW66304   0.117   3.576   9.097  0.0814  0.3805  0.2866
21909SOL    HW166305   0.140   3.667   9.079  0.8435 -0.2363 -2.3176
21909SOL    HW266306   0.059   3.551   9.025  3.1862 -2.3018 -1.5652
21910SOL     OW66307   8.991   0.357   8.588  0.2712 -0.1617  0.0696
21910SOL    HW166308   8.924   0.382   8.524  0.7670  1.6649  0.2118
21910SOL    HW266309   9.053   0.305   8.537 -0.6941 -0.9990 -0.2995
21911SOL     OW66310   0.878   2.806   1.541  0.0444  0.6053 -0.3950
21911SOL    HW166311   0.936   2.874   1.506  1.9528 -1.1794 -0.9533
21911SOL    HW266312   0.790   2.840   1.528  0.9199  3.1615 -0.1526
21912SOL     OW66313   4.094   3.814   6.077  0.1289  0.0367 -0.3242
21912SOL    HW166314   4.142   3.783   6.000  0.2042  1.5413 -0.9198
21912SOL    HW266315   4.005   3.781   6.065  0.3150 -0.3283 -0.6985
21913SOL     OW66316   4.532   7.869   0.240 -0.0476 -0.1029  0.1432
21913SOL    HW166317   4.581   7.942   0.278  2.0794 -0.9926 -0.7327
21913SOL    HW266318   4.503   7.817   0.315 -1.0274  1.2569  0.7416
21914SOL     OW66319   4.955   8.194   0.154  0.0899  0.1409 -0.0594
21914SOL    HW166320   5.034   8.248   0.165 -0.1743  0.7269 -0.9582
21914SOL    HW266321   4.977   8.133   0.083 -0.2570  0.2796 -0.2871
21915SOL     OW66322   2.901   9.048   9.354 -0.2130  0.2115 -0.1385
21915SOL    HW166323   2.851   9.121   9.317 -0.6663  0.7681  1.4942
21915SOL    HW266324   2.905   9.067   9.448  1.8159 -0.5900 -0.0160
21916SOL     OW66325   3.131   3.852   5.967  0.2065 -0.2976 -0.0367
21916SOL    HW166326   3.056   3.810   6.009  0.3259 -0.0448  0.4361
21916SOL    HW266327   3.196   3.862   6.037  0.6684 -0.4771 -0.4320
21917SOL     OW66328   6.821   5.438   4.844 -0.5999 -0.3816 -0.6569
21917SOL    HW166329   6.732   5.469   4.826 -0.6476 -0.3306 -0.3323
21917SOL    HW266330   6.878   5.507   4.811 -0.6932 -0.1672 -0.3638
21918SOL     OW66331   5.762   9.652   9.345  0.0420 -0.7354  0.2773
21918SOL    HW166332   5.836   9.696   9.303  0.1146  0.3297  1.4525
21918SOL    HW266333   5.797   9.567   9.372  1.1642  0.1315  1.6823
21919SOL     OW66334   7.996   1.341   2.074  0.2172  0.0990 -0.2050
21919SOL    HW166335   8.056   1.375   2.141  2.2072 -1.3329 -1.1293
21919SOL    HW266336   7.923   1.304   2.123 -0.5622  2.9144  0.9251
21920SOL     OW66337   4.138   0.073   4.117 -0.0677  0.2919 -0.0412
21920SOL    HW166338   4.218   0.125   4.107 -0.1347  0.1868 -1.2584
21920SOL    HW266339   4.141   0.041   4.207  1.4545 -0.0292 -0.1860
21921SOL     OW66340   7.591   3.038   9.493 -0.1847 -0.3358 -0.9504
21921SOL    HW166341   7.505   2.998   9.509  0.2931 -0.6042  1.1139
21921SOL    HW266342   7.571   3.130   9.478 -0.7036  0.0472  1.7290
21922SOL     OW66343   8.544   4.085   2.398  0.3171  0.2518  0.4145
21922SOL    HW166344   8.537   4.047   2.311  1.9354  0.6725  0.0792
21922SOL    HW266345   8.531   4.179   2.385  0.5668  0.3165  0.6334
21923SOL     OW66346   0.308   0.429   3.803  0.1701  0.5362  0.8161
21923SOL    HW166347   0.281   0.442   3.712  1.3521 -1.8894  0.0417
21923SOL    HW266348   0.258   0.494   3.852 -1.1598  1.3372 -1.4439
21924SOL     OW66349   7.281   7.166   1.540  0.5356 -0.1010  0.2619
21924SOL    HW166350   7.235   7.083   1.526  0.8680 -0.3904  0.8455
21924SOL    HW266351   7.227   7.231   1.495  0.5066 -0.6932 -0.5869
21925SOL     OW66352   8.342   3.353   8.303 -0.1070  0.2893 -0.2012
21925SOL    HW166353   8.407   3.336   8.235 -1.5565  0.7991 -1.7925
21925SOL    HW266354   8.362   3.442   8.333 -0.3287  0.6271 -1.0188
21926SOL     OW66355   6.937   3.302   6.479 -0.1276  0.3680 -0.2069
21926SOL    HW166356   6.924   3.208   6.472 -0.4217  0.4099 -0.2243
21926SOL    HW266357   6.928   3.321   6.573  2.6102 -0.0114  0.2141
21927SOL     OW66358   3.509   0.056   5.157 -0.5635 -0.2908 -0.6733
21927SOL    HW166359   3.451  -0.011   5.121 -0.7604  0.3460 -1.5629
21927SOL    HW266360   3.453   0.133   5.168  0.5562  1.0962 -3.7740
21928SOL     OW66361   0.418   9.290   5.219  0.0831 -0.1227 -0.2895
21928SOL    HW166362   0.401   9.368   5.272  1.1318  0.1570 -0.3575
21928SOL    HW266363   0.434   9.324   5.131  0.3563 -0.4321 -0.3592
21929SOL     OW66364   3.210   5.807   7.097 -0.0088  0.0871  0.6275
21929SOL    HW166365   3.151   5.851   7.035  0.2336  0.5370  0.7121
21929SOL    HW266366   3.291   5.792   7.048 -0.6029 -1.7064  0.0997
21930SOL     OW66367   3.547   4.721   3.882 -0.0771  0.7117  0.2090
21930SOL    HW166368   3.519   4.647   3.828 -1.2753  1.6753 -0.5412
21930SOL    HW266369   3.548   4.687   3.971 -5.1751  0.7987  0.6361
21931SOL     OW66370   5.152   9.770   6.963  0.1265  0.4253 -0.0153
21931SOL    HW166371   5.144   9.717   7.043  0.0828  0.3809 -0.0492
21931SOL    HW266372   5.136   9.860   6.992 -0.5541  0.3355 -0.0886
21932SOL     OW66373   2.525   3.462   2.693  0.3281 -0.4562 -0.1902
21932SOL    HW166374   2.563   3.475   2.606  0.8622 -0.2800  0.0601
21932SOL    HW266375   2.589   3.407   2.739 -0.6062 -1.7141 -0.3483
21933SOL     OW66376   9.227   8.902   6.108  0.2301 -0.0923  0.3878
21933SOL    HW166377   9.236   8.843   6.033 -0.6077 -0.4233  0.5399
21933SOL    HW266378   9.299   8.878   6.167 -0.0372 -0.8889  0.3928
21934SOL     OW66379   0.266   0.567   0.649 -0.6171  0.5089  0.0114
21934SOL    HW166380   0.270   0.570   0.553  0.1787 -1.1567 -0.0309
21934SOL    HW266381   0.276   0.475   0.671 -0.2366  0.9316  1.7357
21935SOL     OW66382   7.485   1.163   1.044  0.2756  0.1175 -0.7593
21935SOL    HW166383   7.515   1.104   0.975 -0.6504 -1.8334  0.3994
21935SOL    HW266384   7.563   1.176   1.099  0.2397 -0.9916 -0.4108
21936SOL     OW66385   6.208   9.854   2.904  0.4189 -0.6331  0.2269
21936SOL    HW166386   6.259   9.842   2.824 -0.1172  0.4578 -0.2969
21936SOL    HW266387   6.261   9.911   2.959 -0.6555  1.4608 -0.7883
21937SOL     OW66388   2.259   4.334   4.827 -0.6408  0.5840  0.0004
21937SOL    HW166389   2.237   4.314   4.736  1.1858 -0.0564 -0.3367
21937SOL    HW266390   2.349   4.304   4.838  0.0185  2.7829  1.3572
21938SOL     OW66391   3.034   6.109   8.436 -0.1639  0.1812 -0.3524
21938SOL    HW166392   3.004   6.072   8.519 -0.3603  0.4850 -0.2827
21938SOL    HW266393   3.063   6.198   8.459 -0.9397  0.5427 -0.7342
21939SOL     OW66394   7.507   7.440   8.745 -0.4555 -0.5488  0.0858
21939SOL    HW166395   7.454   7.518   8.733  0.9615  0.3258 -0.7348
21939SOL    HW266396   7.577   7.448   8.679 -0.5394 -2.7273 -0.3443
21940SOL     OW66397   3.520   6.996   3.733  0.6645  0.3318  0.4657
21940SOL    HW166398   3.493   6.946   3.657  2.9297 -0.8555  0.3655
21940SOL    HW266399   3.502   6.939   3.808  0.2151  0.7296  0.6706
21941SOL     OW66400   1.423   4.153   8.608 -0.8135  0.0530  0.6833
21941SOL    HW166401   1.506   4.111   8.587 -1.7436 -0.9936 -1.1820
21941SOL    HW266402   1.439   4.199   8.690  2.0858  1.2914 -0.4335
21942SOL     OW66403   4.176   6.748   3.859 -0.7172 -0.0357  0.1221
21942SOL    HW166404   4.181   6.829   3.807 -1.5046 -0.3428 -0.4550
21942SOL    HW266405   4.181   6.678   3.794 -2.0714 -0.4260  0.4130
21943SOL     OW66406   0.938   5.582   5.681 -0.0678  0.3301  0.3205
21943SOL    HW166407   0.859   5.633   5.699 -1.4526 -0.3357 -3.0068
21943SOL    HW266408   0.924   5.498   5.723 -1.5421 -0.0188 -0.7941
21944SOL     OW66409   0.943   9.505   7.703  0.0595 -0.0475  0.1732
21944SOL    HW166410   0.977   9.555   7.629 -0.2975 -0.9605 -0.6252
21944SOL    HW266411   0.854   9.540   7.717  0.2002  0.2605  0.3019
21945SOL     OW66412   4.258   8.219   3.665 -0.0390 -0.3573  0.4942
21945SOL    HW166413   4.174   8.174   3.661 -0.8296  1.1309 -1.0296
21945SOL    HW266414   4.261   8.255   3.754 -1.2546 -0.0147  0.4143
21946SOL     OW66415   4.799   5.472   6.186 -0.0743  0.7197  0.0097
21946SOL    HW166416   4.761   5.401   6.134 -0.9833  0.7498  0.6034
21946SOL    HW266417   4.893   5.458   6.182 -0.2227 -0.2098 -0.3288
21947SOL     OW66418   4.407   1.444   5.627  0.1701  0.3926 -0.4429
21947SOL    HW166419   4.390   1.361   5.584 -3.4158  1.1897 -0.8519
21947SOL    HW266420   4.465   1.491   5.567  1.0296 -1.2015 -0.8965
21948SOL     OW66421   1.917   8.333   4.694 -0.0773  0.0954 -0.4677
21948SOL    HW166422   1.839   8.309   4.643  0.0425 -0.2508 -0.4894
21948SOL    HW266423   1.910   8.282   4.774 -0.3329  0.7340 -0.0689
21949SOL     OW66424   6.187   1.158   3.101 -0.2802 -0.4026 -0.0711
21949SOL    HW166425   6.110   1.114   3.137  0.3404 -0.4261  1.2953
21949SOL    HW266426   6.210   1.224   3.167  0.6600 -0.1574 -0.6248
21950SOL     OW66427   2.000   9.980   2.791 -0.7394 -0.0005 -0.0245
21950SOL    HW166428   1.956   9.919   2.850 -2.7134  0.0365 -1.3829
21950SOL    HW266429   2.093   9.962   2.803 -1.2276 -3.4772 -0.5498
21951SOL     OW66430   2.596   5.948   1.643  0.0313  0.4318  0.1768
21951SOL    HW166431   2.579   6.031   1.689 -1.3885  0.1524  0.2116
21951SOL    HW266432   2.633   5.974   1.559 -1.2343  1.1792 -0.1818
21952SOL     OW66433   0.608   0.086   5.316  0.2691 -0.0936  0.1899
21952SOL    HW166434   0.672   0.138   5.266 -0.8443  2.1207  0.9390
21952SOL    HW266435   0.642   0.087   5.406 -0.1389 -0.0399  0.3434
21953SOL     OW66436   4.482   6.704   3.583  0.4646 -0.8558  0.3160
21953SOL    HW166437   4.508   6.781   3.533 -0.4758 -1.0896 -0.5747
21953SOL    HW266438   4.454   6.641   3.517  1.4415 -2.0714  1.0128
21954SOL     OW66439   3.290   3.289   7.226 -0.3890 -0.0605 -0.1754
21954SOL    HW166440   3.207   3.287   7.179 -0.4110  0.4006 -0.1593
21954SOL    HW266441   3.356   3.292   7.157 -0.3622 -0.8738 -0.1974
21955SOL     OW66442   3.962   3.165   5.589  0.0805 -0.2150  0.2251
21955SOL    HW166443   3.921   3.191   5.672 -2.5496 -1.5341 -0.5518
21955SOL    HW266444   3.908   3.207   5.522  2.0358  0.6569 -0.9109
21956SOL     OW66445   7.903   1.852   2.111  0.5861  0.2307 -0.0085
21956SOL    HW166446   7.946   1.859   2.025  1.3808  3.2137  0.5097
21956SOL    HW266447   7.814   1.822   2.091  1.4203 -1.3436 -1.6012
21957SOL     OW66448   0.075   0.137   5.373  0.1755  0.3159  0.4945
21957SOL    HW166449   0.077   0.164   5.281  2.0345  0.1631  0.4488
21957SOL    HW266450   0.153   0.178   5.411  0.1035 -0.6231  1.7045
21958SOL     OW66451   6.063   1.302   5.486 -0.1528 -0.2242 -0.3850
21958SOL    HW166452   6.106   1.253   5.556  0.1239 -0.3792 -0.6596
21958SOL    HW266453   6.062   1.393   5.517  1.9271  0.0891 -1.0892
21959SOL     OW66454   0.968   9.320   4.002  0.3623  0.1596 -0.0324
21959SOL    HW166455   0.912   9.393   3.976 -2.3253 -1.7277 -0.0237
21959SOL    HW266456   0.985   9.334   4.095  2.1197  2.0571 -0.5747
21960SOL     OW66457   7.458   7.210   2.316 -0.6490  0.2046 -0.3389
21960SOL    HW166458   7.522   7.272   2.351 -2.0922  0.0211  3.0682
21960SOL    HW266459   7.508   7.130   2.301  0.6675  1.2681 -1.9740
21961SOL     OW66460   4.290   6.795   9.144 -0.1671  0.2272 -0.5819
21961SOL    HW166461   4.219   6.815   9.205 -0.2096 -1.0069 -0.2066
21961SOL    HW266462   4.361   6.762   9.199  0.9976  2.0994 -0.8738
21962SOL     OW66463   5.058   6.779   1.273  0.5194  0.5310  0.7122
21962SOL    HW166464   5.133   6.832   1.244  0.7502  1.8342  3.4121
21962SOL    HW266465   5.095   6.719   1.337 -0.0758 -1.7931 -1.0201
21963SOL     OW66466   9.510   2.316   8.251 -0.1689  0.2121  0.3014
21963SOL    HW166467   9.493   2.248   8.185 -0.2369 -0.6255  1.1595
21963SOL    HW266468   9.424   2.356   8.266  0.0847  1.4376 -1.1660
21964SOL     OW66469   4.217   6.962   2.366 -0.4885 -0.2260 -0.1104
21964SOL    HW166470   4.280   6.994   2.301  0.3074 -0.8915  0.3061
21964SOL    HW266471   4.253   6.991   2.450 -1.6591  0.8774  0.0342
21965SOL     OW66472   6.045   4.600   0.145  0.3921 -0.3234  0.5203
21965SOL    HW166473   6.073   4.633   0.059  1.4076 -1.0266  0.5600
21965SOL    HW266474   5.958   4.637   0.158  0.0415 -0.5410 -1.0007
21966SOL     OW66475   4.218   8.781   8.118 -0.0225 -0.3083 -1.2380
21966SOL    HW166476   4.236   8.688   8.114 -0.8745 -0.5928  0.4872
21966SOL    HW266477   4.135   8.788   8.165 -0.0596  1.3092 -1.4590
21967SOL     OW66478   2.512   5.913   5.224 -0.4239 -0.6448  0.0257
21967SOL    HW166479   2.483   5.998   5.256 -0.7899 -1.1560  1.1157
21967SOL    HW266480   2.585   5.889   5.280  1.3515  0.0329 -1.8613
21968SOL     OW66481   4.295   4.311   9.001  0.5515 -0.8213  0.1906
21968SOL    HW166482   4.201   4.326   8.992  0.5789 -1.2187 -0.9110
21968SOL    HW266483   4.324   4.381   9.060 -0.2921 -0.1787 -0.1220
21969SOL     OW66484   4.035   4.766   1.623 -0.1049 -0.3817 -0.0629
21969SOL    HW166485   4.103   4.728   1.567  0.0760  0.4342 -0.4137
21969SOL    HW266486   4.053   4.731   1.710 -0.2234 -1.4514 -0.4594
21970SOL     OW66487   1.147   3.793   8.978  0.6530 -0.1905  0.1250
21970SOL    HW166488   1.169   3.885   8.992  2.2593 -0.5868  0.4220
21970SOL    HW266489   1.158   3.780   8.884 -1.2092  0.2916 -0.1925
21971SOL     OW66490   6.089   8.791   5.627 -0.4108  0.2201 -0.4554
21971SOL    HW166491   6.027   8.773   5.697 -0.8919 -0.2003 -0.9807
21971SOL    HW266492   6.066   8.730   5.557  0.7576 -0.1210 -0.5654
21972SOL     OW66493   3.777   7.832   8.490 -0.3940  0.3030  0.8793
21972SOL    HW166494   3.700   7.861   8.538 -1.1970 -0.1920 -0.0689
21972SOL    HW266495   3.753   7.745   8.456  0.3712  0.3637  0.1429
21973SOL     OW66496   4.528   1.576   4.562 -0.3159  0.5809  0.9061
21973SOL    HW166497   4.556   1.517   4.632 -0.4734  0.4088  0.8253
21973SOL    HW266498   4.569   1.541   4.483 -0.9559  0.1780  0.7443
21974SOL     OW66499   4.885   7.439   1.307  0.4762 -0.0064  0.1347
21974SOL    HW166500   4.857   7.438   1.215  0.4440 -1.0628  0.1499
21974SOL    HW266501   4.886   7.347   1.333  0.7928  0.2627  1.1057
21975SOL     OW66502   4.699   7.119   4.727 -0.2816 -1.0713 -0.5759
21975SOL    HW166503   4.639   7.094   4.656 -2.8573  3.2631 -0.2961
21975SOL    HW266504   4.765   7.173   4.684 -1.6793  1.3185  0.0577
21976SOL     OW66505   5.990   3.115   7.871  0.1468 -0.3490 -0.4402
21976SOL    HW166506   5.990   3.143   7.779  2.2736 -4.1147 -1.8399
21976SOL    HW266507   6.062   3.164   7.910 -1.3620  1.9954 -0.3882
21977SOL     OW66508   3.096   3.787   1.908  0.1278  0.2000 -0.4462
21977SOL    HW166509   3.063   3.741   1.985 -1.8687  0.5416 -1.0406
21977SOL    HW266510   3.116   3.718   1.845 -0.0956  0.0198 -0.3192
21978SOL     OW66511   4.013   4.694   9.494 -0.3707  0.1406 -0.1222
21978SOL    HW166512   3.941   4.752   9.518  0.1351  0.0444  1.7857
21978SOL    HW266513   3.993   4.611   9.537  0.5526 -0.0789 -0.0960
21979SOL     OW66514   5.359   8.523   1.026 -0.4495  0.2918 -0.1840
21979SOL    HW166515   5.304   8.472   0.966  3.7088 -3.0579 -1.6808
21979SOL    HW266516   5.420   8.569   0.969  0.1075  1.6439  1.4246
21980SOL     OW66517   5.393   9.789   1.153 -0.6053  0.2749  0.1533
21980SOL    HW166518   5.318   9.839   1.121  0.2187  1.5922  0.1834
21980SOL    HW266519   5.401   9.814   1.245 -0.6149 -0.4885  0.3679
21981SOL     OW66520   7.148   1.858   4.490 -0.5499  0.1208  0.6510
21981SOL    HW166521   7.122   1.944   4.459  0.6338  0.5248  0.7191
21981SOL    HW266522   7.116   1.854   4.580 -2.1574 -0.2290  0.0932
21982SOL     OW66523   0.690   7.429   9.445 -0.2102  0.1409  0.3426
21982SOL    HW166524   0.687   7.352   9.502  0.5505  0.8668  1.3955
21982SOL    HW266525   0.627   7.410   9.376 -1.2906 -0.6856  1.5160
21983SOL     OW66526   3.944   0.656   7.157 -0.7345  0.3798 -0.8642
21983SOL    HW166527   3.874   0.595   7.132  1.5829 -2.3275 -1.2994
21983SOL    HW266528   4.007   0.649   7.085  1.6837 -0.2020  1.2005
21984SOL     OW66529   7.273   9.524   0.616  0.4580  0.0104 -0.3058
21984SOL    HW166530   7.251   9.573   0.695  1.2645 -0.7555  0.4207
21984SOL    HW266531   7.307   9.590   0.556 -0.5957  0.6721 -0.1944
21985SOL     OW66532   1.034   7.674   3.976  0.0983  0.3537  0.3156
21985SOL    HW166533   1.113   7.627   3.952  0.6475  0.9538  0.9083
21985SOL    HW266534   1.064   7.742   4.037 -0.8745  0.5578  0.5821
21986SOL     OW66535   1.365   6.069   8.577 -0.3491  0.0689 -0.0313
21986SOL    HW166536   1.288   6.062   8.521  0.0841  0.9263 -0.7664
21986SOL    HW266537   1.406   5.983   8.572 -1.3318 -0.4413  0.4933
21987SOL     OW66538   5.863   7.360   3.647  0.0496  0.0526  0.1841
21987SOL    HW166539   5.821   7.359   3.733 -1.0359 -1.1020 -0.3274
21987SOL    HW266540   5.859   7.269   3.617 -0.0745  0.5194 -1.3039
21988SOL     OW66541   2.134   9.486   7.003 -0.5639  0.1190 -0.0905
21988SOL    HW166542   2.089   9.421   7.057 -1.1058 -0.5042 -1.2419
21988SOL    HW266543   2.087   9.484   6.920  0.1542  1.1500 -0.5363
21989SOL     OW66544   4.280   5.807   6.660  0.4385  0.7390  0.4042
21989SOL    HW166545   4.340   5.844   6.725  0.3087  0.6348  0.5826
21989SOL    HW266546   4.302   5.714   6.658 -1.5940  0.1173  2.5395
21990SOL     OW66547   5.126   8.889   0.947 -0.0097  0.3428  0.2424
21990SOL    HW166548   5.145   8.813   0.891  0.0590 -1.3209  2.3944
21990SOL    HW266549   5.209   8.906   0.992 -0.4213  0.7556  0.8484
21991SOL     OW66550   0.578   0.766   9.588 -0.1382 -0.0291 -0.6702
21991SOL    HW166551   0.631   0.841   9.559 -0.0149 -0.0560 -0.5125
21991SOL    HW266552   0.490   0.802   9.600  0.2885  0.5072  1.1805
21992SOL     OW66553   2.490   3.392   7.764  0.2183 -0.6496  0.3159
21992SOL    HW166554   2.547   3.418   7.692 -2.0470 -0.2442 -1.4727
21992SOL    HW266555   2.461   3.475   7.802 -0.8193 -0.7489 -0.2160
21993SOL     OW66556   2.135   7.203   6.045 -0.0848 -0.1906  0.1356
21993SOL    HW166557   2.186   7.276   6.010 -1.4808  0.8182  0.0894
21993SOL    HW266558   2.059   7.196   5.986  0.9828 -3.0411 -1.0902
21994SOL     OW66559   5.889   0.620   6.044 -0.4873 -0.1681 -0.0264
21994SOL    HW166560   5.845   0.705   6.051 -0.1179 -0.0228  0.6363
21994SOL    HW266561   5.924   0.604   6.132  1.7755  0.2609 -0.8029
21995SOL     OW66562   7.308   9.150   9.325 -0.4067 -0.3878 -0.1172
21995SOL    HW166563   7.312   9.162   9.231 -1.2050  1.4536  0.0480
21995SOL    HW266564   7.392   9.183   9.357 -0.8425  0.6774 -0.0454
21996SOL     OW66565   1.075   2.304   3.997 -0.4948  0.0672 -0.1398
21996SOL    HW166566   1.106   2.256   4.074  2.9728 -2.0001 -2.5336
21996SOL    HW266567   1.000   2.255   3.966  0.9827 -2.0158 -0.6504
21997SOL     OW66568   0.273   1.916   3.355  0.5301  0.5007 -0.7567
21997SOL    HW166569   0.339   1.879   3.295 -0.0049 -0.5045 -0.7488
21997SOL    HW266570   0.274   1.857   3.431  1.1788  1.7390  0.2423
21998SOL     OW66571   1.368   1.421   1.834 -0.3241  0.2840 -0.5133
21998SOL    HW166572   1.336   1.341   1.876  0.9001  0.3393  0.6195
21998SOL    HW266573   1.290   1.466   1.804 -1.1195 -0.7188 -0.0081
21999SOL     OW66574   2.048   0.422   9.802 -0.2025 -0.2113 -0.4410
21999SOL    HW166575   2.071   0.508   9.765  1.0569 -0.0118  0.7266
21999SOL    HW266576   2.033   0.367   9.725 -0.9173  1.0067 -1.2148
22000SOL     OW66577   3.245   5.222   6.221 -0.1291  0.1930 -0.0860
22000SOL    HW166578   3.313   5.171   6.264 -1.2989  0.6730  2.5246
22000SOL    HW266579   3.165   5.203   6.271 -1.8451  0.0808 -2.6716
22001SOL     OW66580   3.391   7.731   8.998 -0.2038  0.0973 -0.4374
22001SOL    HW166581   3.348   7.813   9.022 -0.2939 -0.3027  0.8514
22001SOL    HW266582   3.438   7.705   9.077 -0.8063 -1.4749 -0.5657
22002SOL     OW66583   6.668   9.168   6.669  1.0939 -0.2263  0.4720
22002SOL    HW166584   6.715   9.236   6.621  0.0204  1.1265  1.2293
22002SOL    HW266585   6.578   9.173   6.634  0.6074 -0.0820  1.6881
22003SOL     OW66586   0.631   5.359   2.403 -0.0392 -0.3561  0.3215
22003SOL    HW166587   0.537   5.367   2.419 -0.2284 -0.4068 -0.7049
22003SOL    HW266588   0.665   5.448   2.412 -0.2506 -0.2719  0.2779
22004SOL     OW66589   4.727   4.294   6.141 -0.2471 -0.0824 -0.2472
22004SOL    HW166590   4.754   4.236   6.070  1.7017 -0.5652  0.8167
22004SOL    HW266591   4.752   4.382   6.111  0.1174 -0.2251 -0.3569
22005SOL     OW66592   9.423   8.716   0.591  0.4620 -0.2574 -0.4369
22005SOL    HW166593   9.498   8.673   0.631  0.1454 -0.8712 -0.4859
22005SOL    HW266594   9.381   8.762   0.663 -0.2603 -1.5779  0.0211
22006SOL     OW66595   6.718   7.088   4.222  0.3342  0.4965  0.1728
22006SOL    HW166596   6.627   7.113   4.208  1.3054  3.9001 -0.9177
22006SOL    HW266597   6.762   7.106   4.139  2.5634  2.0864  1.5927
22007SOL     OW66598   2.595   2.308   6.560  0.6893  0.4922  0.2339
22007SOL    HW166599   2.655   2.237   6.536  0.1814  0.1395  0.0070
22007SOL    HW266600   2.517   2.293   6.507 -0.2238  0.0560  1.6549
22008SOL     OW66601   3.584   1.708   5.412 -0.6224  0.5918 -0.3358
22008SOL    HW166602   3.646   1.776   5.439  1.3134 -0.3444 -2.1692
22008SOL    HW266603   3.634   1.652   5.353 -3.0196 -0.7020 -1.2629
22009SOL     OW66604   1.683   8.282   2.127  0.2956  0.1183 -0.2427
22009SOL    HW166605   1.754   8.271   2.189  0.3494  2.3783  0.1740
22009SOL    HW266606   1.605   8.294   2.181 -0.0256 -0.0702 -0.6533
22010SOL     OW66607   1.006   4.026   4.709  0.3040  0.5303 -0.3765
22010SOL    HW166608   1.015   3.941   4.753 -0.4984  0.3229 -0.5991
22010SOL    HW266609   0.979   4.004   4.620 -2.6895  1.0428  0.2777
22011SOL     OW66610   2.586   6.911   9.140  0.7261 -0.5044 -0.3655
22011SOL    HW166611   2.561   6.850   9.210 -1.2735  1.7680  1.0675
22011SOL    HW266612   2.562   6.866   9.059  0.5087 -2.1097  0.5546
22012SOL     OW66613   7.357   6.509   3.809  0.3593 -0.4961 -0.2069
22012SOL    HW166614   7.420   6.437   3.805  0.4229 -0.4030 -1.3024
22012SOL    HW266615   7.398   6.581   3.761 -0.9263 -0.7464 -1.8065
22013SOL     OW66616   2.495   1.664   0.819  0.2497  0.3023  0.1460
22013SOL    HW166617   2.431   1.595   0.833  1.0180 -0.4791 -0.0944
22013SOL    HW266618   2.518   1.694   0.907  1.0046 -0.7856  0.3396
22014SOL     OW66619   7.692   3.750   0.378 -0.5064  0.2754 -0.3756
22014SOL    HW166620   7.604   3.720   0.401 -0.6817 -0.0838 -1.4648
22014SOL    HW266621   7.679   3.841   0.351 -0.5431  0.2141 -0.5619
22015SOL     OW66622   2.741   0.767   4.549  0.3801  0.1362 -0.1961
22015SOL    HW166623   2.654   0.776   4.509  0.1171 -1.0763  0.0676
22015SOL    HW266624   2.802   0.780   4.478 -0.0525 -0.4239 -0.6786
22016SOL     OW66625   2.952   3.540   4.988 -0.8167 -0.0641  1.0654
22016SOL    HW166626   2.934   3.633   4.975 -0.4393 -0.1179  0.0918
22016SOL    HW266627   2.963   3.531   5.083  0.2253  1.0890  1.0778
22017SOL     OW66628   5.666   8.529   1.036  0.3751 -0.1490  0.0619
22017SOL    HW166629   5.602   8.460   1.053  1.6412 -1.1482  1.0137
22017SOL    HW266630   5.631   8.606   1.081  0.3461 -0.9797  1.5322
22018SOL     OW66631   3.808   2.565   2.487 -0.3812  0.0272 -0.0645
22018SOL    HW166632   3.805   2.478   2.448 -0.2541  0.0570 -0.1444
22018SOL    HW266633   3.798   2.625   2.413 -0.1228  0.0845 -0.0564
22019SOL     OW66634   3.900   9.457   5.809  0.1567 -0.3643 -0.2297
22019SOL    HW166635   3.910   9.430   5.901 -0.2205  0.4830  0.0765
22019SOL    HW266636   3.877   9.550   5.815 -0.9046 -0.5526 -1.1467
22020SOL     OW66637   5.590   8.611   5.950 -0.2404  0.0966  0.1487
22020SOL    HW166638   5.656   8.614   6.019 -1.4913  0.9007  1.3927
22020SOL    HW266639   5.549   8.525   5.959 -0.4467  0.2257  0.4717
22021SOL     OW66640   9.179   4.149   0.757  0.6065 -0.2124 -0.2882
22021SOL    HW166641   9.086   4.162   0.776  0.7531 -0.2836  0.5419
22021SOL    HW266642   9.211   4.237   0.739 -0.0431 -0.4103 -2.7715
22022SOL     OW66643   5.155   9.884   2.163 -0.3511  0.1809 -0.1440
22022SOL    HW166644   5.176   9.843   2.247 -1.4795  0.2598  0.1957
22022SOL    HW266645   5.061   9.870   2.153 -0.3690  0.8609 -1.0227
22023SOL     OW66646   6.376   6.098   8.463 -0.5204 -0.4312  0.3931
22023SOL    HW166647   6.330   6.053   8.533  0.2311 -0.8187  0.6449
22023SOL    HW266648   6.468   6.090   8.485 -0.3623  1.5466  0.6369
22024SOL     OW66649   7.000   1.091   4.055  0.5612 -0.1894  0.1185
22024SOL    HW166650   6.943   1.016   4.042  0.2157  0.2107 -0.7223
22024SOL    HW266651   6.941   1.164   4.074  0.9198 -0.2138  1.4688
22025SOL     OW66652   5.713   5.743   9.658 -0.2239 -0.0874  0.2251
22025SOL    HW166653   5.761   5.662   9.641  0.6388  0.7591 -1.6819
22025SOL    HW266654   5.624   5.725   9.627  0.0032 -0.2598 -0.3326
22026SOL     OW66655   3.654   7.067   7.489 -0.1079 -0.7991 -0.2477
22026SOL    HW166656   3.609   7.100   7.566 -0.5251 -0.8821 -0.4528
22026SOL    HW266657   3.745   7.093   7.501 -0.7890  2.7524 -1.6322
22027SOL     OW66658   7.258   9.941   3.024 -0.1237  0.1143  0.0205
22027SOL    HW166659   7.319   9.930   2.952 -0.8524 -0.3964 -0.5318
22027SOL    HW266660   7.313   9.948   3.102  0.6158 -1.5002 -0.3147
22028SOL     OW66661   9.629   0.915   1.261  0.2803 -0.4745 -0.1535
22028SOL    HW166662   9.636   0.872   1.347  2.6867 -1.0996 -0.5819
22028SOL    HW266663   9.633   0.843   1.199 -2.9085 -0.1755 -0.8885
22029SOL     OW66664   5.379   8.523   0.570  0.2615  0.2595  0.0682
22029SOL    HW166665   5.336   8.474   0.500  2.3635 -0.6727 -0.6436
22029SOL    HW266666   5.432   8.588   0.524 -0.3281  1.3813  0.9258
22030SOL     OW66667   5.698   1.005   9.330 -0.1068  0.3602  0.3229
22030SOL    HW166668   5.614   0.992   9.374 -0.3556 -0.1163 -0.2773
22030SOL    HW266669   5.733   0.916   9.318  0.6958  0.5757  0.9724
22031SOL     OW66670   4.789   0.373   4.796 -0.3312 -0.0925  0.3050
22031SOL    HW166671   4.861   0.373   4.733 -1.4513  0.2038 -1.0393
22031SOL    HW266672   4.729   0.305   4.764 -0.5244 -0.5353  1.5603
22032SOL     OW66673   1.488   0.493   8.376  0.1461  0.5848  0.0819
22032SOL    HW166674   1.523   0.454   8.455 -0.1237  1.1251  0.4718
22032SOL    HW266675   1.520   0.437   8.305  1.5335  0.8918  0.4470
22033SOL     OW66676   8.178   4.099   5.065 -0.1369 -0.1054 -0.0840
22033SOL    HW166677   8.268   4.080   5.092 -0.2728 -2.0470 -0.8804
22033SOL    HW266678   8.132   4.118   5.147  0.9274  0.6762  0.3520
22034SOL     OW66679   4.217   5.088   9.775 -0.2883 -0.0109  0.4853
22034SOL    HW166680   4.154   5.160   9.766 -0.1871 -0.0672 -1.0900
22034SOL    HW266681   4.179   5.017   9.724  0.8676 -0.1561 -0.2122
22035SOL     OW66682   0.791   1.449   2.126 -0.5418 -0.3471 -0.6335
22035SOL    HW166683   0.784   1.501   2.045 -0.7469 -0.6247 -0.7985
22035SOL    HW266684   0.712   1.472   2.175 -0.0294  0.4226 -0.1443
22036SOL     OW66685   5.112   2.899   1.336  0.3582 -0.0494 -0.0581
22036SOL    HW166686   5.039   2.959   1.347 -0.2506 -0.7963  0.0724
22036SOL    HW266687   5.072   2.812   1.338  1.3745 -0.5239  1.1507
22037SOL     OW66688   0.081   2.747   3.154  0.1351 -0.6821  0.6313
22037SOL    HW166689   0.131   2.739   3.236  1.5090  1.5069  0.0916
22037SOL    HW266690  -0.003   2.783   3.181  0.2132 -0.8898  1.1734
22038SOL     OW66691   6.882   0.506   1.694  0.0412  0.2483 -0.5934
22038SOL    HW166692   6.837   0.555   1.625 -2.1097 -2.8953 -1.6322
22038SOL    HW266693   6.919   0.430   1.649  3.4683  0.8487  0.8924
22039SOL     OW66694   9.156   3.173   9.448  0.3917 -0.3818  0.0020
22039SOL    HW166695   9.198   3.224   9.379 -1.7254 -0.5482 -1.4936
22039SOL    HW266696   9.105   3.107   9.402 -1.7351 -0.0096  1.6387
22040SOL     OW66697   7.366   6.284   1.251 -0.1254 -0.4369 -0.6193
22040SOL    HW166698   7.275   6.308   1.230  0.2198  1.2905 -0.2978
22040SOL    HW266699   7.378   6.199   1.210 -2.1988 -1.1759  0.1587
22041SOL     OW66700   8.122   2.616   3.041  0.2606  1.1910 -0.0141
22041SOL    HW166701   8.040   2.641   2.998 -0.0183  0.8563  0.3142
22041SOL    HW266702   8.124   2.669   3.121 -0.9213 -0.6302  1.2964
22042SOL     OW66703   9.786   5.297   3.117  0.3325 -0.4734 -0.0861
22042SOL    HW166704   9.770   5.304   3.211  0.9405  0.2771 -0.0337
22042SOL    HW266705   9.833   5.214   3.108  2.7554  0.7361  0.6416
22043SOL     OW66706   6.106   4.490   4.804  0.1241  0.0779  0.2418
22043SOL    HW166707   6.159   4.566   4.829 -1.4434  1.0883  0.6821
22043SOL    HW266708   6.161   4.414   4.821  2.1808  1.1278 -1.3002
22044SOL     OW66709   6.339   1.600   7.731  0.3478  0.2748 -0.2926
22044SOL    HW166710   6.309   1.538   7.799  0.3756  0.4004 -0.1650
22044SOL    HW266711   6.404   1.551   7.681 -0.6078 -0.2624 -1.0456
22045SOL     OW66712   1.897   3.981   3.745 -0.2704  0.1098 -0.4519
22045SOL    HW166713   1.873   4.072   3.733 -0.9376 -0.1344 -1.0396
22045SOL    HW266714   1.916   3.949   3.657  2.6399  0.3774 -0.0258
22046SOL     OW66715   7.754   0.615   3.682 -0.7728 -1.3274 -0.1997
22046SOL    HW166716   7.711   0.561   3.616  0.4338 -1.7378 -0.6747
22046SOL    HW266717   7.775   0.696   3.635 -2.0942 -0.6207  0.3649
22047SOL     OW66718   1.180   7.226   4.233  0.0816  0.3726 -0.0693
22047SOL    HW166719   1.091   7.197   4.251  0.6767 -1.5631  0.0369
22047SOL    HW266720   1.183   7.235   4.137  0.1740 -1.1563 -0.2394
22048SOL     OW66721   9.725   6.813   5.634 -0.5001 -0.6337 -0.0984
22048SOL    HW166722   9.752   6.807   5.542 -2.5097 -2.5575 -0.6425
22048SOL    HW266723   9.802   6.786   5.683 -0.1383 -2.1144 -1.3839
22049SOL     OW66724   6.519   4.202   6.661 -0.1218 -0.5474  0.1973
22049SOL    HW166725   6.557   4.269   6.719 -0.0822 -0.1857 -0.2421
22049SOL    HW266726   6.573   4.124   6.676  0.0785 -0.3677  0.4214
22050SOL     OW66727   7.568   9.499   1.628  0.4869 -0.5175  0.0011
22050SOL    HW166728   7.512   9.505   1.551  0.2143 -0.3248  0.2133
22050SOL    HW266729   7.643   9.555   1.607  0.0567  0.1424  0.1766
22051SOL     OW66730   2.044   6.330   3.880  0.0619 -0.2608  0.3576
22051SOL    HW166731   2.078   6.352   3.967 -0.1401 -0.9212  0.6065
22051SOL    HW266732   2.122   6.317   3.826  0.1982 -0.7190  0.6603
22052SOL     OW66733   9.008   3.430   4.252  0.2395  0.4982 -0.3089
22052SOL    HW166734   9.020   3.440   4.158  1.2279  1.8502 -0.0613
22052SOL    HW266735   9.077   3.483   4.291 -0.6742  0.6419  1.1845
22053SOL     OW66736   5.558   8.643   9.490  0.3713 -0.0480 -0.1537
22053SOL    HW166737   5.516   8.558   9.499  1.8756 -1.1838 -2.8095
22053SOL    HW266738   5.510   8.686   9.419  0.1887  0.9738  0.5707
22054SOL     OW66739   7.404   2.584   0.211 -0.0991  0.0180  0.1032
22054SOL    HW166740   7.384   2.492   0.228  3.0457 -0.5453  1.2842
22054SOL    HW266741   7.396   2.627   0.296  0.1053  0.5133 -0.1259
22055SOL     OW66742   1.811   6.756   2.909 -0.1533  0.2051 -0.0851
22055SOL    HW166743   1.880   6.821   2.914  1.8951 -1.6148 -2.2126
22055SOL    HW266744   1.847   6.679   2.953 -1.8355 -0.0844  0.8851
22056SOL     OW66745   4.070   5.668   3.137  0.6010 -0.0536  0.2246
22056SOL    HW166746   4.050   5.580   3.105 -0.1738  0.2425 -0.1435
22056SOL    HW266747   4.159   5.663   3.170  1.1523 -0.5650 -1.2911
22057SOL     OW66748   5.067   8.529   8.520 -0.1061  0.4374 -0.7294
22057SOL    HW166749   5.003   8.501   8.455 -0.0306  0.0793 -0.6499
22057SOL    HW266750   5.123   8.453   8.533  0.2176  0.6868 -0.6554
22058SOL     OW66751   2.528   6.564   3.544  0.8587 -0.6859 -0.3566
22058SOL    HW166752   2.525   6.500   3.615  1.4631 -2.9603 -2.2210
22058SOL    HW266753   2.503   6.514   3.466 -1.2798  2.0429 -1.5899
22059SOL     OW66754   2.487   9.344   0.318 -0.3538 -0.3126 -0.0580
22059SOL    HW166755   2.510   9.320   0.408 -1.2652 -0.3806  0.1626
22059SOL    HW266756   2.493   9.440   0.316 -0.9246 -0.2698  0.2416
22060SOL     OW66757   4.221   7.619   0.259 -0.4110  0.1831 -0.2314
22060SOL    HW166758   4.210   7.525   0.273  0.1786 -0.0302 -1.1556
22060SOL    HW266759   4.138   7.648   0.222 -0.4025 -0.0776 -0.4551
22061SOL     OW66760   5.345   0.343   8.893 -0.5185  0.4312 -0.1990
22061SOL    HW166761   5.379   0.337   8.982 -1.3033 -0.7481  0.0393
22061SOL    HW266762   5.266   0.289   8.894  0.0959 -0.5539 -1.9193
22062SOL     OW66763   4.016   0.076   5.302 -0.4844  0.4150  0.5056
22062SOL    HW166764   4.072   0.016   5.351 -0.7832  2.3574  3.5308
22062SOL    HW266765   4.077   0.137   5.260 -0.2478 -0.1006  0.1048
22063SOL     OW66766   0.623   1.932   4.458 -0.5900  0.0486 -1.1269
22063SOL    HW166767   0.667   1.851   4.485  0.3117  1.7411  3.4631
22063SOL    HW266768   0.695   1.989   4.429 -0.9472 -0.0478 -2.2322
22064SOL     OW66769   0.716   7.920   2.117  0.3677  0.1647 -0.0288
22064SOL    HW166770   0.745   7.854   2.179  3.0799  0.0894 -1.2325
22064SOL    HW266771   0.761   8.001   2.144 -1.2074  1.0207  0.1534
22065SOL     OW66772   7.365   0.510   1.424  0.0454 -0.7121 -0.7562
22065SOL    HW166773   7.303   0.448   1.386 -0.3621 -0.4191 -0.5793
22065SOL    HW266774   7.319   0.547   1.500  0.3849 -0.3996 -0.6984
22066SOL     OW66775   8.364   1.866   5.723  0.2646  0.0204 -0.5486
22066SOL    HW166776   8.406   1.945   5.689  2.8735 -2.0072 -2.4449
22066SOL    HW266777   8.395   1.860   5.814  2.4504 -0.2779 -1.2647
22067SOL     OW66778   5.957   8.532   2.060 -0.1270  0.0785 -0.6222
22067SOL    HW166779   5.906   8.465   2.106  0.4434 -0.2443 -0.4470
22067SOL    HW266780   5.892   8.581   2.009 -0.7772  0.4545  0.5407
22068SOL     OW66781   3.809   2.521   7.302  0.2218 -0.0452 -0.1480
22068SOL    HW166782   3.797   2.501   7.209  0.5370 -2.0670  0.1888
22068SOL    HW266783   3.902   2.537   7.312  0.2131  0.0115 -0.1601
22069SOL     OW66784   0.146   6.055   8.306  0.8128  0.8638 -0.4065
22069SOL    HW166785   0.143   6.110   8.384 -0.4892  0.9017 -0.4643
22069SOL    HW266786   0.209   5.987   8.327  0.4994  0.8872  0.6637
22070SOL     OW66787   4.085   3.163   2.941  0.1128  0.0404  0.1594
22070SOL    HW166788   4.070   3.244   2.990  0.4345  0.2644 -0.1144
22070SOL    HW266789   4.026   3.100   2.982  0.2105  0.2871  0.6838
22071SOL     OW66790   6.583   6.610   3.764 -0.2801 -0.3937  0.7471
22071SOL    HW166791   6.506   6.559   3.741 -0.3917 -0.2929  0.8930
22071SOL    HW266792   6.593   6.598   3.858  1.8168 -3.0928  0.3020
22072SOL     OW66793   3.753   4.897   9.752 -0.3572 -0.2838  0.2682
22072SOL    HW166794   3.798   4.885   9.668 -0.9505 -0.3167 -0.0537
22072SOL    HW266795   3.664   4.922   9.728 -0.2695  0.6785  0.9096
22073SOL     OW66796   1.126   2.541   9.044  0.3454  0.5589  0.4953
22073SOL    HW166797   1.151   2.576   9.130 -1.1845  0.3860  1.0396
22073SOL    HW266798   1.035   2.567   9.033 -0.4391 -1.9566  0.2975
22074SOL     OW66799   5.469   2.547   6.267 -0.0744 -0.5134 -0.4453
22074SOL    HW166800   5.428   2.591   6.192 -2.1094  0.8751  1.3638
22074SOL    HW266801   5.397   2.499   6.309  1.3114 -2.4534 -0.1175
22075SOL     OW66802   1.002   9.926   8.219  0.7499 -0.1797  0.9685
22075SOL    HW166803   0.989   9.832   8.206 -0.5485 -0.3166  2.8060
22075SOL    HW266804   0.950   9.946   8.297 -0.2863  2.3812 -0.2852
22076SOL     OW66805   2.428   2.994   4.074  0.1869  0.0266  0.6869
22076SOL    HW166806   2.381   3.042   4.006 -0.7867 -1.4335  0.2801
22076SOL    HW266807   2.397   3.032   4.156 -2.3729 -1.3486  0.4711
22077SOL     OW66808   2.032   2.421   1.379  0.1246  0.1315 -0.4993
22077SOL    HW166809   2.061   2.407   1.289 -0.0877  1.9252 -0.8896
22077SOL    HW266810   2.102   2.471   1.420 -0.6694  1.1282 -0.3060
22078SOL     OW66811   3.276   1.031   6.278 -0.4301 -0.0416  0.2502
22078SOL    HW166812   3.220   1.100   6.312  0.1840  0.8749 -0.5530
22078SOL    HW266813   3.224   0.988   6.210 -0.3393  0.4924 -0.1594
22079SOL     OW66814   2.722   0.549   0.443  0.2808 -0.1904  0.2399
22079SOL    HW166815   2.704   0.508   0.528 -0.7035  1.8681  1.0879
22079SOL    HW266816   2.651   0.518   0.387  0.2420 -0.6001  0.5044
22080SOL     OW66817   0.909   7.127   2.408 -0.0656 -0.6759  0.3613
22080SOL    HW166818   1.001   7.137   2.386 -0.1939  0.7225  0.3174
22080SOL    HW266819   0.908   7.073   2.487  0.8195 -0.3011  0.6367
22081SOL     OW66820   1.500   0.935   5.805  0.3666 -0.0556 -0.3492
22081SOL    HW166821   1.500   1.019   5.851  1.0614  0.2207 -0.8353
22081SOL    HW266822   1.444   0.878   5.858 -0.0767  0.7005  0.0114
22082SOL     OW66823   2.731   6.263   1.326 -0.0322 -0.1723 -0.5901
22082SOL    HW166824   2.654   6.313   1.352  0.6660  0.4815  0.3135
22082SOL    HW266825   2.721   6.178   1.369 -0.6903 -0.4331 -1.2373
22083SOL     OW66826   9.046   3.639   5.593 -1.1254 -0.0560 -0.0406
22083SOL    HW166827   9.125   3.626   5.645 -1.9425  1.5985  1.7721
22083SOL    HW266828   9.053   3.576   5.522  1.5371 -0.3316  0.3663
22084SOL     OW66829   2.128   3.426   5.720 -0.3106 -0.3456  0.5728
22084SOL    HW166830   2.122   3.522   5.718  0.2118 -0.2975  1.1317
22084SOL    HW266831   2.038   3.397   5.733 -0.3745  0.1016  1.1790
22085SOL     OW66832   1.226   8.412   2.475 -1.0302 -0.1820 -0.0865
22085SOL    HW166833   1.208   8.337   2.531  0.5318 -0.5979 -0.0818
22085SOL    HW266834   1.167   8.402   2.400 -1.2592 -1.0829  0.2075
22086SOL     OW66835   8.734   9.046   3.921  0.5306 -0.1562 -0.0184
22086SOL    HW166836   8.740   9.030   4.015  0.9621 -0.9255 -0.1657
22086SOL    HW266837   8.730   9.141   3.913 -3.1784 -0.0713  0.9789
22087SOL     OW66838   4.603   3.699   9.220 -0.1475 -0.2868  0.2953
22087SOL    HW166839   4.619   3.740   9.305  0.0874  0.9152 -0.3104
22087SOL    HW266840   4.534   3.752   9.181 -0.4036 -0.9633 -0.1786
22088SOL     OW66841   6.434   3.807   5.277  0.6371 -0.2788  0.0066
22088SOL    HW166842   6.522   3.835   5.303  0.1443  0.6516  0.7306
22088SOL    HW266843   6.393   3.778   5.358 -1.0356  2.9537  0.4635
22089SOL     OW66844   2.563   6.109   9.767  0.3286 -0.1369 -0.0894
22089SOL    HW166845   2.537   6.097   9.858  1.1504 -0.8782  0.0673
22089SOL    HW266846   2.505   6.052   9.717 -0.0400  0.1756 -0.0219
22090SOL     OW66847   3.053   7.649   1.560  0.3292 -0.5196 -0.2751
22090SOL    HW166848   3.141   7.613   1.558  0.4058 -0.4570 -3.2898
22090SOL    HW266849   2.995   7.573   1.564  0.5222 -0.6597 -0.1692
22091SOL     OW66850   2.742   3.167   0.547  0.3969 -0.2690  0.0727
22091SOL    HW166851   2.815   3.181   0.606 -0.9800  0.4888  1.6811
22091SOL    HW266852   2.781   3.168   0.459  2.2085  0.6508  0.8432
22092SOL     OW66853   0.143   1.291   4.811 -0.3003 -0.7382 -0.6103
22092SOL    HW166854   0.070   1.352   4.816 -2.1436 -2.8659  0.4789
22092SOL    HW266855   0.150   1.270   4.717  0.0077  0.6825 -0.9209
22093SOL     OW66856   9.894   0.144   6.938  0.1519 -0.3068  0.1308
22093SOL    HW166857   9.851   0.165   7.021  0.7057 -1.0385  0.6172
22093SOL    HW266858   9.982   0.179   6.948  1.4350 -3.5128  1.3570
22094SOL     OW66859   1.464   2.125   4.096 -0.0464  0.3963 -0.0865
22094SOL    HW166860   1.418   2.154   4.017  1.5626  1.1294 -0.8039
22094SOL    HW266861   1.556   2.124   4.071  0.3148 -1.6351  1.1129
22095SOL     OW66862   7.036   4.100   9.898  1.0924 -0.5020  0.3535
22095SOL    HW166863   6.951   4.142   9.910  1.1352 -0.0545 -0.7818
22095SOL    HW266864   7.036   4.028   9.961 -0.0485 -0.3901  0.5092
22096SOL     OW66865   1.556   4.299   0.682  0.7364 -0.1699 -0.7999
22096SOL    HW166866   1.468   4.284   0.648  0.8988 -0.4504 -1.0979
22096SOL    HW266867   1.575   4.391   0.660  0.3640  0.0135 -0.3744
22097SOL     OW66868   1.490   1.615   2.597 -0.1372  0.0010  0.5786
22097SOL    HW166869   1.449   1.702   2.598 -3.2829 -1.3403  0.3653
22097SOL    HW266870   1.502   1.593   2.689  0.8773  0.7108  0.6310
22098SOL     OW66871   8.030   7.026   6.951  0.0814  0.4896 -0.0714
22098SOL    HW166872   8.023   7.107   6.900 -0.8327  0.3565 -0.1575
22098SOL    HW266873   7.962   6.970   6.917  0.7009 -0.3234  0.0059
22099SOL     OW66874   9.707   2.367   9.021 -0.0883  0.6928 -0.0872
22099SOL    HW166875   9.616   2.345   9.005 -0.3893 -0.5223  2.6846
22099SOL    HW266876   9.707   2.463   9.030 -1.0612  0.7153 -0.2402
22100SOL     OW66877   5.473   8.638   3.205 -0.0989  0.4282 -0.2074
22100SOL    HW166878   5.417   8.565   3.181  0.9921 -1.0802  1.5800
22100SOL    HW266879   5.414   8.704   3.241 -1.0597  0.3469 -1.5525
22101SOL     OW66880   9.359   2.098   2.675  0.6825  0.1166  0.0680
22101SOL    HW166881   9.361   2.016   2.725  1.4118  0.2041  0.2007
22101SOL    HW266882   9.347   2.071   2.584 -1.1955 -0.0179  0.3185
22102SOL     OW66883   7.122   5.711   5.339 -0.1644 -0.2141  0.4439
22102SOL    HW166884   7.037   5.697   5.380 -1.3462  0.8145 -1.4797
22102SOL    HW266885   7.102   5.749   5.254  2.3192  3.3795  1.2071
22103SOL     OW66886   6.133   8.756   1.823 -0.1059 -0.0504  0.1208
22103SOL    HW166887   6.149   8.722   1.735  0.5737 -0.2005  0.3003
22103SOL    HW266888   6.160   8.848   1.819 -1.9660  0.5199 -0.3713
22104SOL     OW66889   3.251   9.710   4.034  0.1525  0.5007 -0.3718
22104SOL    HW166890   3.294   9.795   4.024 -0.7222  1.2909  1.7852
22104SOL    HW266891   3.157   9.731   4.037 -0.0011 -0.1602  2.4999
22105SOL     OW66892   3.538   2.090   5.456 -0.3801 -0.4152  0.4932
22105SOL    HW166893   3.554   2.184   5.447 -0.6363 -0.1719  2.2298
22105SOL    HW266894   3.455   2.075   5.411  1.0357 -0.3892 -2.3421
22106SOL     OW66895   2.092   6.235   9.374 -0.6668 -0.2298 -0.0392
22106SOL    HW166896   2.014   6.270   9.417  0.3703  1.0030  0.9311
22106SOL    HW266897   2.156   6.226   9.444  0.1526 -0.9667 -0.8542
22107SOL     OW66898   5.898   0.866   6.236  0.2485 -0.3347 -0.0163
22107SOL    HW166899   5.928   0.787   6.281 -1.8393 -1.6147 -0.7179
22107SOL    HW266900   5.972   0.927   6.242  2.0637 -2.4347  0.2667
22108SOL     OW66901   4.515   4.360   1.638  0.4082  0.5691 -0.0026
22108SOL    HW166902   4.466   4.410   1.703 -0.6723 -0.6081  0.1213
22108SOL    HW266903   4.549   4.426   1.578 -1.3271  1.4518 -0.0839
22109SOL     OW66904   8.008   3.759   3.833  0.9635  0.6834  0.2758
22109SOL    HW166905   7.958   3.823   3.884  0.8212 -1.3279  2.8555
22109SOL    HW266906   8.068   3.720   3.896  0.6488 -2.0977 -1.0148
22110SOL     OW66907   7.001   7.441   6.063 -0.2235  0.2977  0.4431
22110SOL    HW166908   7.057   7.408   6.133 -2.9926 -4.2700  0.9399
22110SOL    HW266909   6.914   7.445   6.103 -1.2327  1.6289 -1.7174
22111SOL     OW66910   2.457   6.165   5.300 -0.0611  0.1506  0.3848
22111SOL    HW166911   2.485   6.182   5.209  0.4000 -1.3520  0.2051
22111SOL    HW266912   2.518   6.215   5.353  1.0960 -0.6864 -0.1025
22112SOL     OW66913   1.619   6.822   0.351 -0.1497 -0.3548  0.3057
22112SOL    HW166914   1.623   6.839   0.257  2.0167  2.2529  0.7666
22112SOL    HW266915   1.533   6.856   0.377  0.2906  1.4027 -0.3658
22113SOL     OW66916   1.443   5.577   2.899 -0.0814  0.3474 -0.1639
22113SOL    HW166917   1.519   5.543   2.851 -0.5693 -0.1064 -0.6211
22113SOL    HW266918   1.419   5.657   2.852  0.4235  0.7771  0.2913
22114SOL     OW66919   3.948   5.059   4.634  0.3434 -0.0238  0.1377
22114SOL    HW166920   3.909   5.138   4.673  0.3098 -0.2424  0.5541
22114SOL    HW266921   4.029   5.046   4.685  0.0530 -0.5900  0.4545
22115SOL     OW66922   3.433   4.983   9.457  0.1321  0.3031  0.2589
22115SOL    HW166923   3.495   4.969   9.385 -1.6829 -1.8470 -1.0182
22115SOL    HW266924   3.478   4.950   9.535  0.7293 -0.9513 -0.5822
22116SOL     OW66925   0.450   2.196   8.335 -0.1803  0.7693 -0.3148
22116SOL    HW166926   0.494   2.220   8.416 -0.4245 -0.7702  0.3125
22116SOL    HW266927   0.376   2.257   8.329 -1.2986 -0.2609  1.6766
22117SOL     OW66928   3.382   6.587   8.632 -0.0506  0.2228 -0.0388
22117SOL    HW166929   3.426   6.552   8.555  1.2251  0.8519  0.3680
22117SOL    HW266930   3.443   6.653   8.667 -0.7599  0.2229  1.2808
22118SOL     OW66931   1.414   3.016   5.149 -0.4243 -0.2385  0.1709
22118SOL    HW166932   1.459   3.002   5.233  0.5650  1.8329  0.0363
22118SOL    HW266933   1.394   3.110   5.148 -1.0928 -0.3665 -1.6023
22119SOL     OW66934   4.295   6.870   7.088 -0.2838  0.1381  0.6691
22119SOL    HW166935   4.338   6.809   7.148 -1.1833  0.3436  1.5597
22119SOL    HW266936   4.234   6.919   7.144 -2.3790 -0.7795 -0.6642
22120SOL     OW66937   3.576   0.161   4.362 -0.2660 -0.0581  0.1147
22120SOL    HW166938   3.643   0.107   4.321 -0.0316  0.1160  0.2639
22120SOL    HW266939   3.619   0.246   4.377 -0.8263  0.3791 -0.7075
22121SOL     OW66940   4.612   1.375   9.272  0.5147  0.2602  0.1759
22121SOL    HW166941   4.598   1.452   9.218  1.5180  0.7421  0.5882
22121SOL    HW266942   4.702   1.382   9.303  1.1230 -1.8014 -0.9196
22122SOL     OW66943   7.054   3.488   7.101  0.3037  0.0241  0.2537
22122SOL    HW166944   7.084   3.563   7.051 -1.5864  0.9236  0.3893
22122SOL    HW266945   6.975   3.458   7.056 -0.2167 -0.4881  1.4490
22123SOL     OW66946   9.255   9.485   9.830 -0.7395  0.4514  0.3082
22123SOL    HW166947   9.311   9.422   9.784 -0.7253  0.0144  0.9037
22123SOL    HW266948   9.179   9.494   9.774 -0.4874  0.3286 -0.0569
22124SOL     OW66949   8.160   7.631   5.581  0.4199  0.0779  0.0099
22124SOL    HW166950   8.072   7.604   5.554  0.1178  1.3598 -0.3542
22124SOL    HW266951   8.158   7.626   5.677 -0.7850  2.0965  0.1594
22125SOL     OW66952   9.423   7.174   5.218 -0.2726  0.1793  0.1202
22125SOL    HW166953   9.470   7.104   5.263 -0.2877 -0.8742 -1.4047
22125SOL    HW266954   9.458   7.255   5.254  0.4646 -0.6075  1.2150
22126SOL     OW66955   1.681   0.669   8.131  0.4955  1.1542 -0.2825
22126SOL    HW166956   1.641   0.585   8.153  1.7272  0.3607 -1.0142
22126SOL    HW266957   1.702   0.663   8.038  2.8389  1.2889  0.1766
22127SOL     OW66958   2.890   8.461   2.119  0.2080  0.2909 -0.2130
22127SOL    HW166959   2.951   8.421   2.182  0.4007  0.0054 -0.5787
22127SOL    HW266960   2.886   8.553   2.145  0.7616  0.3033 -0.1550
22128SOL     OW66961   6.125   5.779   3.474  0.1735  0.4849  0.0702
22128SOL    HW166962   6.218   5.801   3.483  0.8677 -1.7274 -0.7750
22128SOL    HW266963   6.121   5.687   3.501 -1.5796  0.2369 -0.9516
22129SOL     OW66964   5.607   1.049   4.030 -0.0949  0.2337  0.2474
22129SOL    HW166965   5.596   0.994   3.952 -1.0778  1.1350 -0.2813
22129SOL    HW266966   5.559   1.003   4.099 -2.0479  1.0278 -0.5148
22130SOL     OW66967   7.711   5.794   5.346 -0.4130  0.5077  0.2437
22130SOL    HW166968   7.784   5.834   5.394  0.2030 -2.1709  1.7480
22130SOL    HW266969   7.634   5.816   5.398 -0.6930  2.8550 -1.0369
22131SOL     OW66970   8.105   7.546   6.242  0.5729 -0.3135  0.1960
22131SOL    HW166971   8.184   7.555   6.295  1.5237 -0.3892 -1.1601
22131SOL    HW266972   8.082   7.636   6.217  0.6176 -0.3437  0.0452
22132SOL     OW66973   6.871   7.653   4.896 -0.7843  0.3915  0.2472
22132SOL    HW166974   6.906   7.583   4.951 -1.3002  0.5497  0.7852
22132SOL    HW266975   6.946   7.682   4.844 -0.6990 -0.9687 -0.4321
22133SOL     OW66976   9.706   6.019   9.448  0.0398  0.8500 -0.5214
22133SOL    HW166977   9.631   6.066   9.486 -0.9849 -1.5492  0.6400
22133SOL    HW266978   9.780   6.043   9.503 -1.0529 -1.0723  2.0315
22134SOL     OW66979   0.170   3.699   7.889  0.0314 -0.3966 -0.0436
22134SOL    HW166980   0.204   3.777   7.844 -1.3499  0.6391  0.6511
22134SOL    HW266981   0.246   3.642   7.898  1.6468  1.8235  1.4748
22135SOL     OW66982   8.239   4.345   9.824 -0.8075  0.0315  0.1024
22135SOL    HW166983   8.251   4.330   9.730 -0.4944  0.0080  0.1450
22135SOL    HW266984   8.187   4.425   9.829 -1.8145 -0.5815 -0.1091
22136SOL     OW66985   0.301   2.139   7.174  0.1098 -0.0528 -0.8821
22136SOL    HW166986   0.213   2.112   7.201 -0.1793  0.8468 -0.8904
22136SOL    HW266987   0.352   2.058   7.176 -0.7362 -0.6085 -0.9668
22137SOL     OW66988   3.960   2.816   0.157 -0.4615 -0.0305  0.8702
22137SOL    HW166989   3.909   2.830   0.077 -0.4358 -1.5866  0.5416
22137SOL    HW266990   3.974   2.721   0.159  1.6698  0.2566  1.4230
22138SOL     OW66991   6.319   4.676   0.116 -0.7530 -0.1430  0.5891
22138SOL    HW166992   6.244   4.682   0.175 -0.4812  1.6779  0.8145
22138SOL    HW266993   6.390   4.641   0.171 -0.3459  2.0742  1.5759
22139SOL     OW66994   2.526   5.488   8.488  0.2391 -0.7466  0.1381
22139SOL    HW166995   2.618   5.466   8.475  0.3575 -1.5362  1.9389
22139SOL    HW266996   2.495   5.424   8.553 -1.1210  0.5376  0.8255
22140SOL     OW66997   9.126   2.743   7.154  0.6099  0.0265  0.2746
22140SOL    HW166998   9.206   2.708   7.117  0.3292  0.1409 -0.4450
22140SOL    HW266999   9.062   2.673   7.144  0.6430 -0.1159  0.9709
22141SOL     OW67000   3.749   9.632   7.059  0.5290  0.3282  0.0355
22141SOL    HW167001   3.814   9.562   7.065 -0.9247 -1.1098 -0.1698
22141SOL    HW267002   3.680   9.596   7.004 -1.5924  0.8161  2.2068
22142SOL     OW67003   8.316   8.643   4.997  0.7572  0.1446 -0.6829
22142SOL    HW167004   8.254   8.573   5.018  1.3546 -0.2821 -0.2880
22142SOL    HW267005   8.366   8.608   4.923  2.1044 -0.5281  0.4964
22143SOL     OW67006   7.854   1.266   6.913  0.1228 -0.2219  0.1728
22143SOL    HW167007   7.810   1.347   6.886  0.5201 -0.5667 -1.6077
22143SOL    HW267008   7.812   1.242   6.996 -0.3000  1.5604  0.5194
22144SOL     OW67009   1.227   6.248   1.341 -0.1300 -0.6145  0.0863
22144SOL    HW167010   1.316   6.280   1.359 -0.6070  1.0702 -0.3464
22144SOL    HW267011   1.172   6.325   1.351 -1.2118 -0.9965 -2.3222
22145SOL     OW67012   8.077   6.594   9.716 -0.0126 -0.2818  0.3659
22145SOL    HW167013   7.987   6.561   9.712  0.1729 -0.7588 -0.0684
22145SOL    HW267014   8.069   6.682   9.752 -0.7451  0.0356 -0.5301
22146SOL     OW67015   9.440   6.831   6.999 -0.0714  0.6256 -0.0969
22146SOL    HW167016   9.381   6.898   6.966 -1.5003 -0.2162  0.6682
22146SOL    HW267017   9.395   6.748   6.982  0.1870  0.0392  1.8227
22147SOL     OW67018   1.322   5.018   5.526 -0.3391 -0.5652 -0.4078
22147SOL    HW167019   1.314   5.108   5.495 -0.8315 -0.3755  0.2523
22147SOL    HW267020   1.416   5.006   5.542 -0.3616  0.0849  0.2432
22148SOL     OW67021   3.207   2.068   3.877  0.8315 -0.5082  0.1016
22148SOL    HW167022   3.228   2.107   3.792  0.0623 -1.2071 -0.4230
22148SOL    HW267023   3.134   2.120   3.910 -0.2299 -1.4823 -0.6224
22149SOL     OW67024   7.799   3.338   1.151  0.2239 -0.1683  0.1671
22149SOL    HW167025   7.840   3.423   1.171  0.3983 -0.1020 -0.4437
22149SOL    HW267026   7.822   3.322   1.059  1.4632 -1.5856  0.6757
22150SOL     OW67027   0.493   7.334   1.951  0.2213 -0.2599  0.3696
22150SOL    HW167028   0.474   7.244   1.979 -0.0771 -0.0929  0.7102
22150SOL    HW267029   0.588   7.336   1.939  0.2110 -0.6669  0.1981
22151SOL     OW67030   8.271   9.663   6.550 -0.2258  0.4441  0.7793
22151SOL    HW167031   8.322   9.742   6.566 -0.2683  0.6658 -0.1083
22151SOL    HW267032   8.186   9.681   6.591 -0.2673  0.9011  0.5042
22152SOL     OW67033   2.428   9.389   2.621 -0.0776 -0.4955 -0.1756
22152SOL    HW167034   2.472   9.386   2.706 -1.3911 -2.9764  0.5322
22152SOL    HW267035   2.347   9.438   2.637  0.5604  0.7063 -0.5167
22153SOL     OW67036   2.134   4.649   1.284 -0.0639  0.0098  0.0665
22153SOL    HW167037   2.195   4.592   1.238  0.6693 -0.2093  1.2567
22153SOL    HW267038   2.164   4.738   1.263  0.3773 -0.0910  0.2414
22154SOL     OW67039   1.114   4.567   5.091 -0.0510  0.7140 -0.5872
22154SOL    HW167040   1.149   4.485   5.055  1.3538  2.0409 -2.4366
22154SOL    HW267041   1.191   4.618   5.115 -0.9339  0.9125  2.0992
22155SOL     OW67042   8.987   2.635   9.929  0.7001  0.1869  0.3934
22155SOL    HW167043   9.074   2.673   9.917  0.5844  0.7022  1.1785
22155SOL    HW267044   8.935   2.704   9.969  0.3456 -0.6216  1.3642
22156SOL     OW67045   2.989   2.539   5.092  0.2400  0.4340 -0.6518
22156SOL    HW167046   2.958   2.456   5.128 -2.1492  0.7640 -1.7497
22156SOL    HW267047   2.928   2.604   5.126  2.6894  1.9769  1.0506
22157SOL     OW67048   9.168   1.501   8.242 -0.0062  0.0410  0.1640
22157SOL    HW167049   9.163   1.591   8.274  1.8716  1.1483 -2.3066
22157SOL    HW267050   9.089   1.490   8.189  0.0232  0.4174  0.0396
22158SOL     OW67051   5.712   3.213   1.237  0.3127 -0.1041 -0.0440
22158SOL    HW167052   5.662   3.215   1.156 -0.5435  0.6145  0.4677
22158SOL    HW267053   5.795   3.173   1.214 -0.2757 -0.7896 -1.0578
22159SOL     OW67054   5.393   5.290   0.216  0.5310 -0.0738 -0.3732
22159SOL    HW167055   5.439   5.344   0.281 -0.2157 -2.2619  2.1385
22159SOL    HW267056   5.313   5.338   0.198  1.2406  1.0983 -0.5544
22160SOL     OW67057   4.494   2.064   1.986 -0.4040 -0.3551  0.7259
22160SOL    HW167058   4.435   2.120   1.937  0.6149  1.3027  1.3290
22160SOL    HW267059   4.564   2.043   1.924  0.9790  1.8889  1.3999
22161SOL     OW67060   3.039   5.708   7.576  0.7437 -0.2141  0.3557
22161SOL    HW167061   3.110   5.714   7.640  1.1050 -1.2078  0.0684
22161SOL    HW267062   3.070   5.759   7.501  1.5680 -1.3560 -0.1150
22162SOL     OW67063   9.042   2.124   9.941 -0.0891 -0.5119 -0.0036
22162SOL    HW167064   9.043   2.212   9.904 -1.3852 -0.5439 -0.1590
22162SOL    HW267065   8.962   2.120   9.993  0.9539 -0.9626  1.6223
22163SOL     OW67066   4.009   7.103   3.085 -0.4197 -0.3239  0.1349
22163SOL    HW167067   3.949   7.090   3.158 -0.0341  0.9304  0.6967
22163SOL    HW267068   3.969   7.055   3.012 -1.5603 -0.3700  0.7716
22164SOL     OW67069   0.030   9.620   6.944 -0.6983  0.3223 -0.5801
22164SOL    HW167070   0.120   9.625   6.914 -0.5908 -1.7072 -0.7032
22164SOL    HW267071  -0.023   9.624   6.864 -0.5087 -2.5544 -0.9386
22165SOL     OW67072   6.313   2.220   7.414 -0.0350 -0.2285 -0.1929
22165SOL    HW167073   6.333   2.174   7.495 -1.3077 -0.2750  0.1175
22165SOL    HW267074   6.358   2.170   7.346  0.1480 -0.8306  0.3657
22166SOL     OW67075   3.678   8.522   7.675  0.2584  0.2336  0.2009
22166SOL    HW167076   3.614   8.501   7.743 -0.2550 -1.4800 -0.7697
22166SOL    HW267077   3.758   8.543   7.724 -0.7368  1.4907  1.3895
22167SOL     OW67078   9.031   4.386   6.514 -0.4814 -0.0299 -0.2131
22167SOL    HW167079   8.971   4.347   6.449  0.5011 -1.3985 -0.3373
22167SOL    HW267080   9.099   4.320   6.526  0.2922  0.9454  0.9280
22168SOL     OW67081   6.347   6.796   7.877  0.3492 -0.6071 -0.0525
22168SOL    HW167082   6.256   6.821   7.865  0.4020  0.2222  1.1478
22168SOL    HW267083   6.394   6.840   7.806  0.0556  0.4686  0.4029
22169SOL     OW67084   0.023   8.900   6.418  0.4688  0.2903 -0.0293
22169SOL    HW167085   0.058   8.831   6.474  0.2238  0.7512  0.7038
22169SOL    HW267086   0.044   8.982   6.464 -1.2673  0.5898  0.2999
22170SOL     OW67087   8.323   6.514   4.482  0.3231  0.2241 -0.1886
22170SOL    HW167088   8.328   6.547   4.392 -1.9110  1.5031  0.0792
22170SOL    HW267089   8.234   6.536   4.510  0.8827 -0.3778  2.2605
22171SOL     OW67090   9.379   1.711   7.474 -0.2852 -0.3545  0.2553
22171SOL    HW167091   9.401   1.638   7.532 -1.3866  0.0978  1.2839
22171SOL    HW267092   9.286   1.698   7.453 -0.3335  0.4090 -0.0420
22172SOL     OW67093   8.499   9.836   1.332  0.1955 -0.4892 -0.1059
22172SOL    HW167094   8.550   9.755   1.332  1.6831  0.3948 -0.6956
22172SOL    HW267095   8.475   9.848   1.424  0.4307 -1.3165  0.0750
22173SOL     OW67096   2.872   1.815   0.074 -0.0342  0.2573 -0.3919
22173SOL    HW167097   2.847   1.895   0.026 -0.3559  2.2070  2.7493
22173SOL    HW267098   2.792   1.787   0.118  0.6089 -0.4117  0.3767
22174SOL     OW67099   1.043   8.941   7.420 -0.2116 -0.1739  0.0188
22174SOL    HW167100   1.004   9.021   7.455 -2.0145 -0.4733 -1.1977
22174SOL    HW267101   1.000   8.927   7.336  2.4458 -0.6433 -1.3691
22175SOL     OW67102   3.144   0.040   5.537 -0.4075 -0.0410  0.1187
22175SOL    HW167103   3.135   0.068   5.446  1.5171  0.0226 -0.0961
22175SOL    HW267104   3.178  -0.049   5.531  2.0038  0.7623  0.6950
22176SOL     OW67105   8.507   6.609   0.685  0.3375 -0.6572 -0.1237
22176SOL    HW167106   8.446   6.545   0.648 -0.9130  0.0090  0.7079
22176SOL    HW267107   8.451   6.677   0.722  1.4741 -0.9925  2.4531
22177SOL     OW67108   1.603   2.210   7.999 -0.3903  0.0383 -0.2570
22177SOL    HW167109   1.667   2.281   7.987  1.4381 -1.2758  1.0900
22177SOL    HW267110   1.590   2.206   8.094 -2.1594 -0.0556 -0.4634
22178SOL     OW67111   5.530   9.457   3.641  0.4014 -0.1233 -0.6603
22178SOL    HW167112   5.563   9.543   3.667  2.3883 -1.3025  1.1042
22178SOL    HW267113   5.507   9.414   3.724 -1.2367 -1.0732 -1.5533
22179SOL     OW67114   3.027   8.745   4.882  0.1600  0.2535 -0.0072
22179SOL    HW167115   2.963   8.701   4.827 -0.0806  1.0657 -0.3766
22179SOL    HW267116   3.105   8.689   4.877  0.3358  0.6148 -1.6267
22180SOL     OW67117   1.113   3.005   3.269 -0.7040  0.5530  0.4845
22180SOL    HW167118   1.080   3.092   3.291 -0.5603  0.9764 -0.8691
22180SOL    HW267119   1.067   2.981   3.189  1.2915  0.6286 -0.7758
22181SOL     OW67120   5.152   8.669   4.411  0.2713 -0.1352  0.7194
22181SOL    HW167121   5.195   8.699   4.491  0.6075 -0.2322  0.5770
22181SOL    HW267122   5.224   8.645   4.352  0.2821  3.8336 -1.2029
22182SOL     OW67123   2.700   3.465   1.445 -0.1028  0.0915 -0.0788
22182SOL    HW167124   2.705   3.383   1.493 -1.9229 -0.1425 -0.2065
22182SOL    HW267125   2.736   3.445   1.358  1.8772  0.1493  0.6898
22183SOL     OW67126   2.604   6.130   2.079 -0.3713  1.0120  1.0481
22183SOL    HW167127   2.513   6.153   2.061 -0.5854  1.1582  2.1927
22183SOL    HW267128   2.654   6.206   2.052 -0.4867  0.6062 -0.3725
22184SOL     OW67129   2.299   9.890   6.897 -0.2985  0.6547  0.4974
22184SOL    HW167130   2.335   9.947   6.966  0.9840 -0.0300  0.4330
22184SOL    HW267131   2.227   9.843   6.940 -1.9027  2.8296  0.3403
22185SOL     OW67132   5.252   7.904   8.207  0.3249  0.1197 -0.0650
22185SOL    HW167133   5.326   7.843   8.204  0.7655  0.6578 -0.3755
22185SOL    HW267134   5.289   7.988   8.181 -0.2366  0.5640  0.5249
22186SOL     OW67135   3.417   8.053   5.358  0.2932 -0.1110 -0.4971
22186SOL    HW167136   3.478   8.036   5.430  0.6365  0.0305 -0.7487
22186SOL    HW267137   3.457   8.008   5.283 -0.7438 -1.4121 -0.3095
22187SOL     OW67138   7.212   7.543   3.637 -0.1049 -0.4118 -0.7524
22187SOL    HW167139   7.280   7.516   3.699  0.5192  2.3043 -0.1351
22187SOL    HW267140   7.206   7.470   3.576  0.6657 -2.3543  1.3299
22188SOL     OW67141   1.640   0.826   1.220 -0.0939 -0.1451 -0.1961
22188SOL    HW167142   1.594   0.859   1.297  0.1226  1.6122 -0.7870
22188SOL    HW267143   1.733   0.838   1.241  0.0144 -0.7645 -0.2840
22189SOL     OW67144   9.455   2.593   8.574 -0.4029  0.1637  0.6239
22189SOL    HW167145   9.425   2.518   8.522  1.3051  0.3909 -0.7816
22189SOL    HW267146   9.545   2.608   8.546 -0.1157  1.6681  2.1476
22190SOL     OW67147   9.569   5.131   6.634  0.8409  0.5652  0.0295
22190SOL    HW167148   9.610   5.217   6.638 -0.1487  1.0139  2.0673
22190SOL    HW267149   9.476   5.149   6.617  0.5626 -0.0494  0.7989
22191SOL     OW67150   0.829   7.826   7.810  0.6178 -0.1229  0.1981
22191SOL    HW167151   0.872   7.899   7.764  0.2388  0.3451  0.5819
22191SOL    HW267152   0.822   7.855   7.901 -1.0614  0.0827  0.0368
22192SOL     OW67153   1.588   6.650   2.322 -0.4069  0.1687 -0.6538
22192SOL    HW167154   1.544   6.735   2.312  0.2661  0.8319  1.4897
22192SOL    HW267155   1.518   6.586   2.309 -1.2914  1.1015 -0.6736
22193SOL     OW67156   8.777   6.706   6.750  0.1156 -0.3119 -0.0424
22193SOL    HW167157   8.749   6.614   6.745 -0.7243 -0.2424  2.1613
22193SOL    HW267158   8.728   6.750   6.681 -2.7295 -0.8432  1.4801
22194SOL     OW67159   7.076   7.575   3.019 -0.6973 -0.2381  0.2559
22194SOL    HW167160   7.140   7.596   3.087 -1.3775 -0.0411  0.8546
22194SOL    HW267161   6.999   7.544   3.067 -0.9185 -0.8491 -0.4677
22195SOL     OW67162   0.393   6.516   9.940  0.1708  0.0268  0.1557
22195SOL    HW167163   0.381   6.484   9.851  1.2169 -0.6047  0.2226
22195SOL    HW267164   0.338   6.459   9.994 -1.3631  1.1304 -0.1812
22196SOL     OW67165   3.093   6.824   8.563  0.3307 -0.0571 -0.8371
22196SOL    HW167166   3.119   6.904   8.517  1.4381 -0.3911 -0.8156
22196SOL    HW267167   3.022   6.788   8.510  0.2283  0.6191 -1.1765
22197SOL     OW67168   9.575   3.625   3.284 -0.2737  0.4875  0.4282
22197SOL    HW167169   9.623   3.707   3.285 -0.7678  0.7829  0.3912
22197SOL    HW267170   9.530   3.622   3.368 -0.3492  0.3062  0.3835
22198SOL     OW67171   0.824   8.805   5.113 -0.0248  0.1539  0.1440
22198SOL    HW167172   0.876   8.875   5.075  0.3418 -0.8518 -1.2669
22198SOL    HW267173   0.883   8.729   5.115 -1.0075 -0.6482 -0.2460
22199SOL     OW67174   7.163   0.127   4.522 -0.7742 -0.3812  0.1176
22199SOL    HW167175   7.068   0.115   4.526 -0.8517 -0.0835 -0.7871
22199SOL    HW267176   7.185   0.173   4.604 -1.5711  0.6195 -0.2187
22200SOL     OW67177   6.826   8.593   6.178  0.4533 -0.4209 -0.4107
22200SOL    HW167178   6.792   8.544   6.254  1.3214 -1.1155 -0.4589
22200SOL    HW267179   6.752   8.647   6.150  0.7196  1.6049  2.3272
22201SOL     OW67180   6.098   2.885   8.042 -0.4235  0.2869 -0.0846
22201SOL    HW167181   6.178   2.912   7.996  1.8586 -0.3692  3.1313
22201SOL    HW267182   6.085   2.952   8.109 -0.7425 -1.1656  1.3781
22202SOL     OW67183   4.012   1.726   7.955 -0.5628 -0.3400 -0.3991
22202SOL    HW167184   3.961   1.795   7.998  1.9730 -0.0404  2.4790
22202SOL    HW267185   4.081   1.772   7.907  0.1903 -0.7813  0.2252
22203SOL     OW67186   5.069   3.340   0.038 -0.6365  0.2520 -0.6782
22203SOL    HW167187   5.055   3.432   0.015  1.3369  0.6484 -0.4575
22203SOL    HW267188   5.054   3.292  -0.044 -0.0046  0.9753 -1.2332
22204SOL     OW67189   6.773   6.946   8.615 -0.1152 -0.0626 -0.1393
22204SOL    HW167190   6.734   6.863   8.645 -0.4060  0.1610  0.1104
22204SOL    HW267191   6.829   6.921   8.542  0.5856 -0.6141  0.5666
22205SOL     OW67192   1.005   3.052   5.029 -0.4645  0.2360 -0.1172
22205SOL    HW167193   1.079   3.023   4.975  0.2730  1.5668  0.1225
22205SOL    HW267194   0.950   3.103   4.970  0.4091  1.8037  0.3404
22206SOL     OW67195   2.981   1.689   9.361  0.5284  0.0130  0.4866
22206SOL    HW167196   3.065   1.733   9.375 -0.3105  2.1410 -0.6219
22206SOL    HW267197   2.941   1.737   9.288 -1.5465 -1.0734  0.8368
22207SOL     OW67198   5.125   5.092   8.479 -0.0187 -0.2179 -0.4736
22207SOL    HW167199   5.091   5.123   8.395  0.6751 -1.5620 -1.3013
22207SOL    HW267200   5.104   5.162   8.541 -2.3313 -0.0493 -1.3400
22208SOL     OW67201   8.809   4.380   5.655  0.4169  0.5569  0.0075
22208SOL    HW167202   8.805   4.310   5.591  0.5852  0.2595  0.3177
22208SOL    HW267203   8.751   4.448   5.620 -0.8992 -0.3206  0.4035
22209SOL     OW67204   5.545   2.758   2.816  0.8132  0.2395 -0.0766
22209SOL    HW167205   5.560   2.827   2.881 -3.2800  0.6670  0.6664
22209SOL    HW267206   5.550   2.804   2.732 -2.8799  1.8983  0.4317
22210SOL     OW67207   1.496   6.902   2.328  0.2634 -0.3117  0.2108
22210SOL    HW167208   1.427   6.936   2.385  1.0468  0.8470  0.5291
22210SOL    HW267209   1.519   6.976   2.272  1.7847 -0.4027  0.6634
22211SOL     OW67210   3.435   4.024   6.147 -0.1289  0.1207 -0.5378
22211SOL    HW167211   3.529   4.008   6.162 -0.3803  0.5185  1.9536
22211SOL    HW267212   3.423   4.116   6.171 -1.4403 -0.3888  0.9144
22212SOL     OW67213   9.407   1.179   7.925  0.2536 -0.4300  0.0272
22212SOL    HW167214   9.323   1.172   7.880  0.2818 -0.5615 -0.0050
22212SOL    HW267215   9.383   1.199   8.016  0.2355  1.8658 -0.4102
22213SOL     OW67216   0.261   8.737   5.073 -0.6747  0.4026  0.5074
22213SOL    HW167217   0.233   8.768   4.987 -1.5829  0.8888  0.9703
22213SOL    HW267218   0.356   8.749   5.073 -0.9387  3.0149  0.5775
22214SOL     OW67219   7.200   0.690   7.559 -0.0193 -0.2170  0.2054
22214SOL    HW167220   7.222   0.627   7.627 -1.1058 -1.6265 -0.7023
22214SOL    HW267221   7.240   0.772   7.588  3.7881 -1.8528  0.0987
22215SOL     OW67222   5.826   0.511   4.735 -0.7827 -0.4544  0.5196
22215SOL    HW167223   5.743   0.503   4.689 -0.4993 -0.2632 -0.0379
22215SOL    HW267224   5.891   0.476   4.674 -0.4248 -0.3745  0.8500
22216SOL     OW67225   2.625   0.194   0.457 -0.3638  0.0979  0.1865
22216SOL    HW167226   2.543   0.183   0.410  0.7573  0.2876 -1.9396
22216SOL    HW267227   2.614   0.276   0.505 -2.1896 -0.9944  1.7991
22217SOL     OW67228   9.725   7.875   6.186 -0.0874 -0.0264 -0.2397
22217SOL    HW167229   9.811   7.835   6.193 -0.7830 -1.4005  0.7429
22217SOL    HW267230   9.739   7.952   6.130  1.9325  0.2956  0.6268
22218SOL     OW67231   3.234   9.841   4.668 -0.2367  0.5789 -0.1239
22218SOL    HW167232   3.289   9.763   4.679 -0.1522  0.2279 -2.5378
22218SOL    HW267233   3.297   9.913   4.655 -0.3341  0.6282 -0.3193
22219SOL     OW67234   4.096   2.252   5.238 -0.1638 -0.0880  0.0775
22219SOL    HW167235   4.051   2.177   5.276  1.5039  0.4764  3.5443
22219SOL    HW267236   4.167   2.215   5.186 -0.8139 -0.9083 -0.2295
22220SOL     OW67237   3.408   6.721   2.229 -0.1054 -0.0171 -0.2286
22220SOL    HW167238   3.384   6.813   2.242 -1.1626 -0.5528  2.0293
22220SOL    HW267239   3.493   6.712   2.273 -0.0083 -0.1314 -0.4371
22221SOL     OW67240   9.609   1.363   7.811  0.2825 -0.3283 -0.1354
22221SOL    HW167241   9.561   1.334   7.888 -0.2917  2.7215  0.8030
22221SOL    HW267242   9.689   1.402   7.846  1.4939 -1.5498 -1.3811
22222SOL     OW67243   0.711   6.378   3.115 -0.8756  0.8536 -0.0711
22222SOL    HW167244   0.760   6.451   3.078  0.0824  1.1065  1.6249
22222SOL    HW267245   0.619   6.406   3.110 -0.5907  1.8125 -0.1936
22223SOL     OW67246   8.298   7.097   7.503  0.7633 -0.0445  0.3953
22223SOL    HW167247   8.270   7.042   7.576  1.9587 -0.4567  0.5705
22223SOL    HW267248   8.394   7.097   7.508  0.8180  1.3215 -0.1510
22224SOL     OW67249   3.748   9.656   9.427 -0.2668  0.2086 -0.5611
22224SOL    HW167250   3.803   9.586   9.462 -1.8169 -0.1168  1.3595
22224SOL    HW267251   3.811   9.720   9.392  1.3100 -0.5407  0.7691
22225SOL     OW67252   3.082   7.907   7.221 -0.0760 -0.4177  0.1603
22225SOL    HW167253   3.123   7.837   7.270  0.8923 -1.3006 -1.7916
22225SOL    HW267254   3.050   7.969   7.287  2.3812 -0.8180  1.8193
22226SOL     OW67255   6.436   0.070   3.683 -0.1249  0.0558 -0.1523
22226SOL    HW167256   6.417   0.138   3.747  1.0861  0.1313  0.1578
22226SOL    HW267257   6.505   0.107   3.628 -0.3363 -0.4458 -0.7700
22227SOL     OW67258   1.127   1.101   0.382  0.0035  0.1954 -0.3397
22227SOL    HW167259   1.114   1.013   0.347 -0.0958 -0.3513  1.0106
22227SOL    HW267260   1.039   1.133   0.400  0.0885 -0.6917  2.0741
22228SOL     OW67261   7.679   0.158   7.288  0.0345  0.1190  0.2339
22228SOL    HW167262   7.722   0.212   7.222  0.1616 -0.0358  0.1917
22228SOL    HW267263   7.661   0.075   7.244 -0.1865  0.1355  0.2916
22229SOL     OW67264   3.895   3.004   3.073  0.3891 -0.3283 -0.1530
22229SOL    HW167265   3.918   3.012   3.165  0.2294 -1.2418 -0.0216
22229SOL    HW267266   3.852   2.919   3.066 -0.6472  0.2255 -0.8610
22230SOL     OW67267   9.475   7.102   2.894 -0.4611 -0.0057  0.1817
22230SOL    HW167268   9.440   7.168   2.835 -0.0338  1.0567  1.0783
22230SOL    HW267269   9.476   7.144   2.980  1.1816 -0.6599  0.5246
22231SOL     OW67270   4.821   9.918   1.355  0.0370 -0.2700 -0.1912
22231SOL    HW167271   4.917   9.923   1.362 -0.0970  0.3411  1.9955
22231SOL    HW267272   4.801   9.955   1.269  1.6655  1.5028  0.1206
22232SOL     OW67273   8.728   9.958   7.853  0.8814  0.1168  0.6461
22232SOL    HW167274   8.700  10.019   7.784 -0.3200 -0.8167  0.2804
22232SOL    HW267275   8.776   9.890   7.807  1.1439  0.1300  0.8970
22233SOL     OW67276   9.761   5.494   9.704 -0.0835  0.2441 -0.7275
22233SOL    HW167277   9.672   5.517   9.677  0.2413  2.2289 -0.2813
22233SOL    HW267278   9.816   5.557   9.658  1.3524 -2.2516 -2.6774
22234SOL     OW67279   2.932   2.876   2.759 -0.0911 -0.4056 -0.8578
22234SOL    HW167280   2.851   2.899   2.805  0.0350  0.6824 -1.1464
22234SOL    HW267281   2.986   2.835   2.826 -1.1799 -1.9294 -0.8521
22235SOL     OW67282   0.863   7.898   1.105 -0.4509  0.2075  0.2632
22235SOL    HW167283   0.847   7.939   1.190  1.1698  2.9889 -0.6467
22235SOL    HW267284   0.956   7.876   1.106 -0.0504  1.6605 -1.2807
22236SOL     OW67285   0.942   6.798   5.596 -0.1656  0.1538 -0.0724
22236SOL    HW167286   0.897   6.806   5.680 -2.3441 -1.9286 -0.8984
22236SOL    HW267287   1.011   6.734   5.611 -0.7467 -0.4443  0.0893
22237SOL     OW67288   3.093   0.918   8.896  0.1921 -0.1890 -0.3536
22237SOL    HW167289   3.127   0.972   8.825 -0.0622 -0.7139 -0.8832
22237SOL    HW267290   3.150   0.841   8.896 -0.1186 -0.4170 -0.3080
22238SOL     OW67291   0.237   0.576   3.052  0.1594  0.3152  0.0350
22238SOL    HW167292   0.239   0.659   3.004  0.4411 -0.0161 -0.5275
22238SOL    HW267293   0.159   0.531   3.019  0.1030  0.2787  0.2156
22239SOL     OW67294   4.689   2.369   9.114  0.2672  0.1070 -0.0632
22239SOL    HW167295   4.705   2.405   9.027 -2.1439  2.7236  0.4366
22239SOL    HW267296   4.753   2.413   9.170  0.0107  0.5470 -0.1077
22240SOL     OW67297   7.865   7.882   1.150 -0.0867  0.2079 -0.1840
22240SOL    HW167298   7.916   7.838   1.082  0.8129  2.2447 -0.8990
22240SOL    HW267299   7.798   7.818   1.174 -0.4289 -0.6035 -2.9573
22241SOL     OW67300   4.568   1.649   0.551 -0.3766 -0.3591 -0.2812
22241SOL    HW167301   4.486   1.664   0.505 -1.0313 -2.1096  0.2177
22241SOL    HW267302   4.630   1.623   0.483 -0.1668  1.0871 -0.6734
22242SOL     OW67303   4.655   8.623   0.357 -0.3832  0.0767 -0.4382
22242SOL    HW167304   4.711   8.581   0.291 -0.2077 -0.6040  0.1290
22242SOL    HW267305   4.630   8.552   0.416 -1.3378  0.4900 -0.3211
22243SOL     OW67306   9.245   1.569   7.162  0.4210  0.2373  0.1469
22243SOL    HW167307   9.287   1.483   7.164 -0.5097 -0.2228  0.8055
22243SOL    HW267308   9.219   1.585   7.253 -1.3268  0.2318 -0.3089
22244SOL     OW67309   6.587   9.752   4.113  0.2135  0.5000  0.4905
22244SOL    HW167310   6.571   9.840   4.078 -0.8723  0.0671 -0.1600
22244SOL    HW267311   6.544   9.693   4.051 -0.7429 -0.3729  1.9264
22245SOL     OW67312   8.090   9.077   6.313  0.0907  0.4323 -0.0663
22245SOL    HW167313   8.121   9.119   6.394 -0.1563  0.5767 -0.0436
22245SOL    HW267314   8.033   9.143   6.273 -0.7539 -0.0915  0.2513
22246SOL     OW67315   8.083   6.321   8.100  0.1088 -0.0369 -0.4410
22246SOL    HW167316   8.081   6.247   8.039 -0.8085  0.3642 -0.9099
22246SOL    HW267317   8.168   6.362   8.084  0.0006 -0.1093 -1.2493
22247SOL     OW67318   5.401   7.236   8.491 -0.1276  0.2906  0.3397
22247SOL    HW167319   5.440   7.254   8.405 -0.9868 -1.0358 -0.3653
22247SOL    HW267320   5.475   7.235   8.551  0.3625  2.3514 -0.1721
22248SOL     OW67321   9.145   2.883   0.645  0.0413  0.4803 -0.2159
22248SOL    HW167322   9.087   2.853   0.576 -0.4746  0.0570  0.3898
22248SOL    HW267323   9.150   2.978   0.634  1.3155  0.2700 -1.8635
22249SOL     OW67324   1.324   6.844   0.445  0.0794 -0.0973  0.0796
22249SOL    HW167325   1.265   6.880   0.511 -1.0633 -0.3031 -0.7994
22249SOL    HW267326   1.320   6.749   0.459  0.1788 -0.1133 -0.0013
22250SOL     OW67327   6.491   0.365   7.509 -0.0447  0.1671 -0.4144
22250SOL    HW167328   6.527   0.341   7.594  0.3152  1.5711 -0.1390
22250SOL    HW267329   6.458   0.283   7.472 -0.3848 -0.4329  1.1529
22251SOL     OW67330   1.390   7.706   3.100 -0.0602 -0.3875  0.2812
22251SOL    HW167331   1.337   7.780   3.129 -0.3732 -0.6422  0.3592
22251SOL    HW267332   1.355   7.683   3.014  0.6212  0.1260 -0.1418
22252SOL     OW67333   8.598   7.777   3.145  0.6126  0.5261 -0.1172
22252SOL    HW167334   8.649   7.831   3.086  1.2530 -1.0425 -1.0369
22252SOL    HW267335   8.662   7.725   3.193 -0.0470 -1.7849 -1.5922
22253SOL     OW67336   0.869   4.035   9.658  0.2913  0.2458 -0.0857
22253SOL    HW167337   0.859   4.085   9.577  0.5616  0.4513  0.0053
22253SOL    HW267338   0.948   4.070   9.698  0.4247 -0.1862  0.0320
22254SOL     OW67339   3.227   3.131   9.102 -0.0271 -0.1762 -0.6950
22254SOL    HW167340   3.217   3.196   9.033  2.1219  1.3993  0.3288
22254SOL    HW267341   3.299   3.075   9.072  1.4242  0.9671  0.4883
22255SOL     OW67342   8.736   0.777   4.740  0.0090  0.5142 -0.1325
22255SOL    HW167343   8.812   0.728   4.770 -0.5042  0.6071  1.3945
22255SOL    HW267344   8.689   0.717   4.682 -0.1871 -0.5215  1.0758
22256SOL     OW67345   8.895   4.530   2.703 -0.0595 -0.0798  0.2430
22256SOL    HW167346   8.944   4.564   2.628 -1.6769 -0.6942 -1.1540
22256SOL    HW267347   8.937   4.446   2.723  0.1807 -0.0611 -0.1732
22257SOL     OW67348   7.617   3.593   0.986 -0.1681 -0.0763 -0.0986
22257SOL    HW167349   7.522   3.588   0.993 -0.2190  2.2491  2.6170
22257SOL    HW267350   7.634   3.674   0.939  0.5099 -0.4467 -0.5213
22258SOL     OW67351   8.344   0.588   7.915  0.0764 -0.4007  0.0490
22258SOL    HW167352   8.407   0.535   7.867 -2.0177 -1.3425 -1.8730
22258SOL    HW267353   8.302   0.526   7.975  0.1592 -0.0510  0.4745
22259SOL     OW67354   7.420   1.592   7.757 -1.1645 -0.5393  1.0180
22259SOL    HW167355   7.354   1.648   7.717 -1.3902 -0.9167  0.8575
22259SOL    HW267356   7.377   1.507   7.767  0.0049 -1.4931 -1.2547
22260SOL     OW67357   8.329   2.162   1.243 -0.2876 -0.4737  0.2552
22260SOL    HW167358   8.422   2.150   1.263  0.0350  0.6301 -0.4366
22260SOL    HW267359   8.322   2.139   1.150 -0.4893  0.4288  0.0394
22261SOL     OW67360   4.772   9.792   3.955 -0.2479 -0.1592 -0.1926
22261SOL    HW167361   4.759   9.887   3.957 -1.9548 -0.2912 -1.9443
22261SOL    HW267362   4.842   9.780   3.890  0.7226 -0.0673  0.8147
22262SOL     OW67363   0.598   1.830   8.320 -0.3318 -0.8412  0.7976
22262SOL    HW167364   0.578   1.883   8.397  0.5417 -2.3652  2.1335
22262SOL    HW267365   0.687   1.798   8.335  0.4313 -0.0133 -1.5565
22263SOL     OW67366   9.636   4.449   5.364  0.5359  0.1221  0.5926
22263SOL    HW167367   9.701   4.388   5.330  0.7838  0.7882 -0.1791
22263SOL    HW267368   9.678   4.535   5.357  0.2743  0.3767  1.8372
22264SOL     OW67369   3.588   2.192   3.889 -0.3572 -0.0883  0.5258
22264SOL    HW167370   3.541   2.218   3.810  2.4388  1.3609 -0.8162
22264SOL    HW267371   3.570   2.099   3.899 -2.7106  0.2087 -0.3720
22265SOL     OW67372   5.297   5.940   4.103  0.4420  0.1426 -0.0862
22265SOL    HW167373   5.259   5.874   4.161 -0.1741 -0.0465 -0.6931
22265SOL    HW267374   5.249   5.930   4.021  1.1061  0.5976 -0.5405
22266SOL     OW67375   4.274   5.478   0.785 -0.2032 -0.3142 -0.1108
22266SOL    HW167376   4.212   5.531   0.735 -1.2161 -0.5878  0.8182
22266SOL    HW267377   4.220   5.416   0.834  0.6430  0.4524  1.9474
22267SOL     OW67378   4.569   6.395   6.224 -0.1339  0.0640  0.4215
22267SOL    HW167379   4.614   6.322   6.267  0.0509 -0.1190 -0.0734
22267SOL    HW267380   4.596   6.389   6.132  0.3706  1.1293  0.4882
22268SOL     OW67381   0.149   9.436   0.454  0.3185  0.0186  0.9540
22268SOL    HW167382   0.082   9.406   0.515 -0.3402  0.9458  0.7038
22268SOL    HW267383   0.141   9.378   0.378  0.9767 -0.9799  1.6178
22269SOL     OW67384   1.543   0.414   4.273 -0.0613 -0.0928 -0.6646
22269SOL    HW167385   1.513   0.337   4.224  1.3345 -1.5015  0.6012
22269SOL    HW267386   1.634   0.425   4.247 -0.1019  0.8483 -0.4495
22270SOL     OW67387   3.243   1.103   1.652 -0.0217 -0.2154 -0.1958
22270SOL    HW167388   3.179   1.042   1.617  0.1436 -0.2870 -0.3789
22270SOL    HW267389   3.226   1.185   1.605 -1.2873  0.3484  1.1872
22271SOL     OW67390   5.170   1.706   9.174  0.2028  0.1438 -0.1553
22271SOL    HW167391   5.140   1.789   9.138  2.4407  1.4586  0.7859
22271SOL    HW267392   5.173   1.721   9.269  2.0508 -0.4380 -0.0702
22272SOL     OW67393   4.524   5.470   2.135 -0.1004  0.0590  0.0784
22272SOL    HW167394   4.605   5.432   2.169  0.1805  0.1135 -0.5060
22272SOL    HW267395   4.553   5.543   2.080 -0.5503  0.1587 -0.0322
22273SOL     OW67396   7.070   7.713   4.720  0.2245 -0.1859  0.1934
22273SOL    HW167397   7.153   7.666   4.725  0.9022  0.9122 -0.2143
22273SOL    HW267398   7.036   7.692   4.632  0.4625 -0.0084  0.0589
22274SOL     OW67399   7.726   2.985   9.711  0.2842  0.4653  0.0671
22274SOL    HW167400   7.776   3.066   9.705 -0.6259  1.1283  1.1243
22274SOL    HW267401   7.677   2.980   9.630  1.6320  0.0732 -0.7570
22275SOL     OW67402   9.189   4.207   7.668  0.3310  0.0898  0.0492
22275SOL    HW167403   9.185   4.300   7.691 -0.2311 -0.1406  0.9454
22275SOL    HW267404   9.219   4.164   7.749 -0.3201 -0.6048 -0.0733
22276SOL     OW67405   8.644   7.683   5.993 -0.6060  0.2454 -0.0384
22276SOL    HW167406   8.714   7.621   6.013  0.1631  1.0288 -0.2417
22276SOL    HW267407   8.648   7.747   6.064  0.5650  1.7046 -1.3563
22277SOL     OW67408   3.252   8.996   8.141  0.7299 -0.4798 -0.4405
22277SOL    HW167409   3.209   8.954   8.066 -2.4022 -1.4933  1.6939
22277SOL    HW267410   3.190   9.062   8.170  1.6305 -0.4438  1.5344
22278SOL     OW67411   2.448   9.748   7.182 -0.3927  0.4821 -0.4173
22278SOL    HW167412   2.475   9.656   7.182 -0.9675  0.2808 -1.6111
22278SOL    HW267413   2.354   9.744   7.165 -0.3515  1.3088 -0.8691
22279SOL     OW67414   4.645   7.638   0.827  0.4696 -0.5525  0.3464
22279SOL    HW167415   4.552   7.658   0.818  0.6014  0.2181  0.5869
22279SOL    HW267416   4.681   7.714   0.874  1.4480 -0.2275 -0.8786
22280SOL     OW67417   6.887   6.732   4.576  0.2651 -0.0417  0.1479
22280SOL    HW167418   6.840   6.736   4.493  2.0346  0.2888 -0.8911
22280SOL    HW267419   6.841   6.794   4.633 -1.3827 -0.7690 -0.3365
22281SOL     OW67420   8.663   7.290   2.726 -0.1753 -0.2038 -0.3388
22281SOL    HW167421   8.571   7.288   2.755 -0.3014  1.7451 -0.4498
22281SOL    HW267422   8.705   7.219   2.774 -1.7421 -1.1463 -0.2935
22282SOL     OW67423   3.035   3.905   8.122  0.3624  0.6552 -0.4421
22282SOL    HW167424   3.116   3.889   8.073  1.7417 -0.1402  1.9526
22282SOL    HW267425   3.022   3.825   8.174 -1.9375  0.8119 -0.6682
22283SOL     OW67426   3.108   4.056   8.896 -0.1108  0.5169  0.4445
22283SOL    HW167427   3.046   4.121   8.863  0.9580  0.8139 -1.1135
22283SOL    HW267428   3.193   4.100   8.893  0.5853 -0.7972 -0.2871
22284SOL     OW67429   2.498   3.912   1.658  0.8494  0.1747  0.2937
22284SOL    HW167430   2.560   3.844   1.631  0.8147  0.9261 -1.8117
22284SOL    HW267431   2.552   3.990   1.672  0.7977 -0.0611  2.0174
22285SOL     OW67432   1.516   7.281   0.370 -0.0067 -0.6140  0.1892
22285SOL    HW167433   1.572   7.271   0.293  1.4354  0.3647  1.0771
22285SOL    HW267434   1.440   7.225   0.352  0.5929 -0.8874 -1.6558
22286SOL     OW67435   9.272   3.281   3.716  0.5063 -0.2683  0.0808
22286SOL    HW167436   9.231   3.213   3.663 -0.1908  0.0782  0.1602
22286SOL    HW267437   9.201   3.314   3.772  0.9494  0.1847  0.3847
22287SOL     OW67438   3.804   9.519   3.615  0.5279 -0.3182  0.2504
22287SOL    HW167439   3.792   9.520   3.710  0.4472 -0.6538  0.2453
22287SOL    HW267440   3.753   9.444   3.586  0.5949 -0.2450 -0.0537
22288SOL     OW67441   4.107   6.080   2.813  0.0989 -0.0536  0.1517
22288SOL    HW167442   4.147   6.152   2.766  1.3464 -0.4488  0.5596
22288SOL    HW267443   4.061   6.029   2.746 -0.5340  0.9327 -0.1793
22289SOL     OW67444   6.419   9.274   7.805 -0.1927  0.1443  0.2348
22289SOL    HW167445   6.481   9.273   7.878  0.7226  0.4593 -0.5314
22289SOL    HW267446   6.400   9.367   7.791 -1.1169  0.0392  0.6815
22290SOL     OW67447   7.432   4.920   5.210  0.0339  0.7460  0.3511
22290SOL    HW167448   7.521   4.896   5.184 -0.2171  0.9888 -0.7858
22290SOL    HW267449   7.439   5.010   5.241 -0.1308  1.5037 -1.6803
22291SOL     OW67450   6.841   4.340   9.921 -0.3898  0.3108 -0.2627
22291SOL    HW167451   6.896   4.389   9.981 -0.9818 -0.0664  0.5999
22291SOL    HW267452   6.853   4.383   9.836  1.9755 -0.3212 -0.3237
22292SOL     OW67453   0.565   9.932   6.663  0.2753 -0.6372 -0.0130
22292SOL    HW167454   0.653   9.968   6.656  0.0250  0.0776  0.4089
22292SOL    HW267455   0.516   9.974   6.592  0.0349 -0.2979  0.3505
22293SOL     OW67456   6.525   2.706   3.819  1.0243 -0.1588  0.0816
22293SOL    HW167457   6.597   2.769   3.820  2.0740 -1.3121 -0.1061
22293SOL    HW267458   6.520   2.677   3.728  1.1768 -1.0261  0.3439
22294SOL     OW67459   3.764   0.659   6.285 -0.3458  0.1950 -0.0864
22294SOL    HW167460   3.678   0.619   6.301  0.7491 -1.5869  1.7431
22294SOL    HW267461   3.759   0.743   6.330 -0.2960 -1.0458  2.4173
22295SOL     OW67462   6.112   6.046   2.317 -0.5328 -0.9025  0.3957
22295SOL    HW167463   6.179   6.082   2.376 -0.7370  0.1511  0.0077
22295SOL    HW267464   6.140   5.956   2.301  0.0340 -0.9117  1.3521
22296SOL     OW67465   1.075   3.211   7.324  0.2345  0.0017  0.2530
22296SOL    HW167466   1.162   3.206   7.364  0.8158  0.5673 -0.8666
22296SOL    HW267467   1.025   3.142   7.367  1.4845 -0.8779  0.3697
22297SOL     OW67468   0.455   3.816   9.086 -0.3565 -0.0493 -0.2674
22297SOL    HW167469   0.367   3.854   9.082 -0.6622 -0.8356 -1.5297
22297SOL    HW267470   0.511   3.881   9.043 -0.4210  0.1765 -0.0110
22298SOL     OW67471   1.043   8.783   0.901 -0.2496  0.0973  0.1301
22298SOL    HW167472   1.132   8.803   0.932 -0.5356  0.7479  0.5562
22298SOL    HW267473   1.044   8.689   0.885  0.3307 -0.0119  0.7647
22299SOL     OW67474   7.711   6.782   3.888 -0.3323  0.1503 -0.3814
22299SOL    HW167475   7.627   6.825   3.906 -1.1789 -1.5952 -0.0207
22299SOL    HW267476   7.689   6.707   3.834  0.7876 -1.1455  0.8827
22300SOL     OW67477   5.598   1.353   5.759  0.1861 -0.7842 -0.2024
22300SOL    HW167478   5.557   1.306   5.687 -1.2476  1.7267 -1.1444
22300SOL    HW267479   5.526   1.373   5.818  0.9038 -0.4682  0.5823
22301SOL     OW67480   8.921   1.759   3.167  0.2817 -0.0469  0.0037
22301SOL    HW167481   8.936   1.789   3.077 -2.0256  0.0718 -0.3950
22301SOL    HW267482   8.836   1.716   3.164  0.2629 -0.2503  2.0968
22302SOL     OW67483   3.538   4.553   1.909 -0.1496  0.0540 -0.2115
22302SOL    HW167484   3.626   4.568   1.942  0.1518 -1.2781 -0.3426
22302SOL    HW267485   3.534   4.458   1.894 -1.8364 -0.0102  0.4689
22303SOL     OW67486   3.813   6.209   1.609 -0.3540 -0.2357 -0.0367
22303SOL    HW167487   3.754   6.230   1.681  0.9302  0.9063  0.7281
22303SOL    HW267488   3.856   6.128   1.636  1.3203  1.0326  1.3173
22304SOL     OW67489   8.708   9.925   2.004 -0.2762 -0.3001 -0.2656
22304SOL    HW167490   8.652   9.994   2.042  0.4947  0.4246 -0.4192
22304SOL    HW267491   8.745   9.880   2.080  1.1914  1.0909 -0.0984
22305SOL     OW67492   8.898   6.374   8.916  0.1603 -0.4168  0.0688
22305SOL    HW167493   8.903   6.457   8.869 -2.7017  0.6225  1.4110
22305SOL    HW267494   8.839   6.320   8.864  0.3222 -0.8409  0.3144
22306SOL     OW67495   9.908   3.632   4.590  0.1399 -0.4323 -0.9001
22306SOL    HW167496   9.892   3.651   4.683  0.1674 -0.2426 -0.9324
22306SOL    HW267497   9.985   3.576   4.590 -0.3244 -1.0858 -0.7634
22307SOL     OW67498   0.866   5.720   7.874  0.3695 -0.3889 -0.1928
22307SOL    HW167499   0.937   5.718   7.938  1.5621  1.7822 -1.3557
22307SOL    HW267500   0.902   5.676   7.796  0.2949  0.3335 -0.6423
22308SOL     OW67501   7.033   9.004   4.306 -0.2251 -1.1208 -0.0981
22308SOL    HW167502   6.996   9.066   4.244  0.3155  0.4961  1.1075
22308SOL    HW267503   6.976   8.927   4.301 -1.1896 -0.3621 -1.3119
22309SOL     OW67504   0.129   6.439   9.502  0.2228 -0.2187 -0.1119
22309SOL    HW167505   0.199   6.395   9.454 -1.1079 -2.1969 -0.3531
22309SOL    HW267506   0.081   6.487   9.435  0.5237  0.0116 -0.1653
22310SOL     OW67507   9.360   6.500   2.662 -0.6797  0.2757 -0.1363
22310SOL    HW167508   9.423   6.441   2.705 -2.2503 -2.4074 -1.2678
22310SOL    HW267509   9.414   6.572   2.630  1.8106 -1.6587 -0.6797
22311SOL     OW67510   4.932   1.943   0.785  0.3911  0.0046 -0.0787
22311SOL    HW167511   4.915   1.986   0.868  0.7108 -0.1271  0.0578
22311SOL    HW267512   4.848   1.908   0.757  0.2163  0.3440  0.0215
22312SOL     OW67513   9.404   5.649   2.071 -0.0153  0.3309  0.2185
22312SOL    HW167514   9.318   5.691   2.076 -0.3151 -0.3985  1.2055
22312SOL    HW267515   9.452   5.683   2.146  0.1397 -0.2028  0.3645
22313SOL     OW67516   8.368   2.477   9.743  0.4784 -0.0447  1.0927
22313SOL    HW167517   8.296   2.540   9.742 -1.3887 -1.9669  2.8627
22313SOL    HW267518   8.355   2.427   9.823  3.0492 -1.3715  0.7842
22314SOL     OW67519   7.130   9.152   8.015  0.4937  0.1994 -0.1309
22314SOL    HW167520   7.062   9.211   7.984 -0.3300 -1.2653 -1.2058
22314SOL    HW267521   7.115   9.147   8.110 -0.1854  0.7456 -0.1978
22315SOL     OW67522   2.731   9.433   8.940 -0.2031  0.4269 -0.1920
22315SOL    HW167523   2.641   9.468   8.947 -1.0368 -1.6780  0.2616
22315SOL    HW267524   2.786   9.506   8.968 -1.9320  0.9999  2.0945
22316SOL     OW67525   9.456   2.169   5.078 -0.1984  0.0016 -0.1234
22316SOL    HW167526   9.550   2.156   5.085  0.0411 -0.1671 -2.6497
22316SOL    HW267527   9.439   2.169   4.983 -2.6652  0.5181  0.2546
22317SOL     OW67528   7.812   6.715   4.131  0.1107  0.1171  0.3209
22317SOL    HW167529   7.778   6.747   4.047  0.7964  1.0370  0.3868
22317SOL    HW267530   7.776   6.626   4.139  1.3068 -0.6031 -1.6834
22318SOL     OW67531   3.225   2.361   1.739 -0.1854  0.2683  1.1917
22318SOL    HW167532   3.170   2.388   1.813 -0.2880  0.5106  1.0291
22318SOL    HW267533   3.232   2.440   1.685 -0.5058 -0.0369  0.6944
22319SOL     OW67534   0.309   5.738   7.868  0.0919  0.1845 -0.1601
22319SOL    HW167535   0.370   5.677   7.827  0.1832  0.2054 -0.0544
22319SOL    HW267536   0.317   5.721   7.962  0.7068  0.9049 -0.0738
22320SOL     OW67537   6.580   6.598   7.755 -0.5194 -0.2842 -0.4832
22320SOL    HW167538   6.609   6.596   7.664  0.7487  0.0998 -0.1010
22320SOL    HW267539   6.551   6.688   7.770  0.7460  0.0617 -0.0696
22321SOL     OW67540   5.012   5.599   7.842 -0.5220 -0.1679 -0.3327
22321SOL    HW167541   5.085   5.537   7.840 -0.5870 -0.2941  0.6828
22321SOL    HW267542   4.947   5.562   7.781  0.3038  0.0258 -1.3617
22322SOL     OW67543   4.153   1.408   7.358  0.3151  0.2969 -0.3562
22322SOL    HW167544   4.198   1.344   7.303  1.7081  0.7108  0.2651
22322SOL    HW267545   4.114   1.355   7.428 -0.5508 -0.1041 -1.1055
22323SOL     OW67546   9.594   9.525   6.731 -0.7190 -0.1587  0.3079
22323SOL    HW167547   9.524   9.495   6.672  0.2855  0.2980 -1.1624
22323SOL    HW267548   9.573   9.617   6.748 -0.3338  0.0660 -0.3828
22324SOL     OW67549   9.069   3.775   5.894 -0.0534 -0.5070 -0.4100
22324SOL    HW167550   9.077   3.685   5.863  0.0157 -0.3778 -0.7785
22324SOL    HW267551   9.057   3.826   5.814  1.9638  0.0572 -0.4017
22325SOL     OW67552   7.371   6.902   0.865 -0.7877 -0.4380 -0.0692
22325SOL    HW167553   7.325   6.820   0.847 -1.5809  0.1781 -0.9959
22325SOL    HW267554   7.347   6.959   0.791  2.5311 -0.4985 -1.3492
22326SOL     OW67555   2.421   5.540   1.499 -0.1353  0.1545 -0.3699
22326SOL    HW167556   2.381   5.626   1.506  1.8132  0.9849  1.6843
22326SOL    HW267557   2.484   5.548   1.427  2.0591  1.4504  1.5349
22327SOL     OW67558   5.877   2.034   8.270 -0.0536 -0.4148 -0.4464
22327SOL    HW167559   5.863   1.945   8.236 -0.0269 -0.8498  0.6327
22327SOL    HW267560   5.789   2.068   8.284 -0.0696 -0.1302 -1.1723
22328SOL     OW67561   4.043   5.725   8.758 -0.5101  0.5508 -0.2003
22328SOL    HW167562   4.041   5.709   8.664 -0.7139  1.1718 -0.3050
22328SOL    HW267563   4.062   5.818   8.767  0.2995  0.3375  0.3900
22329SOL     OW67564   9.136   3.887   9.528  0.3390  0.1456 -0.1848
22329SOL    HW167565   9.056   3.938   9.524 -0.1111 -0.5760 -0.5205
22329SOL    HW267566   9.112   3.800   9.496  0.7847 -0.6666  1.5296
22330SOL     OW67567   7.016   7.162   0.467 -0.9409  0.0850 -0.0474
22330SOL    HW167568   7.036   7.255   0.475 -0.8035  0.3788 -2.6470
22330SOL    HW267569   6.994   7.133   0.555 -2.0112  2.8200  0.6669
22331SOL     OW67570   7.577   6.741   1.056  0.1183 -0.2775  0.4304
22331SOL    HW167571   7.602   6.782   1.139 -2.7857 -0.1559  1.3549
22331SOL    HW267572   7.555   6.815   0.999 -2.1485 -0.3317  1.1009
22332SOL     OW67573   1.679   0.603   9.090 -0.2553  0.6927  0.4078
22332SOL    HW167574   1.684   0.548   9.012  0.3184  0.8694  0.3203
22332SOL    HW267575   1.586   0.625   9.097 -0.5816 -0.6836  0.7229
22333SOL     OW67576   8.756   5.507   2.423 -0.3016  1.2238 -0.4037
22333SOL    HW167577   8.809   5.501   2.344 -0.7136  1.9143 -0.7447
22333SOL    HW267578   8.812   5.474   2.493 -0.9553 -2.3908 -1.3932
22334SOL     OW67579   3.915   3.053   8.203 -0.0169  0.0733 -0.2368
22334SOL    HW167580   3.927   3.050   8.108  1.2537  0.6331 -0.1172
22334SOL    HW267581   3.924   3.146   8.226 -0.0534 -0.0879  0.4610
22335SOL     OW67582   3.854   4.635   7.457 -0.1366 -0.3533  0.5028
22335SOL    HW167583   3.810   4.558   7.420  0.8392 -0.1883 -1.0927
22335SOL    HW267584   3.916   4.599   7.520  0.9314 -0.9876 -0.8555
22336SOL     OW67585   7.959   8.132   1.208 -0.0202  0.6157  0.5529
22336SOL    HW167586   7.909   8.199   1.255 -0.6907 -0.7840  1.9054
22336SOL    HW267587   7.898   8.059   1.197  1.6972 -1.2405  2.4670
22337SOL     OW67588   5.397   8.025   3.709  0.5069  0.1333 -0.5524
22337SOL    HW167589   5.439   7.959   3.765 -0.4874  2.0029  2.6882
22337SOL    HW267590   5.435   8.108   3.737 -0.6244  1.2556 -2.1734
22338SOL     OW67591   9.867   7.724   3.514 -0.0418 -0.0280  0.2429
22338SOL    HW167592   9.864   7.657   3.582  0.8819  0.3879  0.7078
22338SOL    HW267593   9.934   7.786   3.543  2.0233 -0.9986 -2.1012
22339SOL     OW67594   3.403   5.985   7.845  0.6284 -0.0835 -0.3977
22339SOL    HW167595   3.335   6.041   7.883 -0.1862 -0.2258 -1.5804
22339SOL    HW267596   3.485   6.023   7.876  0.0495  0.9329 -0.0511
22340SOL     OW67597   2.504   1.621   4.110  0.0371  0.0135  0.7756
22340SOL    HW167598   2.588   1.663   4.087 -0.1709  0.3148  0.5571
22340SOL    HW267599   2.448   1.693   4.138 -1.0004  0.2218 -1.5513
22341SOL     OW67600   4.592   1.284   8.082  0.1279 -0.4226  0.0090
22341SOL    HW167601   4.655   1.293   8.010  0.3375 -1.4270  0.0557
22341SOL    HW267602   4.600   1.366   8.131  0.1125  0.1997 -1.0043
22342SOL     OW67603   4.250   3.276   6.958 -0.4468 -0.3886 -0.1422
22342SOL    HW167604   4.309   3.339   6.917 -2.7622  1.8323 -0.3050
22342SOL    HW267605   4.285   3.263   7.046  1.3837 -0.7760 -0.8865
22343SOL     OW67606   8.501   0.407   9.078 -0.1926 -0.5748 -0.3811
22343SOL    HW167607   8.510   0.319   9.043 -2.8877 -0.9511 -0.3266
22343SOL    HW267608   8.494   0.463   9.000  1.3173 -0.3764 -0.4132
22344SOL     OW67609   2.549   3.864   6.946  0.6111  0.5563  0.6469
22344SOL    HW167610   2.497   3.784   6.947  0.2275  0.7837  0.0654
22344SOL    HW267611   2.510   3.919   7.014  0.1621  0.6746  0.3016
22345SOL     OW67612   4.500   7.549   4.578  0.4746 -0.3001 -0.6436
22345SOL    HW167613   4.497   7.585   4.489 -1.0295 -0.2079 -0.5908
22345SOL    HW267614   4.433   7.598   4.626  1.0666 -0.5414  0.4711
22346SOL     OW67615   3.236   9.294   8.363 -0.1143 -0.0395 -0.4975
22346SOL    HW167616   3.257   9.245   8.443 -0.6037 -0.5946 -0.6963
22346SOL    HW267617   3.316   9.341   8.342  0.1027 -0.0963  0.1752
22347SOL     OW67618   2.440   0.613   9.917 -0.5672  0.2433  1.1715
22347SOL    HW167619   2.359   0.651   9.885 -0.8846 -0.2939  1.3206
22347SOL    HW267620   2.413   0.547   9.981 -0.1382 -1.2200 -0.0699
22348SOL     OW67621   8.816   1.540   2.553  0.4599  0.3789 -0.2778
22348SOL    HW167622   8.881   1.603   2.585  0.5625 -0.5763  1.4872
22348SOL    HW267623   8.767   1.588   2.486 -0.0407  2.6757  1.5951
22349SOL     OW67624   8.929   7.587   1.460 -0.0574  0.5184  0.5115
22349SOL    HW167625   8.902   7.677   1.440  2.4999  1.3826  0.5629
22349SOL    HW267626   8.908   7.576   1.552  1.9011  2.0529  1.2148
22350SOL     OW67627   9.810   8.139   1.291  0.1887 -0.0675  0.1073
22350SOL    HW167628   9.759   8.084   1.351 -1.7636  1.9930  0.5178
22350SOL    HW267629   9.782   8.112   1.204 -1.4184  0.7520  0.3193
22351SOL     OW67630   7.972   6.209   5.022 -0.0323 -0.2809  0.5545
22351SOL    HW167631   8.052   6.254   5.049  0.8125 -0.5081 -1.3556
22351SOL    HW267632   7.948   6.251   4.939  0.0761 -2.4582 -0.6584
22352SOL     OW67633   3.101   3.068   5.982 -0.3303 -0.3209  0.4994
22352SOL    HW167634   3.008   3.055   5.996 -1.1572  0.7316 -3.1557
22352SOL    HW267635   3.107   3.144   5.925  2.6984 -1.0147 -0.2967
22353SOL     OW67636   8.770   0.614   6.571  0.2249 -0.7129 -0.2407
22353SOL    HW167637   8.742   0.523   6.574  1.7187 -1.2074 -0.5849
22353SOL    HW267638   8.850   0.613   6.519  0.9126  0.6207  0.7223
22354SOL     OW67639   0.784   1.754   3.078  0.1197 -0.2263  0.2856
22354SOL    HW167640   0.860   1.722   3.030  0.8702 -0.7652  1.7903
22354SOL    HW267641   0.784   1.849   3.062  1.6387 -0.0844  0.9615
22355SOL     OW67642   8.910   8.590   7.481  0.0966 -0.0778  0.7108
22355SOL    HW167643   8.912   8.499   7.511  0.2409  0.3790  2.1905
22355SOL    HW267644   8.819   8.617   7.493  0.0306 -0.0543  0.1687
22356SOL     OW67645   0.158   2.333   3.353  0.5236  0.3424 -0.1359
22356SOL    HW167646   0.228   2.286   3.308 -0.4642 -1.2213 -0.1256
22356SOL    HW267647   0.203   2.389   3.416  1.7633 -0.6551 -0.0995
22357SOL     OW67648   7.191   2.928   7.368 -0.0096 -0.1341  0.4070
22357SOL    HW167649   7.116   2.968   7.412 -1.6445 -4.0577  1.7097
22357SOL    HW267650   7.162   2.914   7.278  0.4251  1.1090  0.0519
22358SOL     OW67651   5.010   1.243   6.326 -0.6311  0.0546  0.2508
22358SOL    HW167652   5.039   1.276   6.241  1.4732 -1.3941  0.3436
22358SOL    HW267653   5.001   1.149   6.315  0.6466 -0.3000  1.8594
22359SOL     OW67654   1.496   7.005   8.478 -0.2224  0.0830 -0.3507
22359SOL    HW167655   1.554   7.057   8.423  0.5438  1.7550  1.8916
22359SOL    HW267656   1.538   6.919   8.483  0.4663  0.3648 -1.1370
22360SOL     OW67657   1.128   3.720   3.546  0.3275  0.4738  0.0757
22360SOL    HW167658   1.223   3.710   3.548  0.2413 -0.3034  0.6218
22360SOL    HW267659   1.112   3.805   3.589  0.8628  1.4554 -1.5929
22361SOL     OW67660   6.247   4.232   6.883  0.3272 -0.5597  0.4869
22361SOL    HW167661   6.310   4.296   6.850 -1.9248  0.2895 -2.8032
22361SOL    HW267662   6.298   4.173   6.938  3.4881  1.2832 -0.2129
22362SOL     OW67663   5.714   7.626   2.084  0.4345 -0.1476  0.1236
22362SOL    HW167664   5.672   7.541   2.069 -0.7528  0.2142  1.2587
22362SOL    HW267665   5.757   7.646   2.001 -0.0950 -1.3920 -0.4791
22363SOL     OW67666   1.567   5.198   7.588  0.3225 -0.7387 -0.3247
22363SOL    HW167667   1.614   5.127   7.633  0.7901  0.1091  0.5749
22363SOL    HW267668   1.636   5.257   7.558 -0.1113  0.6941  1.2978
22364SOL     OW67669   4.340   2.720   6.455  0.1522 -0.0996 -0.0959
22364SOL    HW167670   4.352   2.672   6.537 -3.4053 -1.9342 -0.4381
22364SOL    HW267671   4.295   2.801   6.482  1.5233  0.6729 -0.0334
22365SOL     OW67672   6.140   3.408   1.217 -0.0944  0.6971  0.0700
22365SOL    HW167673   6.082   3.475   1.251 -0.7801  0.4895 -0.6568
22365SOL    HW267674   6.199   3.455   1.158 -1.4236  0.4953 -1.4736
22366SOL     OW67675   9.923   8.801  -0.027  0.3597 -0.0078 -0.2360
22366SOL    HW167676  10.016   8.801  -0.004  0.9073  1.9651 -2.1643
22366SOL    HW267677   9.877   8.816   0.056  1.9658  2.2297  0.3163
22367SOL     OW67678   4.944   5.304   7.810  0.3392 -0.2230  0.1785
22367SOL    HW167679   4.958   5.298   7.716  0.7598 -1.1054  0.2860
22367SOL    HW267680   4.915   5.217   7.836 -2.3106  0.6845  0.4910
22368SOL     OW67681   9.907   5.077   7.642  0.1808 -0.2836  0.2654
22368SOL    HW167682   9.829   5.023   7.632 -0.9023  1.1249  0.7819
22368SOL    HW267683   9.890   5.130   7.720  0.6139  1.7077 -0.9124
22369SOL     OW67684   8.366   8.393   0.291 -0.2151  0.6593 -0.2650
22369SOL    HW167685   8.407   8.436   0.216 -1.7389  0.4289 -1.2711
22369SOL    HW267686   8.291   8.449   0.313  0.6152  1.1304  1.5922
22370SOL     OW67687   0.296   5.552   4.695 -0.0575  0.3217 -1.0852
22370SOL    HW167688   0.343   5.470   4.705 -0.2970  0.2878 -0.1568
22370SOL    HW267689   0.213   5.528   4.653 -0.9083 -0.1934  0.8087
22371SOL     OW67690   8.933   1.025   0.992 -0.2652  0.1908  0.8509
22371SOL    HW167691   9.022   1.031   0.957 -0.2250 -1.4083  0.6105
22371SOL    HW267692   8.914   1.113   1.024  1.8234  0.2959  1.9281
22372SOL     OW67693   1.681   9.103   1.757  0.1606 -0.7060  0.1953
22372SOL    HW167694   1.620   9.044   1.801  0.1830 -0.3487  0.7176
22372SOL    HW267695   1.640   9.122   1.673 -0.8533  0.1575  0.8506
22373SOL     OW67696   1.490   1.923   2.908 -0.2177  0.0214 -0.0953
22373SOL    HW167697   1.543   1.951   2.833  1.7558 -0.6239  0.9733
22373SOL    HW267698   1.409   1.891   2.869  0.1389  1.0816 -1.8243
22374SOL     OW67699   7.217   0.961   4.331  0.9792 -0.4306 -0.0769
22374SOL    HW167700   7.286   1.009   4.376 -0.1978  1.3148 -0.0017
22374SOL    HW267701   7.214   1.000   4.243 -0.6926  0.4226  0.3168
22375SOL     OW67702   6.063   9.515   3.891 -0.4293  0.0369  0.0206
22375SOL    HW167703   6.024   9.449   3.834  1.3288 -1.4175  0.3990
22375SOL    HW267704   6.030   9.493   3.978 -0.2136 -0.0442  0.0815
22376SOL     OW67705   9.319   8.848   7.464  0.0365  0.2210  0.0908
22376SOL    HW167706   9.364   8.896   7.394 -1.3958  1.1961 -0.1904
22376SOL    HW267707   9.227   8.849   7.439 -0.2015 -1.6824  0.6864
22377SOL     OW67708   1.264   7.526   4.862  0.2519 -0.6293  0.4617
22377SOL    HW167709   1.290   7.517   4.954  0.6715  2.0483  0.6751
22377SOL    HW267710   1.179   7.483   4.857 -0.2732  0.0913  2.3631
22378SOL     OW67711   0.736   8.299   5.489 -0.0361 -0.1637 -0.2392
22378SOL    HW167712   0.728   8.305   5.394  1.6907  0.2439 -0.3879
22378SOL    HW267713   0.759   8.388   5.516  2.0006 -0.7902  0.2486
22379SOL     OW67714   8.318   4.414   1.677  0.2802 -0.9435  0.3062
22379SOL    HW167715   8.313   4.321   1.698  0.0590 -1.2757 -1.1210
22379SOL    HW267716   8.241   4.430   1.622 -0.2050  0.3041  1.3066
22380SOL     OW67717   2.786   0.996   7.321 -0.3324 -0.2756  0.2495
22380SOL    HW167718   2.754   0.968   7.235  0.3244 -1.4537  0.3670
22380SOL    HW267719   2.708   1.007   7.374 -0.7638  0.7488 -0.5767
22381SOL     OW67720   2.993   7.394   1.644  0.1247  0.2344 -0.0578
22381SOL    HW167721   3.082   7.376   1.673  1.3771  2.0108 -2.3884
22381SOL    HW267722   2.954   7.307   1.633  1.2434 -0.5697  1.7894
22382SOL     OW67723   5.658   7.781   7.734 -0.1118  0.3651  0.6099
22382SOL    HW167724   5.720   7.853   7.746  0.5461 -0.3284  1.5044
22382SOL    HW267725   5.574   7.817   7.761 -0.1099  1.2952 -0.5454
22383SOL     OW67726   5.556   9.085   4.490  0.0778 -0.4304  0.2331
22383SOL    HW167727   5.507   9.068   4.571 -0.2644  0.8048  0.3151
22383SOL    HW267728   5.577   9.178   4.495  3.0233 -1.0124  0.5027
22384SOL     OW67729   3.457   5.395   9.240  0.2147  0.3837 -0.0142
22384SOL    HW167730   3.507   5.477   9.249  1.0336 -0.1591  0.5195
22384SOL    HW267731   3.435   5.391   9.147  1.7158  0.3363 -0.3900
22385SOL     OW67732  -0.013   1.103   2.661  0.3417 -0.3454 -0.0123
22385SOL    HW167733  -0.039   1.127   2.573  0.8858  0.5376  0.0543
22385SOL    HW267734   0.075   1.066   2.652  1.1507  1.4067  0.3470
22386SOL     OW67735   4.428   8.433   8.248  0.0262  0.4700 -0.3285
22386SOL    HW167736   4.399   8.352   8.289  0.4407  0.6589  0.3542
22386SOL    HW267737   4.366   8.448   8.176  0.7449 -1.1744 -1.3424
22387SOL     OW67738   2.834   6.835   3.561 -0.0402 -0.2621  0.1350
22387SOL    HW167739   2.792   6.813   3.478 -1.5125 -1.4720  1.1587
22387SOL    HW267740   2.764   6.869   3.616  0.1992 -2.4337  1.9274
22388SOL     OW67741   5.779   9.290   3.546  0.2097 -0.0418  0.1152
22388SOL    HW167742   5.692   9.329   3.548 -0.3096 -1.1599  0.0904
22388SOL    HW267743   5.770   9.213   3.490  1.8128  1.1394 -1.9219
22389SOL     OW67744   2.611   2.896   1.308 -0.5606  0.4998 -0.1108
22389SOL    HW167745   2.680   2.953   1.342  0.2891 -1.5930  1.9867
22389SOL    HW267746   2.649   2.857   1.229  0.1313  0.4289  0.2471
22390SOL     OW67747   0.945   8.643   7.799  0.0786 -0.3768 -0.6789
22390SOL    HW167748   1.025   8.606   7.835  0.4175  0.2800 -0.7430
22390SOL    HW267749   0.933   8.726   7.846 -0.5518 -0.4589 -0.6821
22391SOL     OW67750   8.108   9.815   2.608 -0.5879 -0.1811 -0.3801
22391SOL    HW167751   8.187   9.777   2.570 -1.4032 -0.4340 -1.8901
22391SOL    HW267752   8.047   9.824   2.535 -1.2408  1.9632  0.3541
22392SOL     OW67753   6.472   3.259   7.308 -0.1859  0.2552  0.3745
22392SOL    HW167754   6.420   3.338   7.294  1.0447  0.8643 -1.1896
22392SOL    HW267755   6.480   3.220   7.221 -1.1602 -1.9047  1.1812
22393SOL     OW67756   3.317   2.534   2.390 -0.1285  0.2012 -0.6320
22393SOL    HW167757   3.394   2.580   2.422  0.4909 -0.8989 -0.4792
22393SOL    HW267758   3.352   2.455   2.349 -1.2087 -0.6837  0.0976
22394SOL     OW67759   9.439   9.508   1.440  0.2112 -0.0130  0.6112
22394SOL    HW167760   9.354   9.475   1.468  0.4894 -0.3865  1.0263
22394SOL    HW267761   9.490   9.514   1.521  0.7294 -0.2392  0.3072
22395SOL     OW67762   1.477   0.312   2.066  0.0065  0.7170  0.5096
22395SOL    HW167763   1.487   0.376   1.996  2.6633  1.8106  1.7047
22395SOL    HW267764   1.531   0.238   2.038  0.8790  1.0600  1.2168
22396SOL     OW67765   4.067   8.167   5.521  0.4525 -0.4088  0.4357
22396SOL    HW167766   4.039   8.255   5.499 -0.2019 -0.9563 -1.1110
22396SOL    HW267767   4.083   8.169   5.616 -1.1839  0.9180  0.7267
22397SOL     OW67768   1.489   0.012   8.766 -0.3735 -0.5549 -0.1569
22397SOL    HW167769   1.564   0.068   8.787  0.2146 -0.4613 -2.3526
22397SOL    HW267770   1.523  -0.052   8.704 -2.1225 -0.4561 -1.2596
22398SOL     OW67771   0.764   9.896   9.871 -0.2897 -0.0515 -0.2870
22398SOL    HW167772   0.674   9.863   9.883 -0.6602  1.5154  1.7209
22398SOL    HW267773   0.816   9.845   9.933 -0.7006  2.2436  2.1108
22399SOL     OW67774   5.485   7.748   9.671  0.1432  0.2360 -0.3496
22399SOL    HW167775   5.446   7.800   9.600  0.2311  0.0610 -0.5264
22399SOL    HW267776   5.574   7.729   9.641 -0.4006 -1.4133 -1.0323
22400SOL     OW67777   9.528   1.021   9.094  0.6509  0.0959  0.3671
22400SOL    HW167778   9.601   0.995   9.151  1.9493  0.8537 -0.8928
22400SOL    HW267779   9.491   1.099   9.136  2.3064  1.3181 -0.3440
22401SOL     OW67780   3.353   1.864   1.012 -0.0691 -0.1539  0.0641
22401SOL    HW167781   3.379   1.788   0.961 -0.8322 -1.5829  1.7082
22401SOL    HW267782   3.257   1.864   1.010 -0.0933  1.2550 -0.5489
22402SOL     OW67783   7.087   3.311   4.254 -0.8694  0.6075  0.0476
22402SOL    HW167784   7.071   3.359   4.335 -2.3931  1.2993 -0.6144
22402SOL    HW267785   7.048   3.225   4.269 -1.1442  0.7328  0.0515
22403SOL     OW67786   9.262   9.803   2.836 -0.2997  0.0355 -0.4515
22403SOL    HW167787   9.343   9.761   2.805 -0.4566 -1.5154  1.0243
22403SOL    HW267788   9.291   9.861   2.906 -0.5602 -2.2630  1.7134
22404SOL     OW67789   5.949   4.303   9.748 -0.2032 -0.1658 -0.4963
22404SOL    HW167790   6.024   4.320   9.805 -0.4349 -0.4911 -0.0791
22404SOL    HW267791   5.943   4.379   9.691 -1.6396  1.5482  1.7473
22405SOL     OW67792   5.700   9.708   8.585  0.4897 -0.0818 -0.1046
22405SOL    HW167793   5.637   9.636   8.582  0.8038 -0.3489 -0.5277
22405SOL    HW267794   5.647   9.787   8.593  0.0857 -0.2915 -0.6221
22406SOL     OW67795   7.404   3.687   1.631 -0.0577 -0.1819 -0.5087
22406SOL    HW167796   7.404   3.644   1.717 -0.0320  1.3465  0.2937
22406SOL    HW267797   7.487   3.734   1.628 -1.2185  2.0726 -0.1071
22407SOL     OW67798   7.137   4.199   5.343 -0.1897  0.1408  0.7708
22407SOL    HW167799   7.173   4.261   5.279  0.2748  0.4107  1.2810
22407SOL    HW267800   7.082   4.253   5.400 -0.0029  0.0402  1.0502
22408SOL     OW67801   5.809   8.433   8.936 -0.4986  0.0475  0.4013
22408SOL    HW167802   5.800   8.454   8.843  0.1577 -0.4229  0.2274
22408SOL    HW267803   5.813   8.519   8.979  0.5673  0.3016 -0.1477
22409SOL     OW67804   4.645   6.934   8.271  0.0975 -0.0072  0.1798
22409SOL    HW167805   4.633   6.901   8.360  0.3022  1.7133  0.8867
22409SOL    HW267806   4.586   7.009   8.265  2.1221  1.6615 -0.1299
22410SOL     OW67807   0.049   5.146   6.219 -0.1463  0.0889 -0.1474
22410SOL    HW167808  -0.012   5.158   6.292  0.0252  0.6389 -0.0918
22410SOL    HW267809   0.033   5.221   6.162 -0.1475 -0.2394 -0.5872
22411SOL     OW67810   0.167   1.067   0.511  0.0904  0.2202  0.0953
22411SOL    HW167811   0.263   1.059   0.509 -0.0300 -1.3822 -0.3378
22411SOL    HW267812   0.142   1.033   0.596 -0.3110 -2.8279 -1.1311
22412SOL     OW67813   4.861   9.597   2.853 -0.0382 -0.9577 -0.4799
22412SOL    HW167814   4.812   9.623   2.776 -0.7589  1.0739  0.5904
22412SOL    HW267815   4.951   9.624   2.835 -0.3880  0.4201 -0.2464
22413SOL     OW67816   2.566   0.606   2.278  0.2597 -0.2657  0.6481
22413SOL    HW167817   2.499   0.562   2.227  0.1202  0.7986 -0.1333
22413SOL    HW267818   2.582   0.549   2.353 -0.6891 -1.0779  0.2445
22414SOL     OW67819   9.797   3.115   1.103 -0.3626 -0.7744  0.0697
22414SOL    HW167820   9.708   3.109   1.068 -1.2487  1.5769  1.6703
22414SOL    HW267821   9.800   3.049   1.171 -0.1287 -2.2834 -1.3418
22415SOL     OW67822   3.993   8.400   1.579 -0.4817  0.3873 -0.0658
22415SOL    HW167823   3.948   8.357   1.652  0.7010  0.4647  0.7432
22415SOL    HW267824   4.072   8.348   1.565 -0.6956  0.3713 -1.3182
22416SOL     OW67825   3.428   6.740   5.040 -0.2424  0.2879  0.0904
22416SOL    HW167826   3.346   6.748   4.992 -0.1549 -0.9631 -0.3081
22416SOL    HW267827   3.440   6.646   5.052  1.8016  0.3363 -1.0648
22417SOL     OW67828   6.921   1.115   6.016 -0.8493  0.1462  0.1148
22417SOL    HW167829   6.984   1.117   6.089 -0.3597 -1.1933 -0.2414
22417SOL    HW267830   6.891   1.206   6.008  1.8572  1.0972 -0.3953
22418SOL     OW67831   1.097   2.261   5.311  0.2217  0.1042 -0.3796
22418SOL    HW167832   1.166   2.293   5.253 -0.2010  1.6389 -0.0857
22418SOL    HW267833   1.022   2.248   5.253  0.0097  0.9513 -0.3109
22419SOL     OW67834   7.142   4.960   4.315 -0.1921 -0.3613  0.2049
22419SOL    HW167835   7.083   4.951   4.240  0.1760 -0.5412 -0.0689
22419SOL    HW267836   7.093   4.923   4.389 -0.9187  0.6583  0.2523
22420SOL     OW67837   2.526   9.840   9.393  0.2820  0.3435  0.1179
22420SOL    HW167838   2.519   9.929   9.359  0.2474  0.5205  0.5881
22420SOL    HW267839   2.444   9.798   9.367 -0.0210  0.6682  0.5245
22421SOL     OW67840   8.670   3.824   3.750 -0.5061 -0.1306 -0.3689
22421SOL    HW167841   8.679   3.906   3.701  3.0862  1.3024  2.2204
22421SOL    HW267842   8.653   3.851   3.840  0.3677 -2.1931  0.4984
22422SOL     OW67843   5.872   5.822   0.619 -0.4389 -0.1212  0.1168
22422SOL    HW167844   5.835   5.901   0.660 -0.6476 -0.1410 -0.0263
22422SOL    HW267845   5.953   5.805   0.666 -0.9943 -0.5200  0.9443
22423SOL     OW67846   1.110   7.421   0.230 -0.2303 -0.1555  0.6140
22423SOL    HW167847   1.153   7.503   0.207  0.1322 -0.2377  0.9879
22423SOL    HW267848   1.141   7.401   0.318 -1.2299 -0.0949  0.9943
22424SOL     OW67849   1.875   6.856   5.606  0.0207  0.1844 -0.2732
22424SOL    HW167850   1.826   6.902   5.538 -2.2267 -1.8391 -0.1563
22424SOL    HW267851   1.966   6.858   5.576 -0.3497  2.4792 -1.4421
22425SOL     OW67852   0.313   1.543   2.457  0.0368 -0.2491  0.3004
22425SOL    HW167853   0.362   1.563   2.378  1.3664 -3.4758  0.1612
22425SOL    HW267854   0.376   1.552   2.528 -0.6074  0.6368  0.7777
22426SOL     OW67855   3.030   1.970   1.510  0.1012 -0.2608  0.7667
22426SOL    HW167856   2.936   1.985   1.514  0.1985  0.1812  2.0683
22426SOL    HW267857   3.058   1.971   1.602  1.0696 -2.4441  0.5641
22427SOL     OW67858   0.604   3.703   6.598  0.4948  0.4509 -0.8615
22427SOL    HW167859   0.643   3.706   6.510  0.9577  0.6357 -0.6507
22427SOL    HW267860   0.609   3.793   6.629 -0.4242  0.5457 -0.9665
22428SOL     OW67861   0.129   3.425   7.132  0.6245  0.0708 -0.0177
22428SOL    HW167862   0.208   3.466   7.168  0.3141  0.8940 -0.2407
22428SOL    HW267863   0.119   3.464   7.045  0.7476 -1.0795 -0.5649
22429SOL     OW67864   1.076   5.768   6.357 -0.3606 -0.1256  0.2863
22429SOL    HW167865   1.089   5.842   6.297 -1.0119 -0.2402  0.0001
22429SOL    HW267866   1.068   5.692   6.300 -0.3159 -0.3305  0.5520
22430SOL     OW67867   3.127   6.116   3.634  0.4151  0.0535  0.0649
22430SOL    HW167868   3.134   6.029   3.674 -1.1875  0.8936  2.3698
22430SOL    HW267869   3.096   6.098   3.545  0.5442 -1.7549  0.3397
22431SOL     OW67870   8.318   7.680   5.332  0.2030 -0.8145  0.0516
22431SOL    HW167871   8.270   7.676   5.415  0.0493 -1.6140 -0.0674
22431SOL    HW267872   8.314   7.590   5.298  0.4754 -0.5470 -0.6999
22432SOL     OW67873   8.474   6.335   1.469  0.2466 -0.0449  0.4926
22432SOL    HW167874   8.538   6.303   1.532  1.4138 -0.8147 -1.0106
22432SOL    HW267875   8.458   6.426   1.496  1.8448  0.1143  1.0265
22433SOL     OW67876   9.920   9.801   9.739  0.1827  0.7296  0.1939
22433SOL    HW167877   9.840   9.827   9.692  0.7673  1.7761 -0.2452
22433SOL    HW267878   9.937   9.712   9.708 -0.6157  0.6221  0.0262
22434SOL     OW67879   2.276   4.162   7.817  0.3393  0.1881  0.5230
22434SOL    HW167880   2.287   4.088   7.878  1.0408  1.2977  1.7979
22434SOL    HW267881   2.365   4.184   7.791  0.0729  0.0689 -0.5223
22435SOL     OW67882   4.182   6.312   2.692  0.0366 -0.4192  0.2314
22435SOL    HW167883   4.199   6.383   2.755 -0.7549  0.6598 -0.7184
22435SOL    HW267884   4.242   6.331   2.619 -2.8053  1.6409 -1.7799
22436SOL     OW67885   4.422   6.022   1.959  0.2460 -0.0019 -0.4904
22436SOL    HW167886   4.479   6.031   1.882 -1.2988 -0.2545 -1.7149
22436SOL    HW267887   4.337   6.054   1.929 -0.3840 -0.0744  1.1481
22437SOL     OW67888   9.084   8.648   4.147 -0.5705  0.1226 -0.1404
22437SOL    HW167889   9.127   8.733   4.153 -0.1687 -0.0109 -1.0673
22437SOL    HW267890   9.079   8.617   4.238  0.7274  0.4114  0.0446
22438SOL     OW67891   6.616   2.226   0.123  0.2024  0.0450 -0.0896
22438SOL    HW167892   6.592   2.235   0.031 -1.9314 -0.1570  0.3849
22438SOL    HW267893   6.625   2.316   0.154  0.4057  0.1256 -0.3812
22439SOL     OW67894   2.954   7.677   2.691  0.6855 -0.0024  0.2841
22439SOL    HW167895   2.921   7.590   2.711  1.9642 -0.7305 -0.6408
22439SOL    HW267896   2.916   7.699   2.606 -0.0242  0.5686  0.7370
22440SOL     OW67897   8.623   0.219   0.780  0.3007 -0.0323 -0.1791
22440SOL    HW167898   8.567   0.182   0.848 -0.9643 -0.4921 -1.4099
22440SOL    HW267899   8.563   0.238   0.707  1.5464  0.7322 -1.0617
22441SOL     OW67900   9.218   6.019   0.219  0.2015 -0.2811  0.4742
22441SOL    HW167901   9.270   6.057   0.149 -0.4407 -1.5619 -0.7465
22441SOL    HW267902   9.280   5.968   0.271  0.6886  0.7222  0.9076
22442SOL     OW67903   1.915   7.366   4.107  0.1261  0.1522  0.4648
22442SOL    HW167904   1.976   7.302   4.144  0.4759 -2.1986 -3.5880
22442SOL    HW267905   1.971   7.436   4.074  0.4060 -0.5622 -0.6216
22443SOL     OW67906   7.773   1.408   9.163  0.7787 -0.7011 -0.3321
22443SOL    HW167907   7.780   1.425   9.070 -1.5899 -1.9250 -0.7991
22443SOL    HW267908   7.836   1.337   9.179 -0.0406 -1.6958 -1.3806
22444SOL     OW67909   9.397   0.221   8.489 -0.2144  0.3668 -0.1786
22444SOL    HW167910   9.340   0.144   8.495 -2.1421  1.6513 -1.0326
22444SOL    HW267911   9.410   0.248   8.579  0.0062 -0.6080  0.0964
22445SOL     OW67912   6.858   4.975   8.029  0.2286 -0.4354 -0.1281
22445SOL    HW167913   6.846   4.912   8.101 -1.7527  1.1843  1.0665
22445SOL    HW267914   6.777   5.026   8.029  1.3971  1.5146 -1.6434
22446SOL     OW67915   9.628   6.737   3.665  0.0479  0.4611  0.0945
22446SOL    HW167916   9.676   6.763   3.744  0.7425 -0.3641 -0.0456
22446SOL    HW267917   9.571   6.812   3.646 -0.0984  0.6883  1.3491
22447SOL     OW67918   1.667   2.614   5.029  0.4446 -0.8211 -0.3646
22447SOL    HW167919   1.745   2.664   5.005  0.0798 -0.9327 -1.9289
22447SOL    HW267920   1.638   2.652   5.111  0.2701  1.4826 -1.4270
22448SOL     OW67921   3.616   4.669   8.919 -0.4246 -0.4087  0.3747
22448SOL    HW167922   3.562   4.690   8.843  0.6484 -0.7806 -0.5262
22448SOL    HW267923   3.655   4.584   8.898  1.0365  0.1485  0.6793
22449SOL     OW67924   4.723   7.377   5.382 -0.1343 -0.5052 -0.1355
22449SOL    HW167925   4.739   7.397   5.289 -0.2608  3.5566  0.5386
22449SOL    HW267926   4.628   7.370   5.389 -0.2063  0.3492 -0.1617
22450SOL     OW67927   9.304   0.998   6.131 -0.4010 -0.2956 -0.1854
22450SOL    HW167928   9.307   0.939   6.056 -0.4724 -0.9740  0.3407
22450SOL    HW267929   9.373   0.967   6.190  0.3022  0.8272 -0.3964
22451SOL     OW67930   6.458   5.865   4.670  0.3844  0.5376  0.3197
22451SOL    HW167931   6.412   5.782   4.656  0.5413  0.6718 -1.2187
22451SOL    HW267932   6.397   5.918   4.721  0.3949 -0.5977  1.5588
22452SOL     OW67933   3.343   8.685   9.408 -0.2758  0.2396 -0.1974
22452SOL    HW167934   3.264   8.634   9.427 -0.9890  1.0682 -0.8666
22452SOL    HW267935   3.312   8.775   9.399  0.6501  0.4894 -1.0691
22453SOL     OW67936   9.294   2.177   9.551  0.0411 -0.1040 -0.0028
22453SOL    HW167937   9.330   2.138   9.630 -0.4755  0.9037  0.7458
22453SOL    HW267938   9.227   2.115   9.521  0.4646 -0.6397  0.1589
22454SOL     OW67939   9.387   0.543   0.151  0.1348  0.6183  0.1241
22454SOL    HW167940   9.411   0.614   0.091 -0.8940  2.3514  1.6753
22454SOL    HW267941   9.471   0.516   0.189  0.7810 -0.3717 -1.8518
22455SOL     OW67942   5.345   3.342   8.640 -0.1138  0.4246  0.4469
22455SOL    HW167943   5.266   3.308   8.599 -0.7376  1.2085  0.9669
22455SOL    HW267944   5.389   3.392   8.571 -1.3308  2.0230  0.7580
22456SOL     OW67945   4.134   9.508   8.820  0.5050 -0.1668  0.1939
22456SOL    HW167946   4.164   9.507   8.729  1.5030 -1.4139  0.5106
22456SOL    HW267947   4.180   9.435   8.861  0.0865  0.3963  1.7166
22457SOL     OW67948   5.917   2.610   2.141 -0.6701  0.0081 -0.0500
22457SOL    HW167949   5.886   2.573   2.223 -2.1046 -0.1830 -0.6517
22457SOL    HW267950   5.950   2.697   2.165  0.6306 -0.7462  1.0033
22458SOL     OW67951   0.585   5.959   4.389 -0.3791  0.0457 -0.1326
22458SOL    HW167952   0.549   5.933   4.304 -1.6379  0.3941  0.2714
22458SOL    HW267953   0.573   5.882   4.445  1.1294 -0.4491 -0.4381
22459SOL     OW67954   7.222   4.420   1.355 -0.1653  0.0618 -0.6221
22459SOL    HW167955   7.127   4.429   1.362 -0.2410 -1.3433  0.5351
22459SOL    HW267956   7.255   4.453   1.439  0.2373 -1.0348 -0.3360
22460SOL     OW67957   6.460   3.856   3.698  0.0162 -0.5186 -0.0167
22460SOL    HW167958   6.503   3.783   3.654 -1.3603 -0.9330 -0.7210
22460SOL    HW267959   6.430   3.820   3.782  0.1777 -0.4939  0.0522
22461SOL     OW67960   1.495   1.536   2.311 -0.4099 -0.2301 -0.0258
22461SOL    HW167961   1.570   1.477   2.304 -0.5034 -0.4786  0.9386
22461SOL    HW267962   1.510   1.585   2.392 -1.4641 -0.5293  0.3647
22462SOL     OW67963   6.944   0.133   7.120  0.0529 -0.2387 -0.0571
22462SOL    HW167964   6.909   0.071   7.055  1.4474  0.1929 -1.2798
22462SOL    HW267965   6.914   0.218   7.089  0.0372 -0.1020  0.3357
22463SOL     OW67966   5.444   5.954   5.050  0.2705  0.2271  0.7531
22463SOL    HW167967   5.489   5.974   4.967 -0.8664 -0.4216 -0.0464
22463SOL    HW267968   5.497   5.885   5.089  0.0440 -0.4727 -0.1361
22464SOL     OW67969   3.518   1.848   5.031  0.3554 -0.6224  0.0179
22464SOL    HW167970   3.572   1.774   5.002  0.6981 -0.5208  0.3747
22464SOL    HW267971   3.461   1.811   5.099  0.4676 -0.5816  0.1360
22465SOL     OW67972   7.773   0.313   9.654  0.0105  0.3699 -0.9665
22465SOL    HW167973   7.868   0.304   9.653 -0.1650 -2.7841  0.1483
22465SOL    HW267974   7.754   0.372   9.727  1.0901 -0.6662  0.1993
22466SOL     OW67975   9.194   1.235   1.073 -0.3293 -0.0348 -0.2462
22466SOL    HW167976   9.242   1.205   0.995 -0.7066 -1.2114 -0.0527
22466SOL    HW267977   9.212   1.168   1.139 -0.7984  0.4456  0.3781
22467SOL     OW67978   3.613   5.304   4.587  0.1845  0.1426 -0.4659
22467SOL    HW167979   3.699   5.278   4.555  0.0989 -1.7575  0.7488
22467SOL    HW267980   3.621   5.399   4.602  1.9930  0.0369 -0.5485
22468SOL     OW67981   3.089   2.970   7.274  0.1862  0.0551 -0.3399
22468SOL    HW167982   3.104   2.923   7.356  0.9528 -0.6520 -0.8693
22468SOL    HW267983   3.062   2.902   7.212  1.2303  0.3080 -1.0971
22469SOL     OW67984   3.245   1.833   6.704 -0.0482  0.1338  0.2321
22469SOL    HW167985   3.180   1.869   6.763 -0.1934  1.1348 -0.5152
22469SOL    HW267986   3.329   1.854   6.746 -0.1760 -0.8583  1.0235
22470SOL     OW67987   5.583   6.181   2.534 -0.0340 -0.1637 -0.5524
22470SOL    HW167988   5.506   6.129   2.559 -0.4481  1.0713  0.8222
22470SOL    HW267989   5.608   6.146   2.448 -0.9890 -1.8464 -0.1850
22471SOL     OW67990   3.367   5.987   7.267 -0.8198 -0.2506 -0.1971
22471SOL    HW167991   3.439   5.963   7.326 -2.5775 -1.1493  1.7097
22471SOL    HW267992   3.375   5.926   7.193  0.2199 -0.5133  0.1183
22472SOL     OW67993   7.854   1.138   9.068 -0.5341  0.0023  0.5665
22472SOL    HW167994   7.761   1.130   9.087 -0.4224  0.5109  1.4009
22472SOL    HW267995   7.860   1.209   9.004 -0.7608 -0.4380  0.0474
22473SOL     OW67996   2.026   3.581   6.230  0.4280 -0.2966 -0.0086
22473SOL    HW167997   2.078   3.530   6.168 -0.1611  0.9694 -1.6299
22473SOL    HW267998   2.050   3.672   6.212  0.9702  0.1005  2.3483
22474SOL     OW67999   7.007   8.117   3.153 -0.3653  0.5201  0.8869
22474SOL    HW168000   6.975   8.187   3.096  0.1968  1.9815  2.2968
22474SOL    HW268001   7.099   8.138   3.168  0.8740 -2.4833 -1.4197
22475SOL     OW68002   7.788   6.348   5.505 -0.0434  0.1989  0.0088
22475SOL    HW168003   7.869   6.396   5.525 -0.7161  1.6646 -0.6455
22475SOL    HW268004   7.805   6.308   5.419  0.7452 -1.3253  0.8274
22476SOL     OW68005   9.461   4.674   1.784  0.1854 -0.0641  0.3376
22476SOL    HW168006   9.464   4.727   1.704 -2.5058  0.0965  0.2370
22476SOL    HW268007   9.408   4.598   1.760  1.8172 -1.5141  1.2011
22477SOL     OW68008   8.726   2.970   5.583 -0.0688 -0.0883  0.2093
22477SOL    HW168009   8.760   2.955   5.671 -0.0443  0.3425  0.2780
22477SOL    HW268010   8.648   3.024   5.596 -0.5077 -0.6665  0.0186
22478SOL     OW68011   9.720   6.868   7.019 -0.1269  0.1254 -0.4940
22478SOL    HW168012   9.629   6.840   7.023 -0.1745 -0.3742 -3.0972
22478SOL    HW268013   9.715   6.959   6.987  0.2808  0.5060  0.4837
22479SOL     OW68014   5.896   7.776   2.595  0.5911  0.0374 -0.4382
22479SOL    HW168015   5.889   7.713   2.666 -1.9933  1.3618  0.5777
22479SOL    HW268016   5.843   7.739   2.524 -2.0153  1.5128  0.6120
22480SOL     OW68017   6.062   3.844   7.096  0.2352  0.4377  0.1114
22480SOL    HW168018   6.087   3.790   7.171 -0.2909  0.1218  0.0619
22480SOL    HW268019   6.031   3.926   7.135 -1.8252 -0.4164  0.3579
22481SOL     OW68020   8.606   2.743   7.852  0.0441  0.0657  0.8547
22481SOL    HW168021   8.676   2.804   7.829  1.2505 -1.1914  1.1285
22481SOL    HW268022   8.540   2.798   7.895 -0.5781  1.8391 -2.0682
22482SOL     OW68023   4.584   4.930   3.026  0.2046 -0.4015  0.7626
22482SOL    HW168024   4.536   4.910   3.107 -1.3548  0.5242  0.0990
22482SOL    HW268025   4.579   5.025   3.018  0.0808 -0.5066 -0.5839
22483SOL     OW68026   1.984   4.713   3.791  0.4495 -0.7703  0.3127
22483SOL    HW168027   2.017   4.759   3.714  1.3817 -0.2570  1.0045
22483SOL    HW268028   2.042   4.637   3.801  0.1732 -0.9762  0.3614
22484SOL     OW68029   0.667   7.839   2.896 -0.1530  0.1630  0.0322
22484SOL    HW168030   0.743   7.848   2.953  0.0050 -3.6309  0.6941
22484SOL    HW268031   0.697   7.864   2.809  1.4437  0.0020  0.5219
22485SOL     OW68032   2.764   2.950   8.279  0.0190  0.1051  0.3077
22485SOL    HW168033   2.723   2.955   8.366 -0.5240 -1.5043  0.1901
22485SOL    HW268034   2.789   3.040   8.259 -0.9784  0.7117  1.5870
22486SOL     OW68035   1.885   5.730   0.512  0.4499 -0.0666  0.3860
22486SOL    HW168036   1.937   5.732   0.432  1.4631 -1.4102  0.9753
22486SOL    HW268037   1.808   5.678   0.489 -1.0164  2.3776 -0.6457
22487SOL     OW68038   6.965   6.327   7.884  0.4307 -0.2438  1.1196
22487SOL    HW168039   6.869   6.327   7.885  0.4129 -1.5839  1.7422
22487SOL    HW268040   6.990   6.286   7.967  1.5331 -0.5709  0.6432
22488SOL     OW68041   8.210   6.236   1.489 -0.5755  0.8293  0.2733
22488SOL    HW168042   8.300   6.267   1.496 -0.1705 -0.7135  2.9838
22488SOL    HW268043   8.163   6.279   1.560 -1.5047  0.0655  0.1508
22489SOL     OW68044   2.283   3.329   4.478 -0.2248  0.0375  0.1830
22489SOL    HW168045   2.238   3.387   4.540  0.9354 -1.1495  2.2400
22489SOL    HW268046   2.367   3.373   4.461 -0.8252  0.7049 -1.1465
22490SOL     OW68047   8.959   1.781   1.741 -0.4988 -0.3709 -0.0516
22490SOL    HW168048   8.976   1.776   1.835 -1.1917 -1.1009  0.0512
22490SOL    HW268049   9.028   1.837   1.707 -1.1723  1.2698  1.1247
22491SOL     OW68050   9.825   8.250   5.656  0.5987  1.1952 -0.0302
22491SOL    HW168051   9.869   8.274   5.738 -0.7382  0.3128  0.9858
22491SOL    HW268052   9.743   8.300   5.658 -0.2490 -0.1600  0.0511
22492SOL     OW68053   3.775   4.371   3.592 -0.0719  0.0326  0.9005
22492SOL    HW168054   3.816   4.302   3.644 -1.2750 -0.4894  1.2073
22492SOL    HW268055   3.729   4.324   3.522  1.4249  0.7132 -0.6134
22493SOL     OW68056   7.324   0.405   3.172  0.2221  0.4339  0.3813
22493SOL    HW168057   7.287   0.373   3.090  1.4294  2.1101 -0.8748
22493SOL    HW268058   7.277   0.486   3.190  0.9188  0.8031  0.5831
22494SOL     OW68059   0.719   3.076   4.584  0.2639 -0.4430 -0.0527
22494SOL    HW168060   0.727   3.168   4.557  0.2092 -0.1537  0.8803
22494SOL    HW268061   0.629   3.052   4.559 -0.4350  0.3952  1.5289
22495SOL     OW68062   9.094   2.903   2.653  0.0403 -0.1391  0.0631
22495SOL    HW168063   9.062   2.816   2.629 -2.7679  1.0222 -0.8968
22495SOL    HW268064   9.082   2.955   2.573  2.9473  0.9052  0.1657
22496SOL     OW68065   0.729   3.777   9.622 -0.1104 -0.1064  0.2320
22496SOL    HW168066   0.774   3.855   9.655 -0.2717  0.2510 -0.3691
22496SOL    HW268067   0.777   3.754   9.542  0.1659 -0.8505  0.6116
22497SOL     OW68068   0.261   8.979   9.358  0.5158 -0.3231 -0.3349
22497SOL    HW168069   0.210   8.900   9.341 -1.9170  0.5271  2.0992
22497SOL    HW268070   0.237   9.039   9.287 -0.1422 -0.7110 -0.4474
22498SOL     OW68071   6.597   2.319   4.723  0.7010 -0.6029  0.4734
22498SOL    HW168072   6.690   2.310   4.744  0.6646  0.1989  1.0073
22498SOL    HW268073   6.558   2.360   4.801  0.3102  1.1275 -0.5677
22499SOL     OW68074   6.165   6.090   8.917  0.4598  0.3229 -0.0630
22499SOL    HW168075   6.212   6.118   8.995  0.0800 -0.5412  0.5022
22499SOL    HW268076   6.125   6.169   8.882  0.8394  0.7591  0.4879
22500SOL     OW68077   0.552   7.347   3.621 -0.3274 -0.1945  0.2571
22500SOL    HW168078   0.618   7.284   3.592 -1.1171 -0.8772 -0.0745
22500SOL    HW268079   0.476   7.330   3.566 -0.8534  0.4649  0.7581
22501SOL     OW68080   5.838   7.700   1.849 -0.0352 -0.0771  0.2254
22501SOL    HW168081   5.911   7.750   1.884 -1.0711  1.4292  0.3614
22501SOL    HW268082   5.877   7.640   1.786  1.7582 -2.0801  3.0428
22502SOL     OW68083   8.757   5.592   7.511  0.2012 -0.4004 -0.4663
22502SOL    HW168084   8.805   5.514   7.538 -0.8945 -1.2498 -0.8727
22502SOL    HW268085   8.675   5.558   7.474  0.0990  0.8888 -1.5154
22503SOL     OW68086   6.215   7.821   4.324  0.1060  0.5028  0.5278
22503SOL    HW168087   6.237   7.737   4.286  0.3384  0.0293  1.6648
22503SOL    HW268088   6.162   7.865   4.257 -0.3302 -0.6878  0.0656
22504SOL     OW68089   2.132   2.801   9.393 -0.1826 -1.1345  0.1400
22504SOL    HW168090   2.111   2.764   9.479 -3.9114  0.3301  0.0525
22504SOL    HW268091   2.164   2.889   9.412  0.2948 -1.2921  0.0686
22505SOL     OW68092   8.892   7.007   7.408  0.4044  0.1468 -0.0639
22505SOL    HW168093   8.848   7.043   7.485  1.2075 -0.1056  0.5187
22505SOL    HW268094   8.824   7.006   7.340 -1.1003 -2.1082  1.3322
22506SOL     OW68095   5.279   8.057   7.645  0.4617  0.0888 -0.2031
22506SOL    HW168096   5.296   8.151   7.649  0.9407 -0.0057  0.1764
22506SOL    HW268097   5.349   8.018   7.698 -0.4965 -0.3793  0.7735
22507SOL     OW68098   5.684   6.403   1.891  0.1024  0.1937 -0.2673
22507SOL    HW168099   5.736   6.411   1.971  0.9998  0.0799 -0.8175
22507SOL    HW268100   5.625   6.329   1.907 -1.1644  1.4228  1.0442
22508SOL     OW68101   0.611   0.968   1.312 -0.1397  0.2287  0.0629
22508SOL    HW168102   0.616   1.055   1.352 -1.2407  1.1854 -1.7643
22508SOL    HW268103   0.701   0.935   1.316  0.0760  0.9168  1.8545
22509SOL     OW68104   4.121   6.889   4.650  0.9108  0.6752  0.0833
22509SOL    HW168105   4.170   6.808   4.645 -0.4258 -0.0861 -1.8083
22509SOL    HW268106   4.184   6.957   4.627  1.5950 -0.0201 -0.1164
22510SOL     OW68107   8.127   0.796   1.951 -0.0167  0.5585  0.0680
22510SOL    HW168108   8.088   0.882   1.930 -3.1019 -0.5219  0.8304
22510SOL    HW268109   8.192   0.782   1.882 -0.8589  2.6436 -1.2578
22511SOL     OW68110   2.499   7.872   1.268  0.3958 -0.0604 -0.6523
22511SOL    HW168111   2.503   7.870   1.364 -1.3510  1.9646 -0.4548
22511SOL    HW268112   2.438   7.802   1.245  1.1262 -0.8148 -0.3309
22512SOL     OW68113   9.166   4.973   4.936 -0.5771 -0.0417  0.1785
22512SOL    HW168114   9.240   5.033   4.938 -1.7656  1.7616 -2.5621
22512SOL    HW268115   9.090   5.027   4.957 -1.7530 -0.2521 -2.8824
22513SOL     OW68116   5.597   3.886   5.248  0.4756  0.4965 -0.5311
22513SOL    HW168117   5.596   3.974   5.283 -0.0247  0.8858 -1.4844
22513SOL    HW268118   5.540   3.890   5.171 -1.4615 -1.1943  0.6942
22514SOL     OW68119   1.967   5.700   5.512  0.0777  0.0777  0.3925
22514SOL    HW168120   2.038   5.745   5.558  0.4796 -0.5391  0.3874
22514SOL    HW268121   1.988   5.711   5.420  0.5040 -0.6302  0.4012
22515SOL     OW68122   7.615   9.498   0.143 -0.2693  0.1847 -0.2751
22515SOL    HW168123   7.671   9.558   0.095  0.8948 -1.3581 -0.9441
22515SOL    HW268124   7.595   9.544   0.225 -1.2222  2.3168 -1.6386
22516SOL     OW68125   1.906   3.381   5.095 -0.2696  0.6486 -0.3825
22516SOL    HW168126   1.891   3.472   5.122  2.4417  0.9034  0.6154
22516SOL    HW268127   2.000   3.376   5.078 -0.3206 -1.9899 -0.3831
22517SOL     OW68128   4.485   0.976   6.564 -0.1733 -0.2761 -0.1079
22517SOL    HW168129   4.571   1.009   6.590 -0.4334 -0.8373  1.5146
22517SOL    HW268130   4.440   0.957   6.646 -1.5220 -0.8554 -0.9499
22518SOL     OW68131   2.632   0.139   9.761 -0.2336 -0.1775 -0.2522
22518SOL    HW168132   2.711   0.186   9.789 -0.4805  0.0406  0.0883
22518SOL    HW268133   2.607   0.088   9.838  0.2393 -1.1654 -0.7276
22519SOL     OW68134   3.139   8.976   1.588 -0.2371 -0.4426 -0.0876
22519SOL    HW168135   3.080   9.021   1.649 -1.7970 -0.9717 -1.1434
22519SOL    HW268136   3.140   8.885   1.619  1.4255 -0.1259  0.9287
22520SOL     OW68137   7.146   2.358   0.896 -0.3163 -0.5753 -0.2408
22520SOL    HW168138   7.094   2.305   0.956 -1.3366 -0.1940 -0.7651
22520SOL    HW268139   7.168   2.436   0.947 -0.3813 -0.6739 -0.0621
22521SOL     OW68140   2.885   9.038   3.613  0.5970  0.0967  0.2889
22521SOL    HW168141   2.863   9.041   3.706 -0.9313  1.4046 -0.0687
22521SOL    HW268142   2.930   9.121   3.596 -1.3523  1.0367 -0.5971
22522SOL     OW68143   1.407   2.630   6.045  0.3373  0.1194 -0.1106
22522SOL    HW168144   1.372   2.713   6.013 -0.3982  0.4877  1.5281
22522SOL    HW268145   1.364   2.564   5.992 -0.0439  0.7392 -0.5886
22523SOL     OW68146   4.076   8.963   2.144  0.0048 -0.2363  0.2025
22523SOL    HW168147   4.143   8.899   2.118  1.8820  1.3668  0.9227
22523SOL    HW268148   4.117   9.014   2.214 -2.1007  0.6327  0.8786
22524SOL     OW68149   4.173   1.706   3.972  0.0746 -0.2081  0.3461
22524SOL    HW168150   4.100   1.648   3.954 -1.2440  0.2669  3.4682
22524SOL    HW268151   4.157   1.783   3.917 -1.7296 -0.1932  0.8313
22525SOL     OW68152   4.868   0.393   9.015 -0.1281 -0.0475 -0.1434
22525SOL    HW168153   4.786   0.404   9.062  0.9905  1.2455  1.6406
22525SOL    HW268154   4.935   0.384   9.083  1.7009  2.8434 -1.3272
22526SOL     OW68155   7.907   1.267   3.700 -0.1165  0.0756  0.5318
22526SOL    HW168156   7.820   1.246   3.735  0.2919 -1.7477  0.5680
22526SOL    HW268157   7.956   1.186   3.708  1.6715  1.1205  0.6734
22527SOL     OW68158   0.439   8.372   4.840 -0.2256  0.3663 -0.0292
22527SOL    HW168159   0.424   8.454   4.792 -2.3353 -0.7694 -1.4628
22527SOL    HW268160   0.412   8.303   4.779  3.5742 -1.6370  0.2593
22528SOL     OW68161   5.364   2.622   6.023  0.4690 -0.2525  0.0713
22528SOL    HW168162   5.380   2.553   5.959  2.8022  0.1975  0.0921
22528SOL    HW268163   5.299   2.679   5.982  0.3058 -1.1504 -0.9554
22529SOL     OW68164   1.090   2.148   9.851  0.5601  0.4186  0.1837
22529SOL    HW168165   1.036   2.215   9.809  1.0391  0.3414 -0.5783
22529SOL    HW268166   1.103   2.180   9.940 -0.2288  0.7323  0.1967
22530SOL     OW68167   3.615   2.198   5.075 -0.8438 -0.1062 -0.0104
22530SOL    HW168168   3.578   2.269   5.127  0.3955  0.9120 -0.4537
22530SOL    HW268169   3.540   2.146   5.048 -1.5407 -0.5971  2.6341
22531SOL     OW68170   9.019   1.399   7.498  0.2381 -0.5356 -0.6562
22531SOL    HW168171   8.968   1.425   7.421 -0.7713 -2.2641 -0.6225
22531SOL    HW268172   8.958   1.350   7.552  1.9342 -2.8864 -0.7159
22532SOL     OW68173   6.023   2.176   8.817 -0.0014  0.1590 -0.0087
22532SOL    HW168174   6.020   2.202   8.909 -0.3949  0.7841 -0.1920
22532SOL    HW268175   6.086   2.104   8.815 -0.2660 -0.1117  0.8047
22533SOL     OW68176   0.978   6.800   6.872 -0.0779  0.4101 -0.2817
22533SOL    HW168177   0.901   6.849   6.902 -1.7664 -0.6044 -2.6280
22533SOL    HW268178   0.942   6.718   6.839  2.0199 -0.0816 -1.5047
22534SOL     OW68179   7.022   4.021   0.916 -0.2924  0.2301 -0.1378
22534SOL    HW168180   6.934   3.986   0.931  0.4511 -0.8447  2.1959
22534SOL    HW268181   7.050   3.983   0.833 -2.5824  1.8978 -1.8108
22535SOL     OW68182   5.813   2.522   9.309  0.1436 -0.0330  0.2968
22535SOL    HW168183   5.798   2.463   9.383  0.9689 -0.1507  0.3791
22535SOL    HW268184   5.731   2.518   9.259 -0.3691 -0.0643  1.1151
22536SOL     OW68185   1.322   8.026   9.415  0.4565  0.1187 -1.1777
22536SOL    HW168186   1.266   7.950   9.433  0.9486 -0.2322 -1.1290
22536SOL    HW268187   1.293   8.057   9.329 -0.6982  0.7299 -0.5935
22537SOL     OW68188   4.218   9.725   3.091  0.3535  0.6274  0.0236
22537SOL    HW168189   4.216   9.662   3.019  1.3923 -1.3498  1.6359
22537SOL    HW268190   4.144   9.784   3.073  0.1906 -0.1759 -2.2811
22538SOL     OW68191   9.706   5.614   0.474  0.1132  0.1654  0.2529
22538SOL    HW168192   9.793   5.589   0.507 -0.1327  0.2209  0.9699
22538SOL    HW268193   9.716   5.703   0.443  0.9326 -0.6685 -2.0547
22539SOL     OW68194   6.526   2.822   4.974  0.0669  0.1774 -0.0438
22539SOL    HW168195   6.572   2.870   5.043  0.7895 -0.9241  0.2633
22539SOL    HW268196   6.446   2.873   4.959 -1.2326 -0.6459  3.1798
22540SOL     OW68197   8.994   0.990   6.957  0.1487  0.4347  0.4414
22540SOL    HW168198   8.901   0.987   6.979 -0.4854  0.6900 -1.9034
22540SOL    HW268199   9.014   1.083   6.948  0.7198  0.3931  1.1798
22541SOL     OW68200   3.494   9.068   8.757 -0.2188 -0.0074 -0.0964
22541SOL    HW168201   3.576   9.022   8.739 -0.1824 -0.2685  0.6974
22541SOL    HW268202   3.426   9.002   8.746 -0.4144  0.4239 -1.6245
22542SOL     OW68203   9.369   7.354   6.083  0.1754 -0.1856 -0.5960
22542SOL    HW168204   9.329   7.429   6.128 -1.2566 -1.1591 -0.1738
22542SOL    HW268205   9.355   7.372   5.990  0.0578  0.1764 -0.5127
22543SOL     OW68206   6.391   8.618   4.370 -0.2530 -0.1476 -0.2285
22543SOL    HW168207   6.480   8.593   4.397  1.0596  1.3317 -2.7596
22543SOL    HW268208   6.376   8.571   4.289 -0.4288  1.9690 -1.5094
22544SOL     OW68209   2.559   6.853   3.630 -0.6575 -0.6500  0.2268
22544SOL    HW168210   2.550   6.759   3.647  0.8156 -0.6457  1.2306
22544SOL    HW268211   2.503   6.869   3.554 -1.5072 -2.1889  0.4851
22545SOL     OW68212   5.946   3.100   6.910 -0.3337  0.3053 -0.0985
22545SOL    HW168213   6.006   3.071   6.842 -0.5678  0.0071 -0.1831
22545SOL    HW268214   5.871   3.136   6.863 -0.7836 -0.4953 -0.0141
22546SOL     OW68215   8.374   2.629   6.378 -0.0763 -0.0014  0.5767
22546SOL    HW168216   8.425   2.681   6.316 -0.5061  0.9481  1.0004
22546SOL    HW268217   8.432   2.557   6.403  0.3687  0.0211 -0.3581
22547SOL     OW68218   8.893   4.220   6.356  0.2402  0.1466  0.3457
22547SOL    HW168219   8.861   4.232   6.267 -0.5215  0.9695  0.7122
22547SOL    HW268220   8.815   4.193   6.405  0.2879  1.2930  1.0760
22548SOL     OW68221   0.640   7.500   8.008  0.5435  0.1615 -0.2050
22548SOL    HW168222   0.731   7.519   8.029  0.6064  0.0155 -0.3423
22548SOL    HW268223   0.617   7.564   7.942  0.6719 -0.0587 -0.4669
22549SOL     OW68224   2.728   3.350   8.812  0.2121  0.0895  0.0768
22549SOL    HW168225   2.777   3.424   8.847  1.4223  0.0810 -1.5051
22549SOL    HW268226   2.783   3.274   8.829  0.3381 -0.0453 -0.8455
22550SOL     OW68227   4.483   7.426   0.563  0.0174 -0.3802 -0.2557
22550SOL    HW168228   4.392   7.420   0.591 -0.8537  3.0137 -1.8913
22550SOL    HW268229   4.533   7.432   0.644 -1.7516  2.4693  0.7689
22551SOL     OW68230   5.562   1.892   1.039 -0.1283  0.2104 -0.1707
22551SOL    HW168231   5.485   1.898   1.096 -1.2904 -2.2989 -1.3107
22551SOL    HW268232   5.534   1.935   0.958 -0.7192 -1.4013 -0.8742
22552SOL     OW68233   3.986   1.763   6.028 -0.1689 -0.2435 -0.2665
22552SOL    HW168234   3.911   1.814   6.059 -0.8993 -0.3549 -1.7631
22552SOL    HW268235   3.949   1.679   6.003  0.9861 -1.5088  1.9449
22553SOL     OW68236   1.298   2.359   6.419  0.0765  0.1257 -0.7912
22553SOL    HW168237   1.258   2.291   6.474 -2.3979  1.6730 -0.5227
22553SOL    HW268238   1.258   2.346   6.333 -2.0333  2.3407 -0.2708
22554SOL     OW68239   2.650   4.135   0.601  0.2273  0.1547  0.2519
22554SOL    HW168240   2.718   4.193   0.635  1.9426 -1.5372 -0.1044
22554SOL    HW268241   2.616   4.091   0.679 -0.0692  0.5951  0.3739
22555SOL     OW68242   6.079   5.503   2.792  0.1815  0.0183  0.1105
22555SOL    HW168243   6.026   5.464   2.722 -0.0519  0.0425  0.2721
22555SOL    HW268244   6.091   5.594   2.766  0.0079  0.0540  0.1483
22556SOL     OW68245   4.629   5.324   9.736  0.4796  0.3459 -0.3733
22556SOL    HW168246   4.695   5.284   9.793  0.5907 -0.0370 -0.7745
22556SOL    HW268247   4.546   5.298   9.774  0.5362  1.3804  0.5322
22557SOL     OW68248   8.440   2.548   4.441 -0.1154  0.3849 -0.0930
22557SOL    HW168249   8.371   2.504   4.490 -1.0747  0.1870 -1.5674
22557SOL    HW268250   8.521   2.505   4.468 -1.0709 -3.1045 -2.1928
22558SOL     OW68251   4.754   4.790   5.793  0.0869 -0.1760  0.1946
22558SOL    HW168252   4.829   4.794   5.853 -0.4580  1.5829  0.8363
22558SOL    HW268253   4.790   4.814   5.708  0.5740 -1.1707  0.0994
22559SOL     OW68254   7.120   6.887   9.575  0.3311  0.5277 -0.0214
22559SOL    HW168255   7.038   6.921   9.610 -0.5030 -0.4390 -1.0028
22559SOL    HW268256   7.150   6.954   9.514  0.6118  1.1578  0.7808
22560SOL     OW68257   4.823   6.460   9.674 -0.0657 -0.0145 -0.2429
22560SOL    HW168258   4.892   6.515   9.637  1.2681 -0.9405  0.7679
22560SOL    HW268259   4.827   6.476   9.769 -2.6446  1.4574 -0.2734
22561SOL     OW68260   9.921   3.038   6.026 -0.0501 -0.5632 -0.1602
22561SOL    HW168261   9.980   2.980   5.978  2.8893  2.0448 -0.0314
22561SOL    HW268262   9.964   3.052   6.110 -1.9478 -0.1466  0.8019
22562SOL     OW68263   5.287   2.528   9.134  0.2752  0.4517  0.0191
22562SOL    HW168264   5.206   2.553   9.089  0.2745 -0.2071 -0.3622
22562SOL    HW268265   5.290   2.585   9.211 -1.6211 -0.8549  1.1736
22563SOL     OW68266   6.291   1.503   0.700 -0.0402 -0.5932  0.1351
22563SOL    HW168267   6.258   1.478   0.786 -1.3450  0.6076  0.0392
22563SOL    HW268268   6.378   1.539   0.717 -0.1383 -0.7033  0.9074
22564SOL     OW68269   1.767   6.210   3.174 -0.1195  0.1405 -0.2208
22564SOL    HW168270   1.759   6.134   3.232 -0.6061  0.1778 -0.2360
22564SOL    HW268271   1.857   6.242   3.188 -0.4473  0.5645  1.0260
22565SOL     OW68272   0.199   1.504   8.593  0.0769  0.5408  0.2909
22565SOL    HW168273   0.205   1.415   8.559 -0.1612  0.7144 -0.2144
22565SOL    HW268274   0.131   1.545   8.540 -0.4458  0.7613  1.1064
22566SOL     OW68275   3.857   0.227   9.295  0.4142 -0.0738  0.4731
22566SOL    HW168276   3.830   0.209   9.206 -1.7304 -0.1373  1.0853
22566SOL    HW268277   3.929   0.166   9.312  1.3612  0.4568 -1.4004
22567SOL     OW68278   9.325   8.947   3.541  0.4499 -0.0786  0.8815
22567SOL    HW168279   9.256   8.888   3.570 -1.0065  0.7896 -0.5974
22567SOL    HW268280   9.309   8.956   3.447 -0.2471  3.6600  1.2271
22568SOL     OW68281   8.364   6.226   2.079  0.2920 -0.0854 -0.0700
22568SOL    HW168282   8.403   6.227   1.992 -0.4718 -0.9935 -0.4344
22568SOL    HW268283   8.416   6.161   2.127 -0.1624 -0.6033 -0.2722
22569SOL     OW68284   4.782   7.113   7.093 -0.3631 -0.1127  0.0218
22569SOL    HW168285   4.737   7.043   7.140 -1.7496  0.5201 -0.3220
22569SOL    HW268286   4.760   7.098   7.001 -0.8927  0.9262 -0.0272
22570SOL     OW68287   3.059   8.050   0.732 -0.2760  0.0595 -0.0713
22570SOL    HW168288   3.004   8.127   0.747 -2.3462 -1.0615 -1.3254
22570SOL    HW268289   3.029   7.986   0.798  0.4127 -0.1525  0.0405
22571SOL     OW68290   1.444   6.564   4.983  0.0386 -0.3563  0.4331
22571SOL    HW168291   1.389   6.488   5.001  0.3118 -0.2512  1.8197
22571SOL    HW268292   1.390   6.621   4.929 -0.7832 -0.7828  0.7912
22572SOL     OW68293   9.359   0.227   6.232 -0.6530  0.0465  0.0649
22572SOL    HW168294   9.425   0.177   6.185 -1.5764 -1.1789  0.0346
22572SOL    HW268295   9.409   0.295   6.278  0.4522  0.0898 -1.1502
22573SOL     OW68296   0.428   7.180   1.108 -0.5501  0.6051 -0.2911
22573SOL    HW168297   0.491   7.231   1.160  0.9700  0.5682 -1.9853
22573SOL    HW268298   0.369   7.246   1.072 -0.7917  0.7630  0.3690
22574SOL     OW68299   7.901   9.672   0.997 -0.1075  0.1335  0.3024
22574SOL    HW168300   7.847   9.689   1.074 -0.8645  0.6466 -0.3088
22574SOL    HW268301   7.916   9.759   0.959  1.6421  0.0671  0.7536
22575SOL     OW68302   8.537   7.117   2.317 -0.4841  0.4795 -0.3058
22575SOL    HW168303   8.441   7.123   2.317 -0.8291 -2.3304  2.0907
22575SOL    HW268304   8.565   7.176   2.387 -0.8637 -0.9007  1.1007
22576SOL     OW68305   9.549   0.369   6.366 -0.0640  0.1146  0.4064
22576SOL    HW168306   9.586   0.456   6.349 -1.4752  0.7671  0.5467
22576SOL    HW268307   9.495   0.380   6.444 -0.3990 -0.8487  0.3270
22577SOL     OW68308   6.091   1.781   7.020 -0.5706  0.1455 -0.1473
22577SOL    HW168309   6.148   1.713   7.056  0.7370  0.7486 -1.0022
22577SOL    HW268310   6.129   1.863   7.050 -0.3604  0.5910 -1.5396
22578SOL     OW68311   7.053   6.203   6.220 -0.1305  0.2541  0.3010
22578SOL    HW168312   6.981   6.239   6.167  1.1751  0.4186 -1.4503
22578SOL    HW268313   7.077   6.122   6.176  1.1002  0.4633  0.5664
22579SOL     OW68314   6.969   9.488   5.623  0.2830  0.1586 -0.1011
22579SOL    HW168315   6.904   9.506   5.690  0.7699 -1.7804  0.9868
22579SOL    HW268316   6.920   9.449   5.551 -0.1219  1.4347 -0.5388
22580SOL     OW68317   8.384   4.503   2.159 -0.4265 -0.2942 -0.4735
22580SOL    HW168318   8.441   4.577   2.142 -0.9353  0.0910 -0.5328
22580SOL    HW268319   8.441   4.426   2.152  0.0617  0.0759 -0.6037
22581SOL     OW68320   2.577   7.074   2.814  0.3124 -0.5573 -0.0641
22581SOL    HW168321   2.525   7.145   2.774  0.5358  0.9605  2.1694
22581SOL    HW268322   2.546   6.995   2.771 -2.6498  0.4691 -0.0427
22582SOL     OW68323   6.641   6.069   4.722  0.2504 -0.4519 -0.2914
22582SOL    HW168324   6.571   6.003   4.718  0.8872 -1.1287 -0.6878
22582SOL    HW268325   6.609   6.141   4.669  0.4371 -1.3636 -1.7127
22583SOL     OW68326   4.729   5.372   2.237 -0.5556  0.0967  0.2149
22583SOL    HW168327   4.770   5.295   2.197  0.4923  0.8118 -0.1095
22583SOL    HW268328   4.793   5.403   2.300 -0.6876  1.0823 -0.1231
22584SOL     OW68329   6.625   5.830   8.150  0.1222 -0.8243  0.1093
22584SOL    HW168330   6.652   5.761   8.211  1.3410 -1.3108 -0.9387
22584SOL    HW268331   6.685   5.902   8.167  0.6705 -1.0777 -0.7083
22585SOL     OW68332   7.327   1.033   3.703  0.0671 -0.5391  0.4341
22585SOL    HW168333   7.281   1.050   3.785  0.9565  0.1997  0.7962
22585SOL    HW268334   7.376   0.952   3.719  0.8914  0.0467  0.9272
22586SOL     OW68335   6.258   1.518   1.331  0.5093 -0.2596 -0.1614
22586SOL    HW168336   6.180   1.462   1.334 -1.4388  2.2665  2.4427
22586SOL    HW268337   6.261   1.549   1.240 -1.6526 -0.3737 -0.3360
22587SOL     OW68338   9.951   4.067   9.636  0.1827  0.2386  0.4762
22587SOL    HW168339   9.887   4.054   9.706  0.3769  2.2123  1.0696
22587SOL    HW268340  10.032   4.090   9.681  1.2150 -1.6742 -0.2945
22588SOL     OW68341   2.299   6.393   7.601  0.7814 -0.1741  0.4441
22588SOL    HW168342   2.320   6.303   7.576  2.4329  1.0245 -3.2414
22588SOL    HW268343   2.206   6.403   7.580  1.3343 -0.2194 -2.4027
22589SOL     OW68344   9.954   9.559   5.202  0.3664  0.7483  0.0462
22589SOL    HW168345  10.049   9.557   5.192  0.4670  0.2175  1.0042
22589SOL    HW268346   9.938   9.524   5.290 -0.7320  0.5091 -0.2312
22590SOL     OW68347   2.236   9.227   0.705  0.0032 -0.3667 -0.7203
22590SOL    HW168348   2.263   9.317   0.719  0.3535 -0.2638 -1.9481
22590SOL    HW268349   2.226   9.219   0.610 -0.3898 -1.5141 -0.6021
22591SOL     OW68350   0.927   5.448   6.681 -0.4069 -0.5194 -0.4808
22591SOL    HW168351   0.895   5.482   6.764  0.6746 -0.5978 -0.0084
22591SOL    HW268352   0.980   5.372   6.706 -0.7042 -1.0143 -1.3119
22592SOL     OW68353   1.203   8.304   3.866 -0.0467  0.9323 -0.6473
22592SOL    HW168354   1.290   8.323   3.831  0.1323  0.9954 -0.1710
22592SOL    HW268355   1.214   8.305   3.961 -0.2542 -0.5271 -0.5856
22593SOL     OW68356   1.805   0.881   8.796 -0.6084  0.2561 -0.5180
22593SOL    HW168357   1.861   0.946   8.753 -0.8979  0.2228 -0.9496
22593SOL    HW268358   1.734   0.933   8.834  0.8396  0.5823  1.9743
22594SOL     OW68359   8.101   3.665   2.125 -0.0440  0.2135 -0.3532
22594SOL    HW168360   8.182   3.650   2.175  0.8205  0.3545 -1.6873
22594SOL    HW268361   8.045   3.590   2.148  0.4842  0.0683  0.5104
22595SOL     OW68362   5.949   6.606   9.775  0.2182 -0.0839 -0.4278
22595SOL    HW168363   5.965   6.515   9.749  0.2784 -0.3035  0.3643
22595SOL    HW268364   5.990   6.614   9.861 -2.4924 -0.2091  0.9530
22596SOL     OW68365   1.404   2.683   5.665  0.0487 -0.0545  0.2337
22596SOL    HW168366   1.327   2.736   5.686 -1.0617 -1.7374  0.6292
22596SOL    HW268367   1.369   2.611   5.613  1.7043  0.2435 -1.3676
22597SOL     OW68368   2.821   4.938   1.078 -0.2967 -0.4572 -0.1757
22597SOL    HW168369   2.761   4.995   1.127  0.0519 -0.0419 -0.2314
22597SOL    HW268370   2.792   4.946   0.987  0.5154  0.6045 -0.3636
22598SOL     OW68371   3.042   7.686   9.686  0.2433 -0.4949  0.4512
22598SOL    HW168372   3.051   7.617   9.621 -1.2241  0.3550 -0.7225
22598SOL    HW268373   3.116   7.745   9.669  1.3288 -1.5712  1.2657
22599SOL     OW68374   0.710   8.816   6.529 -0.1271  0.2751  0.1443
22599SOL    HW168375   0.675   8.895   6.570 -0.4378  0.3811 -0.3241
22599SOL    HW268376   0.800   8.810   6.562 -0.0962  0.8327  0.1700
22600SOL     OW68377   6.862   6.356   6.082 -0.2735 -0.3509 -0.0928
22600SOL    HW168378   6.785   6.360   6.025 -0.6507  2.5108  0.4433
22600SOL    HW268379   6.920   6.424   6.048  0.4710 -0.1030  1.5967
22601SOL     OW68380   0.317   4.205   6.745  0.5441 -0.4117  0.6340
22601SOL    HW168381   0.320   4.273   6.813 -0.6855  0.9252 -0.5933
22601SOL    HW268382   0.409   4.191   6.721  0.9177 -0.2467  1.9046
22602SOL     OW68383   4.358   4.070   6.126 -0.0897  0.3712 -0.0017
22602SOL    HW168384   4.402   4.019   6.194 -0.4015 -0.1602 -0.1927
22602SOL    HW268385   4.345   4.007   6.055  1.5688  1.2643 -1.1602
22603SOL     OW68386   9.390   9.276   6.557  0.1118  0.4792  0.4137
22603SOL    HW168387   9.461   9.233   6.604 -0.6387 -0.3803  0.7842
22603SOL    HW268388   9.377   9.224   6.478 -1.4169 -0.5803  1.3082
22604SOL     OW68389   7.032   8.694   2.726  0.4327  0.2523 -0.2388
22604SOL    HW168390   7.026   8.604   2.692  0.3534  0.1638  0.0035
22604SOL    HW268391   7.121   8.721   2.706  0.0717  0.6005 -1.4939
22605SOL     OW68392   5.290   4.937   7.599  0.9088  0.3692  0.3607
22605SOL    HW168393   5.223   4.869   7.603  2.1960 -1.0275 -0.3215
22605SOL    HW268394   5.242   5.019   7.587 -0.6128 -0.7631 -1.8499
22606SOL     OW68395   5.540   5.471   1.451 -0.2331  0.2699 -0.2686
22606SOL    HW168396   5.573   5.467   1.541 -1.2298 -2.0281  0.0627
22606SOL    HW268397   5.448   5.445   1.458 -1.0003  2.4126 -1.6936
22607SOL     OW68398   8.202   2.655   7.241 -0.6668 -0.5505  0.0311
22607SOL    HW168399   8.160   2.737   7.262 -0.0356  0.2379 -1.5826
22607SOL    HW268400   8.230   2.619   7.325  1.3353  2.1441  0.6547
22608SOL     OW68401   1.417   4.003   2.802  0.0673 -0.1867  0.4217
22608SOL    HW168402   1.486   3.937   2.793  2.4274  2.2952 -1.1755
22608SOL    HW268403   1.411   4.019   2.896  4.1784  1.7579  0.5945
22609SOL     OW68404   6.993   8.713   7.342 -0.0151  0.5941 -0.4368
22609SOL    HW168405   6.903   8.718   7.310 -0.9092 -1.7871  1.4089
22609SOL    HW268406   7.013   8.803   7.369 -1.9561  1.1344 -0.6010
22610SOL     OW68407   5.099   0.171   3.234  0.2082 -0.6745  0.4130
22610SOL    HW168408   5.113   0.117   3.156 -1.9552 -0.3343 -0.2772
22610SOL    HW268409   5.027   0.128   3.280  0.8445 -0.3503  1.7792
22611SOL     OW68410   3.880   0.196   4.403  0.1220  0.4702  0.4852
22611SOL    HW168411   3.859   0.120   4.349 -2.0414  0.7390  0.8696
22611SOL    HW268412   3.885   0.162   4.492 -1.7900  0.8726  0.7854
22612SOL     OW68413   6.911   0.027   5.586 -0.0554  0.8076 -0.0232
22612SOL    HW168414   6.820   0.047   5.606  0.0961  0.0581  1.5624
22612SOL    HW268415   6.907  -0.047   5.525 -0.5027  0.6048  0.2535
22613SOL     OW68416   7.744   1.584   8.804 -0.2692 -0.1755  0.1706
22613SOL    HW168417   7.652   1.576   8.826  0.1380  1.5029  2.8715
22613SOL    HW268418   7.744   1.621   8.715 -2.0738 -2.4664 -0.8866
22614SOL     OW68419   6.025   3.651   1.229 -0.1405 -0.2872  0.5300
22614SOL    HW168420   6.030   3.692   1.143  2.8194  0.9703  1.1674
22614SOL    HW268421   5.953   3.697   1.273 -0.8737 -0.0920 -0.8145
22615SOL     OW68422   5.842   7.933   8.326 -0.2215  0.1842 -0.1053
22615SOL    HW168423   5.807   7.856   8.281 -1.5758 -0.0699  1.2815
22615SOL    HW268424   5.932   7.909   8.348 -0.6703 -1.1217  0.4597
22616SOL     OW68425   4.659   3.478   2.164  0.3436  0.0765 -0.1582
22616SOL    HW168426   4.736   3.536   2.165 -0.2595  1.0681  3.1472
22616SOL    HW268427   4.689   3.398   2.207 -0.2765  0.2587  0.6447
22617SOL     OW68428   1.868   1.026   9.115 -0.0055 -0.0075 -0.1869
22617SOL    HW168429   1.824   0.943   9.100 -0.6898  0.3832 -0.4260
22617SOL    HW268430   1.961   1.008   9.104 -0.1611 -0.7122 -0.3314
22618SOL     OW68431   0.675   4.921   4.171  0.0226  0.3458 -0.2400
22618SOL    HW168432   0.684   4.961   4.257 -2.2908  1.2901 -0.3622
22618SOL    HW268433   0.701   4.989   4.109  0.1100  0.2337 -0.3281
22619SOL     OW68434   0.955   0.042   5.257 -0.2297 -0.1276 -0.1242
22619SOL    HW168435   1.013  -0.032   5.239 -0.6103 -0.5257  0.2524
22619SOL    HW268436   0.962   0.098   5.179 -0.2533 -0.7648 -0.5911
22620SOL     OW68437   2.730   7.808   8.627  0.0728 -0.3859  0.6281
22620SOL    HW168438   2.685   7.892   8.620  1.9922  0.6593 -0.0367
22620SOL    HW268439   2.822   7.829   8.613  0.6755 -2.5517  0.9249
22621SOL     OW68440   4.059   6.611   8.546  0.3315 -0.0402 -0.1633
22621SOL    HW168441   3.967   6.633   8.533  0.4035 -0.7268 -2.0175
22621SOL    HW268442   4.107   6.671   8.488  1.0848  0.4457  0.9215
22622SOL     OW68443   9.426   1.855   2.861  0.1374 -0.1022  0.4806
22622SOL    HW168444   9.335   1.862   2.889 -0.3779  0.9609 -1.2972
22622SOL    HW268445   9.438   1.763   2.839  0.3410 -0.8113  3.2721
22623SOL     OW68446   5.022   4.412   7.155 -0.2625 -0.4668 -0.2163
22623SOL    HW168447   4.953   4.473   7.132  0.8115  1.1526  0.6223
22623SOL    HW268448   5.101   4.466   7.163  0.7379 -1.9455  0.6133
22624SOL     OW68449   8.826   2.623   6.210  0.9523 -0.0765  0.1378
22624SOL    HW168450   8.780   2.608   6.293  0.2091  1.3385  0.0129
22624SOL    HW268451   8.850   2.536   6.180  0.4343 -0.6814  1.3983
22625SOL     OW68452   6.313   4.447   7.115  0.2507  0.1509  0.0452
22625SOL    HW168453   6.218   4.442   7.115  0.2545 -0.0387  0.8933
22625SOL    HW268454   6.337   4.443   7.022 -0.5628  0.2361 -0.1776
22626SOL     OW68455   4.068  10.008   9.316  0.2863 -0.4194  0.0765
22626SOL    HW168456   4.041   9.949   9.246  0.1913 -0.7290  0.3754
22626SOL    HW268457   4.091   9.951   9.389 -0.4356 -0.0733  0.5953
22627SOL     OW68458   3.048   9.863   2.381 -0.3115 -0.0029 -0.5036
22627SOL    HW168459   3.035   9.864   2.475  1.2122 -1.8887 -0.2201
22627SOL    HW268460   2.975   9.915   2.346 -0.0836  2.0306  1.7608
22628SOL     OW68461   3.422   9.487   0.566 -0.3238  0.0526 -0.1618
22628SOL    HW168462   3.496   9.427   0.558 -0.3852 -0.5210  2.6196
22628SOL    HW268463   3.395   9.504   0.476  0.1992 -3.4458 -1.1285
22629SOL     OW68464   7.602   6.684   6.546  0.2517 -0.4244  0.1128
22629SOL    HW168465   7.650   6.607   6.577 -0.3153 -0.5543  0.7028
22629SOL    HW268466   7.544   6.651   6.478  1.0578 -0.2480 -0.6824
22630SOL     OW68467   1.848   6.992   4.062  0.1567 -0.0715 -0.8977
22630SOL    HW168468   1.929   7.016   4.108  1.2981 -0.5298 -2.6207
22630SOL    HW268469   1.857   7.030   3.975 -1.4226 -0.2830 -1.1891
22631SOL     OW68470   5.808   9.631   3.916  0.2339  0.1045  0.1021
22631SOL    HW168471   5.894   9.610   3.881  0.6750  0.9899  0.6298
22631SOL    HW268472   5.757   9.659   3.840  0.4599 -0.2459 -0.1827
22632SOL     OW68473   1.926   4.298   4.585 -0.1241 -0.2704  0.3345
22632SOL    HW168474   2.007   4.250   4.600  0.3070  0.8358  1.6893
22632SOL    HW268475   1.886   4.306   4.671 -1.5284 -0.5057 -0.2630
22633SOL     OW68476   4.511   8.680   9.329 -0.5612 -0.2776  0.2814
22633SOL    HW168477   4.478   8.752   9.384 -2.6982 -0.5993 -0.5052
22633SOL    HW268478   4.463   8.689   9.247  0.6088 -1.4340 -0.5553
22634SOL     OW68479   0.800   8.395   7.103  0.1539 -0.2885  0.1341
22634SOL    HW168480   0.791   8.300   7.112 -3.3846 -0.0361  0.9813
22634SOL    HW268481   0.853   8.421   7.178  1.3330 -1.5630 -0.2134
22635SOL     OW68482   2.183   2.271   0.802 -0.2288 -0.2614 -0.7009
22635SOL    HW168483   2.102   2.240   0.843 -0.8458  2.7899  0.7087
22635SOL    HW268484   2.207   2.348   0.852  2.3824  0.2187 -2.4768
22636SOL     OW68485   6.994   7.442   6.461  0.2528  0.1644  0.3951
22636SOL    HW168486   7.049   7.421   6.385  0.8972 -2.1026  1.4025
22636SOL    HW268487   6.935   7.367   6.468  0.3088  0.2572  2.2240
22637SOL     OW68488   4.845   6.874   5.512  0.5438  0.1810  0.1096
22637SOL    HW168489   4.848   6.963   5.476  0.5463 -0.4105 -1.4250
22637SOL    HW268490   4.886   6.881   5.598  0.5766  1.6515 -0.0054
22638SOL     OW68491   6.121   9.750   6.590  0.0360 -0.1154  0.0452
22638SOL    HW168492   6.189   9.815   6.571 -0.7078  0.5938 -0.2184
22638SOL    HW268493   6.055   9.797   6.641 -1.0097 -0.3906 -1.0155
22639SOL     OW68494   2.267   4.271   4.534 -0.8355 -0.0386  0.1303
22639SOL    HW168495   2.234   4.202   4.476 -0.9046 -0.5388  0.7525
22639SOL    HW268496   2.361   4.272   4.519 -0.8023 -0.4419  0.2921
22640SOL     OW68497   8.788   8.769   3.526  0.2616  0.3701 -0.4962
22640SOL    HW168498   8.794   8.763   3.621 -0.9540 -0.8746 -0.4612
22640SOL    HW268499   8.823   8.855   3.505  1.6331  0.2117  0.9661
22641SOL     OW68500   0.595   0.654   1.301  0.1060  0.0264  0.4886
22641SOL    HW168501   0.562   0.616   1.220  1.6178  2.5300 -1.4390
22641SOL    HW268502   0.539   0.730   1.317 -0.7854 -0.9606  2.4004
22642SOL     OW68503   6.930   3.571   2.113  0.1570 -0.2607 -0.3091
22642SOL    HW168504   6.958   3.480   2.125  0.6847 -0.9068 -4.7192
22642SOL    HW268505   7.012   3.619   2.100 -0.0640  1.1391  2.6840
22643SOL     OW68506   6.516   2.058   7.283  0.1281 -0.2070 -0.0234
22643SOL    HW168507   6.565   2.074   7.364  0.6867  0.1944 -0.4435
22643SOL    HW268508   6.580   2.066   7.213 -0.7600  1.6824 -0.7014
22644SOL     OW68509   9.781   1.566   2.775 -0.1058 -0.2128  0.0218
22644SOL    HW168510   9.839   1.496   2.802 -1.2138 -0.4932  1.8179
22644SOL    HW268511   9.833   1.646   2.782  0.1792 -0.4989  1.2699
22645SOL     OW68512   6.914   1.688   2.156  0.5656  0.1794  0.4492
22645SOL    HW168513   6.866   1.605   2.149  1.7581 -0.4593 -0.6812
22645SOL    HW268514   6.867   1.747   2.097 -0.1445  0.2587  1.0734
22646SOL     OW68515   9.649   7.420   5.696  0.1663  0.0439 -0.3733
22646SOL    HW168516   9.732   7.411   5.650  0.1907 -1.6244 -0.0751
22646SOL    HW268517   9.591   7.463   5.633  0.9011  0.0587 -1.0512
22647SOL     OW68518   4.060   9.145   1.002 -0.0299  0.5155 -0.6244
22647SOL    HW168519   4.061   9.166   0.909 -0.7262 -0.9007 -0.9862
22647SOL    HW268520   3.974   9.107   1.017  0.9474 -1.6389 -0.0008
22648SOL     OW68521   2.540   4.027   8.047  0.5180  0.2680  0.6395
22648SOL    HW168522   2.606   4.014   7.978  1.0461 -1.9507  1.4519
22648SOL    HW268523   2.460   3.988   8.012 -0.0875  1.8749  0.1366
22649SOL     OW68524   3.515   9.753   5.127  0.5460 -0.1464 -0.3680
22649SOL    HW168525   3.609   9.736   5.137  0.5632  0.3785  0.4659
22649SOL    HW268526   3.494   9.811   5.200 -0.2649  0.3815 -1.0110
22650SOL     OW68527   2.147   5.639   7.587 -0.1843  0.1290  0.5327
22650SOL    HW168528   2.198   5.718   7.568  0.3615 -0.4687 -0.5889
22650SOL    HW268529   2.093   5.625   7.510 -1.1896  0.0670  1.2222
22651SOL     OW68530   7.837   8.968   0.330 -0.1293  0.9475 -0.0803
22651SOL    HW168531   7.751   8.974   0.372 -0.5842  0.7023 -0.9610
22651SOL    HW268532   7.818   8.944   0.239  0.8828  0.7072 -0.2381
22652SOL     OW68533   7.130   7.826   1.098  0.2532 -0.1442 -0.2348
22652SOL    HW168534   7.075   7.904   1.092  0.8257  0.2213 -0.9631
22652SOL    HW268535   7.100   7.781   1.176  0.0272  0.9037  0.2956
22653SOL     OW68536   1.689   7.875   8.859 -0.3171 -0.0379  0.0304
22653SOL    HW168537   1.631   7.951   8.859 -0.0913  0.1386  0.5228
22653SOL    HW268538   1.762   7.902   8.803 -0.0907  0.2279  0.4462
22654SOL     OW68539   9.512   7.374   1.967  0.3246  0.1942 -0.4365
22654SOL    HW168540   9.421   7.396   1.948  0.3454 -0.0409 -0.8294
22654SOL    HW268541   9.533   7.304   1.904  0.2411 -0.9739  0.7741
22655SOL     OW68542   2.548   5.853   2.782 -0.6466 -0.9530 -0.1865
22655SOL    HW168543   2.484   5.787   2.757 -1.4030  0.5948 -2.6708
22655SOL    HW268544   2.621   5.840   2.721 -1.4546  1.3499 -1.7849
22656SOL     OW68545   7.657   7.555   3.971  0.2279  0.6493 -0.7740
22656SOL    HW168546   7.626   7.468   3.946  0.0590  0.3930  0.2995
22656SOL    HW268547   7.626   7.612   3.901 -1.1852  0.1282 -0.6095
22657SOL     OW68548   6.559   8.386   0.558 -0.3812 -0.2188  0.0660
22657SOL    HW168549   6.588   8.474   0.580 -0.6478 -0.6620  2.4588
22657SOL    HW268550   6.640   8.336   0.545 -0.2080  0.0513  0.1189
22658SOL     OW68551   1.570   4.074   5.743 -0.2393  0.1186 -0.0882
22658SOL    HW168552   1.593   4.165   5.765 -0.2148 -0.0540  0.6332
22658SOL    HW268553   1.517   4.081   5.664  0.8541  0.6555 -0.7869
22659SOL     OW68554   8.124   5.486   0.271  0.8016 -0.5578  0.8316
22659SOL    HW168555   8.131   5.433   0.192 -1.4437  0.2418  0.0102
22659SOL    HW268556   8.129   5.423   0.343  0.9000 -1.5336 -0.0075
22660SOL     OW68557   8.574   9.385   2.960 -0.2554 -0.1820  0.1959
22660SOL    HW168558   8.578   9.419   3.049 -0.8510 -0.7250  0.4360
22660SOL    HW268559   8.665   9.366   2.937  0.4907  3.8090 -0.8616
22661SOL     OW68560   9.174   5.154   3.845  0.2566  0.0161 -0.0024
22661SOL    HW168561   9.147   5.063   3.851 -3.1669  0.9748  2.3166
22661SOL    HW268562   9.233   5.166   3.919 -0.3088 -0.0701  0.4717
22662SOL     OW68563   8.983   8.089   4.474  0.0451 -0.2473  0.2567
22662SOL    HW168564   8.981   8.184   4.488 -1.1201 -0.2375  0.1759
22662SOL    HW268565   9.072   8.070   4.446 -0.1495  1.0714 -1.3722
22663SOL     OW68566   1.581   9.561   7.998 -0.1171 -0.2839  0.2703
22663SOL    HW168567   1.520   9.489   7.988  0.4559 -0.9740  1.4727
22663SOL    HW268568   1.542   9.616   8.067 -1.3345  1.4585 -1.6702
22664SOL     OW68569   9.900   5.922   6.321  0.2969 -0.0416 -0.0146
22664SOL    HW168570   9.834   5.879   6.267 -0.4282  0.1210  0.7170
22664SOL    HW268571   9.857   5.934   6.406  1.1365  0.4256  0.3558
22665SOL     OW68572   8.839   1.914   7.137 -0.0296  0.2355 -0.5475
22665SOL    HW168573   8.897   1.899   7.063  0.2272 -1.4487 -0.0513
22665SOL    HW268574   8.752   1.927   7.098 -0.2666 -2.4976 -1.1669
22666SOL     OW68575   4.498   4.104   2.753  0.1450  0.3675  0.0043
22666SOL    HW168576   4.404   4.086   2.746  0.2935 -0.4303 -0.0786
22666SOL    HW268577   4.525   4.123   2.663  0.1691  0.0037 -0.0685
22667SOL     OW68578   2.816   5.359   5.383  0.1221  0.2438  0.2018
22667SOL    HW168579   2.822   5.265   5.367  1.6504  0.1430  1.1370
22667SOL    HW268580   2.816   5.367   5.479 -1.2407  1.1519  0.1502
22668SOL     OW68581   4.471   8.927   2.824 -0.8410  0.6552  0.4550
22668SOL    HW168582   4.462   8.846   2.875 -1.1882 -0.0124 -0.6443
22668SOL    HW268583   4.553   8.917   2.777 -0.0645  1.6674  1.5287
22669SOL     OW68584   2.114   7.179   3.734 -0.0075  0.1420 -0.1897
22669SOL    HW168585   2.107   7.143   3.646 -0.2063 -0.9456  0.2640
22669SOL    HW268586   2.172   7.120   3.781 -1.8844 -0.7686  1.1396
22670SOL     OW68587   0.150   7.345   2.188  0.2654 -0.1316 -0.1116
22670SOL    HW168588   0.212   7.410   2.154  0.9071 -0.2699  0.7664
22670SOL    HW268589   0.205   7.281   2.232 -0.5702  0.4567  1.8781
22671SOL     OW68590   3.279   6.624   6.587 -0.7406 -0.2518  0.2609
22671SOL    HW168591   3.294   6.557   6.520  2.9715  0.2737  0.3527
22671SOL    HW268592   3.234   6.578   6.658 -1.5437 -1.6799 -1.1037
22672SOL     OW68593   3.718   0.715   6.886  0.0960  0.4258 -0.1408
22672SOL    HW168594   3.678   0.701   6.972  1.3890 -2.8059  0.0673
22672SOL    HW268595   3.811   0.699   6.899  0.3086 -0.3350 -2.1624
22673SOL     OW68596   4.697   7.502   5.630 -0.0181  0.2100  0.0928
22673SOL    HW168597   4.715   7.466   5.543 -1.9312  0.5949 -0.4999
22673SOL    HW268598   4.701   7.597   5.617  1.7739  0.2961  0.9355
22674SOL     OW68599   2.445   7.813   9.927  0.3901  0.0947 -0.3856
22674SOL    HW168600   2.430   7.729   9.882 -1.3247  0.3434 -0.3616
22674SOL    HW268601   2.517   7.853   9.879 -0.2089 -0.4437 -1.8116
22675SOL     OW68602   7.615   7.758   0.493  0.0910 -0.2118  0.1382
22675SOL    HW168603   7.548   7.721   0.436  0.9147 -0.2987 -0.7931
22675SOL    HW268604   7.638   7.842   0.453 -1.1149  0.9494  1.7352
22676SOL     OW68605   1.373   2.654   6.309  0.5915 -0.1320  0.0346
22676SOL    HW168606   1.390   2.652   6.215  0.9562 -1.2761  0.1104
22676SOL    HW268607   1.410   2.572   6.342  0.9456  0.4920  1.2549
22677SOL     OW68608   8.084   9.395   3.861 -0.0639  0.8706  0.3972
22677SOL    HW168609   8.060   9.398   3.954  0.7426  3.1474  0.5946
22677SOL    HW268610   8.014   9.445   3.817 -0.0100  0.4996 -0.1178
22678SOL     OW68611   6.843   6.605   1.686  0.2727  0.2517 -0.0666
22678SOL    HW168612   6.803   6.521   1.662  0.1716  1.1672 -3.5799
22678SOL    HW268613   6.800   6.628   1.769 -1.5028 -1.9899 -0.2484
22679SOL     OW68614   5.594   0.327   1.766 -0.3764 -0.1373  0.1942
22679SOL    HW168615   5.549   0.299   1.845  0.4417 -1.0765  0.3511
22679SOL    HW268616   5.641   0.406   1.792  0.3645 -0.7668  0.8379
22680SOL     OW68617   2.187   7.589   9.265  0.0035 -0.1133  0.1219
22680SOL    HW168618   2.213   7.502   9.295  0.9224  0.4568  1.0393
22680SOL    HW268619   2.119   7.616   9.327  0.0433  0.0029  0.1145
22681SOL     OW68620   5.933   6.899   1.045 -1.0911  0.3306 -0.3062
22681SOL    HW168621   5.874   6.974   1.045 -1.2515  0.2087 -1.2234
22681SOL    HW268622   5.993   6.916   1.119 -0.0277  2.2478 -1.5299
22682SOL     OW68623   7.726   0.340   6.865  0.2266 -0.3688  0.0825
22682SOL    HW168624   7.776   0.304   6.792 -1.2771 -0.8533 -0.7447
22682SOL    HW268625   7.672   0.408   6.825  0.5240  0.4532  1.0413
22683SOL     OW68626   4.831   0.830   1.077  0.2873  0.2070 -0.6045
22683SOL    HW168627   4.777   0.908   1.063 -1.7938 -1.3529 -1.6990
22683SOL    HW268628   4.870   0.812   0.992 -0.5204 -0.8260 -0.7714
22684SOL     OW68629   7.692   0.351   3.572  0.4964 -0.3621  0.2314
22684SOL    HW168630   7.693   0.307   3.657  0.3084  1.4683  1.2560
22684SOL    HW268631   7.714   0.283   3.508  3.5257 -1.2602  2.0095
22685SOL     OW68632   8.311   6.382   0.639 -0.6261  0.0320  0.1354
22685SOL    HW168633   8.326   6.295   0.676  1.1763  0.8050  1.4033
22685SOL    HW268634   8.218   6.400   0.656 -1.0463 -1.6384 -0.2193
22686SOL     OW68635   1.508   0.856   2.646  0.4865 -0.2394  0.1598
22686SOL    HW168636   1.530   0.775   2.693  1.4400 -0.2628 -0.2998
22686SOL    HW268637   1.517   0.925   2.711  0.0719 -0.4516  0.4506
22687SOL     OW68638   7.257   9.672   3.502  1.0197 -0.0297  0.0705
22687SOL    HW168639   7.246   9.740   3.436  2.1218 -1.0337 -1.2154
22687SOL    HW268640   7.215   9.595   3.463  0.0604 -0.2006  1.3624
22688SOL     OW68641   8.006   6.628   8.177  0.2055  0.2619 -0.4253
22688SOL    HW168642   7.983   6.548   8.129  1.7080  0.4008 -1.4526
22688SOL    HW268643   7.931   6.644   8.234  0.2239 -2.3792  0.4759
22689SOL     OW68644   7.595   9.081   5.738  0.3764  0.0315  0.2911
22689SOL    HW168645   7.682   9.088   5.777  0.8015  0.2594 -0.6790
22689SOL    HW268646   7.609   9.030   5.658 -0.6694 -1.4362  0.9860
22690SOL     OW68647   7.331   9.087   4.212 -0.0989  0.4328 -0.2956
22690SOL    HW168648   7.305   9.178   4.218 -3.3286 -0.2924 -1.1097
22690SOL    HW268649   7.265   9.047   4.155  0.8764 -2.5122  0.4401
22691SOL     OW68650   0.993   9.810   3.101  0.4210 -0.0499  0.3531
22691SOL    HW168651   1.013   9.798   3.008 -0.6463  0.5581  0.0296
22691SOL    HW268652   0.931   9.740   3.122 -0.2854  0.5453  0.2839
22692SOL     OW68653   0.386   3.123   9.489  0.0043  0.3224 -0.2561
22692SOL    HW168654   0.381   3.168   9.573 -1.1166  0.5536 -0.4375
22692SOL    HW268655   0.311   3.064   9.488 -0.3687  0.7844 -1.3459
22693SOL     OW68656   8.079   3.467   7.825 -0.3810 -0.4770 -0.0037
22693SOL    HW168657   8.054   3.491   7.736 -0.6287  1.6787  0.5923
22693SOL    HW268658   8.175   3.458   7.821 -0.4743 -1.2383 -0.6617
22694SOL     OW68659   4.593   0.933   3.243  0.0503 -0.1136  0.0233
22694SOL    HW168660   4.628   1.011   3.287  0.0607 -0.5651  0.8326
22694SOL    HW268661   4.556   0.881   3.314  0.5078 -1.0940 -0.4419
22695SOL     OW68662   2.651   3.184   1.476 -0.2331 -0.5558  0.3711
22695SOL    HW168663   2.726   3.142   1.519 -1.3577 -2.8115  0.2758
22695SOL    HW268664   2.575   3.141   1.515 -1.4243  0.5469 -0.6865
22696SOL     OW68665   2.486   0.607   4.860  0.1629 -0.2453  0.6383
22696SOL    HW168666   2.534   0.677   4.817 -1.3871 -1.8567 -4.3948
22696SOL    HW268667   2.554   0.549   4.895  1.5661  1.2768  0.5404
22697SOL     OW68668   2.782   5.329   4.433  0.9765 -0.0474 -0.3069
22697SOL    HW168669   2.708   5.337   4.493  0.8175 -1.2975 -0.3004
22697SOL    HW268670   2.843   5.398   4.459  1.4990 -1.3429  2.1702
22698SOL     OW68671   8.915   1.860   0.194  0.2137 -0.4197  0.2890
22698SOL    HW168672   8.994   1.880   0.244 -0.1178 -2.0137  1.5269
22698SOL    HW268673   8.859   1.936   0.207  0.0169 -0.8998  2.6409
22699SOL     OW68674   2.831   5.310   6.525 -0.0426 -0.5117 -0.6462
22699SOL    HW168675   2.741   5.342   6.512  0.8130  1.4133 -2.5639
22699SOL    HW268676   2.844   5.311   6.619 -1.5616  0.7159 -0.4055
22700SOL     OW68677   5.419   6.878   0.944 -0.5922  0.0560  0.0827
22700SOL    HW168678   5.508   6.871   0.981 -0.8377  0.0387  0.6874
22700SOL    HW268679   5.403   6.792   0.904  0.2337  0.5518 -1.3758
22701SOL     OW68680   7.003   0.722   4.647  0.7691 -0.4600  0.1712
22701SOL    HW168681   7.075   0.756   4.700  0.5788 -0.9156  0.7337
22701SOL    HW268682   7.038   0.717   4.558  1.2445 -0.1382  0.3399
22702SOL     OW68683   9.093   6.366   3.677  0.2407  0.0037  0.7518
22702SOL    HW168684   9.015   6.375   3.731 -0.1833 -2.5438  0.6843
22702SOL    HW268685   9.159   6.419   3.721 -1.5189  2.4024  0.6987
22703SOL     OW68686   8.463   6.351   5.093 -0.2801  0.6890  0.2533
22703SOL    HW168687   8.388   6.309   5.136 -1.9289  1.8093 -1.4077
22703SOL    HW268688   8.443   6.348   5.000  2.4437 -0.2345 -0.4102
22704SOL     OW68689   7.930   5.754   7.201 -0.4161 -0.4853 -0.0364
22704SOL    HW168690   7.838   5.773   7.183 -1.0423 -2.0124  1.3934
22704SOL    HW268691   7.930   5.668   7.242  1.5259  0.0506  1.2208
22705SOL     OW68692   7.757   4.861   0.454  0.1836  0.3206 -0.1064
22705SOL    HW168693   7.678   4.884   0.405  0.8234  0.5554 -1.0373
22705SOL    HW268694   7.724   4.817   0.532 -0.8325 -0.3626 -0.9028
22706SOL     OW68695   0.882   0.847   1.788  0.1347  0.1854 -0.1059
22706SOL    HW168696   0.861   0.903   1.713 -0.7404  0.5537  0.4012
22706SOL    HW268697   0.939   0.779   1.752  0.1468  0.6534 -0.9955
22707SOL     OW68698   4.420   0.879   6.832 -0.6499  0.4176  0.1001
22707SOL    HW168699   4.472   0.938   6.886  1.8482  0.8624 -2.5423
22707SOL    HW268700   4.459   0.793   6.845  0.9971  0.7632 -1.9453
22708SOL     OW68701   3.057   4.660   7.253 -0.2677  0.0544  0.1787
22708SOL    HW168702   3.075   4.578   7.208  1.3283  0.2795  0.3255
22708SOL    HW268703   2.990   4.639   7.318 -0.4515 -0.9374 -0.3206
22709SOL     OW68704   7.387   4.997   3.723 -0.3664 -0.3002 -0.1647
22709SOL    HW168705   7.313   5.056   3.704 -1.7416 -2.2867 -1.3922
22709SOL    HW268706   7.379   4.977   3.816  1.1596  2.6864  0.7279
22710SOL     OW68707   0.594   0.583   0.308  0.2078  0.4109  0.6070
22710SOL    HW168708   0.574   0.534   0.388 -0.4037 -0.6582 -0.1829
22710SOL    HW268709   0.509   0.611   0.276  0.1745 -1.3853 -1.0417
22711SOL     OW68710   1.212   6.623   8.186  0.1480  0.5392  0.2436
22711SOL    HW168711   1.205   6.650   8.095  0.6651 -0.0388  0.0236
22711SOL    HW268712   1.297   6.658   8.215 -0.9830  2.6729  1.1937
22712SOL     OW68713   2.392   2.388   3.727  0.0995 -0.1273  0.0573
22712SOL    HW168714   2.468   2.334   3.746 -0.5708 -0.9041  0.6312
22712SOL    HW268715   2.371   2.431   3.810  0.5761  0.9753 -0.3736
22713SOL     OW68716   8.779   1.576   8.346 -0.3552  0.8338 -0.2397
22713SOL    HW168717   8.711   1.641   8.361  0.6433  1.7068  0.6720
22713SOL    HW268718   8.859   1.627   8.336  0.6323 -0.2694  1.5927
22714SOL     OW68719   9.568   9.485   5.527  0.4649 -0.2812 -0.3113
22714SOL    HW168720   9.593   9.569   5.489 -0.8952  0.1038 -0.4299
22714SOL    HW268721   9.610   9.419   5.472  1.8849  0.3119  0.0358
22715SOL     OW68722   7.792   7.458   6.762  0.4187 -0.3022 -0.0910
22715SOL    HW168723   7.830   7.542   6.735  1.4397 -1.1709 -1.5128
22715SOL    HW268724   7.701   7.478   6.783  0.9503  1.3700  0.8157
22716SOL     OW68725   2.907   9.798   5.538 -0.1749  0.3598  0.1705
22716SOL    HW168726   2.880   9.855   5.466 -0.4917  0.1212  0.0991
22716SOL    HW268727   2.858   9.830   5.614  0.4336  0.8486  0.3729
22717SOL     OW68728   1.573   2.060   3.405  0.0352  0.0751 -0.4138
22717SOL    HW168729   1.527   1.977   3.392 -1.4383  0.5527  1.3909
22717SOL    HW268730   1.653   2.051   3.354  1.0452 -3.3927  1.4369
22718SOL     OW68731   6.646   1.237   0.885  0.1030  0.5831  0.4944
22718SOL    HW168732   6.631   1.295   0.810  0.1168  0.2639  0.2406
22718SOL    HW268733   6.582   1.266   0.950 -0.5951  0.2164 -0.0177
22719SOL     OW68734   1.185   8.405   5.636  0.3225 -0.0649 -0.1867
22719SOL    HW168735   1.219   8.373   5.553 -0.7663 -1.4703 -0.1258
22719SOL    HW268736   1.133   8.332   5.671 -0.9298  1.2118  0.7409
22720SOL     OW68737   1.175   4.486   4.083 -0.0939 -0.0510  0.0511
22720SOL    HW168738   1.236   4.513   4.014 -1.6765 -0.1293 -1.4350
22720SOL    HW268739   1.131   4.567   4.110  0.0168 -0.1295  0.4750
22721SOL     OW68740   1.148   0.286   2.405 -0.4737  0.1965 -0.0044
22721SOL    HW168741   1.100   0.232   2.467  0.0863 -1.4727 -0.9727
22721SOL    HW268742   1.163   0.369   2.452 -0.2490 -0.9158  1.9993
22722SOL     OW68743   4.356   9.173   1.038  0.2677 -0.1713  0.0015
22722SOL    HW168744   4.389   9.126   0.962 -0.9826  1.1631 -1.4391
22722SOL    HW268745   4.265   9.145   1.046 -0.1349  1.0484 -0.1301
22723SOL     OW68746   3.078   3.131   5.412 -0.3239 -0.2697 -0.3331
22723SOL    HW168747   3.109   3.221   5.403 -1.8541  0.3245  0.1164
22723SOL    HW268748   3.075   3.115   5.506  0.2423 -0.9182 -0.4131
22724SOL     OW68749   1.906   8.632   2.939 -0.0544 -0.2173 -0.3400
22724SOL    HW168750   1.842   8.587   2.993 -1.2033  0.5619 -1.0010
22724SOL    HW268751   1.854   8.693   2.885  1.1544 -0.1165 -1.4581
22725SOL     OW68752   6.816   5.251   3.459 -0.3020 -0.5213  0.4474
22725SOL    HW168753   6.844   5.272   3.370 -0.8056  0.5970  0.5443
22725SOL    HW268754   6.896   5.254   3.511 -0.1519 -0.2391  0.2027
22726SOL     OW68755   3.146   7.157   3.180 -0.1051  0.4355  0.7892
22726SOL    HW168756   3.179   7.241   3.149  1.4286 -0.4758 -0.1871
22726SOL    HW268757   3.147   7.164   3.276 -0.1331  1.5613  0.7131
22727SOL     OW68758   8.487   1.929   8.917 -0.2625  0.2070 -0.3618
22727SOL    HW168759   8.552   1.973   8.973 -0.7088  0.8321 -0.3272
22727SOL    HW268760   8.491   1.977   8.834 -0.0089 -0.3606 -0.6823
22728SOL     OW68761   8.874   2.371   5.299  0.8061  0.4152 -0.1318
22728SOL    HW168762   8.848   2.283   5.326  1.0646  0.9890  2.2310
22728SOL    HW268763   8.834   2.383   5.213 -2.5723 -0.5550  1.1601
22729SOL     OW68764   4.916   1.995   3.868 -0.0282  0.7852 -0.0929
22729SOL    HW168765   4.914   2.042   3.952  1.0210  1.8682 -0.6361
22729SOL    HW268766   4.833   1.948   3.865  0.4552 -0.3397  2.1227
22730SOL     OW68767   1.292   5.524   7.892 -0.2803  0.4719  0.0582
22730SOL    HW168768   1.256   5.501   7.806 -1.8788  1.6100  0.3623
22730SOL    HW268769   1.380   5.487   7.892 -1.7293 -3.3877 -0.3579
22731SOL     OW68770   3.748   1.368   9.770  0.0014  0.0382  0.3487
22731SOL    HW168771   3.768   1.332   9.684  0.9252 -1.0993  1.0016
22731SOL    HW268772   3.655   1.352   9.782  0.1186 -0.9165  0.0537
22732SOL     OW68773   9.407   5.522   3.841 -0.7353 -0.6573 -0.0862
22732SOL    HW168774   9.335   5.487   3.894 -0.0278 -1.1287  0.5981
22732SOL    HW268775   9.365   5.558   3.763 -1.5398 -2.7874 -0.7097
22733SOL     OW68776   2.640   8.461   4.838  0.5834  0.0056 -0.1017
22733SOL    HW168777   2.552   8.467   4.875  0.3852 -1.9210 -0.1498
22733SOL    HW268778   2.643   8.375   4.796  2.4793  0.0292 -0.1227
22734SOL     OW68779   0.359   4.416   6.298 -0.3227  0.4859 -0.0125
22734SOL    HW168780   0.431   4.361   6.326  0.1402  0.2730 -1.5331
22734SOL    HW268781   0.384   4.504   6.326  0.9312  0.5389 -1.1620
22735SOL     OW68782   2.250   4.385   9.278 -0.4455 -0.1252 -0.3373
22735SOL    HW168783   2.178   4.350   9.227  0.2265 -0.4158 -1.1068
22735SOL    HW268784   2.329   4.347   9.239  0.2514  1.4344 -0.5583
22736SOL     OW68785   0.124   3.917   4.144 -0.8223 -0.5496 -0.1355
22736SOL    HW168786   0.079   3.855   4.203 -2.1376 -0.7007 -1.2484
22736SOL    HW268787   0.217   3.900   4.159 -1.1368 -1.6902  0.7467
22737SOL     OW68788   6.014   5.751   0.958  0.8319  0.0974 -0.5092
22737SOL    HW168789   6.020   5.659   0.935 -0.9718 -0.2534  0.2389
22737SOL    HW268790   5.935   5.757   1.012  0.1123  2.2989 -1.6734
22738SOL     OW68791   3.015   8.662   6.874  0.3800  0.5425  0.0361
22738SOL    HW168792   2.962   8.612   6.812  1.4835  0.4964 -0.9145
22738SOL    HW268793   2.992   8.628   6.960 -0.8637  0.3020 -0.3821
22739SOL     OW68794   0.911   2.825   7.785  0.0375  0.0986 -0.1479
22739SOL    HW168795   0.972   2.890   7.821 -0.0624  1.6442 -2.5384
22739SOL    HW268796   0.848   2.877   7.735 -2.2731 -1.6112  0.8574
22740SOL     OW68797   8.074   7.833   9.685 -0.0919  0.3565 -0.5604
22740SOL    HW168798   8.140   7.852   9.752 -0.3594  1.5939 -0.6183
22740SOL    HW268799   8.073   7.912   9.630  0.0587 -0.5895 -1.9795
22741SOL     OW68800   4.032   1.496   4.544 -0.1914 -0.3652 -0.1525
22741SOL    HW168801   4.057   1.588   4.533  2.6107 -0.5426  2.9762
22741SOL    HW268802   4.104   1.448   4.504 -0.5309 -1.1253  0.1459
22742SOL     OW68803   7.451   6.007   9.056  0.1664  0.2585  0.3294
22742SOL    HW168804   7.423   6.041   8.971 -0.3502 -1.6633 -0.3340
22742SOL    HW268805   7.544   5.989   9.045 -0.2594 -1.7257 -0.5277
22743SOL     OW68806   4.544   2.258   2.650  0.2785 -0.0876  0.3769
22743SOL    HW168807   4.592   2.209   2.716  0.2831  0.7602  1.0188
22743SOL    HW268808   4.546   2.349   2.681  1.1645  0.5132 -1.2907
22744SOL     OW68809   3.275   9.617   7.581 -0.2275  0.4760  0.2075
22744SOL    HW168810   3.255   9.695   7.530 -1.0238  0.1702  0.0388
22744SOL    HW268811   3.239   9.545   7.530 -0.2843  0.0829  0.7869
22745SOL     OW68812   1.661   0.526   9.496  0.3024  0.6529  0.0851
22745SOL    HW168813   1.684   0.448   9.444  0.3505  1.0614 -0.5155
22745SOL    HW268814   1.590   0.567   9.447 -0.9640  0.0321  1.3312
22746SOL     OW68815   1.489   6.145   5.178  0.4226  0.5884 -0.1589
22746SOL    HW168816   1.544   6.203   5.230 -0.0066  1.0510 -0.2131
22746SOL    HW268817   1.467   6.073   5.237 -0.0651  1.1118  0.2988
22747SOL     OW68818   8.348   1.448   8.405  0.1540  0.2193 -0.5851
22747SOL    HW168819   8.254   1.466   8.398  0.0198 -0.8424 -1.7958
22747SOL    HW268820   8.382   1.521   8.457 -1.1688  1.1593 -0.9824
22748SOL     OW68821   5.921   7.746   4.295 -0.0776 -0.3288  0.6158
22748SOL    HW168822   5.895   7.800   4.369 -0.2011  0.3971  0.0534
22748SOL    HW268823   5.950   7.808   4.229  1.9694 -1.0559  0.7676
22749SOL     OW68824   0.150   9.472   3.313  0.5798  0.1522 -0.4210
22749SOL    HW168825   0.200   9.394   3.286 -1.3734 -0.3638 -2.9408
22749SOL    HW268826   0.127   9.455   3.404  4.2966  0.1284  0.6692
22750SOL     OW68827   1.822   9.772   0.722  0.5449  0.3063 -0.1364
22750SOL    HW168828   1.751   9.829   0.694  1.2669  1.4981  0.3908
22750SOL    HW268829   1.881   9.767   0.647  0.1406 -0.3091 -0.4163
22751SOL     OW68830   5.225   0.683   3.262  0.4534  0.3009  0.2971
22751SOL    HW168831   5.165   0.711   3.192  1.1556  0.6698 -0.1665
22751SOL    HW268832   5.193   0.729   3.340 -0.5176 -0.3454  0.2942
22752SOL     OW68833   4.675   6.598   5.927 -0.3778  0.4538 -0.3495
22752SOL    HW168834   4.721   6.647   5.995  0.1479  1.6488 -1.5184
22752SOL    HW268835   4.745   6.569   5.868 -0.6136 -2.1547  0.5307
22753SOL     OW68836   3.585   0.950   1.420 -0.2786  0.0146 -0.8145
22753SOL    HW168837   3.519   0.904   1.472 -0.2585  1.3318  0.4505
22753SOL    HW268838   3.668   0.931   1.463  0.0033 -0.4677 -1.5486
22754SOL     OW68839   8.516   8.607   9.356  0.2238  0.4372 -0.1559
22754SOL    HW168840   8.531   8.538   9.420  1.2624 -0.8072 -1.6399
22754SOL    HW268841   8.572   8.679   9.385  0.1069  0.1843  0.7235
22755SOL     OW68842   3.820   5.802   0.724  0.3550  0.1682 -0.2269
22755SOL    HW168843   3.789   5.841   0.805 -1.1201 -0.4159 -0.4790
22755SOL    HW268844   3.782   5.857   0.655 -0.3889 -0.7267 -0.5482
22756SOL     OW68845   2.722   0.530   5.216  0.1197  0.1585  0.1350
22756SOL    HW168846   2.754   0.490   5.135  0.6385 -0.4602  0.6358
22756SOL    HW268847   2.721   0.458   5.280 -0.3092  0.6312  0.6694
22757SOL     OW68848   0.574   3.428   9.296  0.0095 -0.7557 -0.0901
22757SOL    HW168849   0.667   3.452   9.294  0.4635 -2.4027 -0.7689
22757SOL    HW268850   0.541   3.455   9.210 -0.0058 -0.7164 -0.0720
22758SOL     OW68851   0.954   2.631   7.437 -0.1449  0.0146  0.2969
22758SOL    HW168852   1.021   2.612   7.503  0.1430 -0.5271 -0.1428
22758SOL    HW268853   0.877   2.655   7.487 -0.3419 -1.7027  0.8710
22759SOL     OW68854   4.679   0.530   6.139  0.0637 -0.0940  0.0434
22759SOL    HW168855   4.705   0.617   6.167  1.3110 -0.7637  1.0138
22759SOL    HW268856   4.686   0.532   6.043 -1.0038  1.1816 -0.0324
22760SOL     OW68857   5.120   9.609   7.174  0.3492 -0.1390  0.4502
22760SOL    HW168858   5.059   9.663   7.224 -0.6658 -0.3161 -0.5622
22760SOL    HW268859   5.079   9.522   7.173  0.8748 -0.3876  0.1904
22761SOL     OW68860   8.213   9.567   7.799 -0.2735  0.6051  0.4102
22761SOL    HW168861   8.190   9.485   7.842 -0.7322  0.2768 -0.4330
22761SOL    HW268862   8.132   9.618   7.800  0.0577  1.1474  1.1075
22762SOL     OW68863   2.339   3.188   8.511  0.6022 -0.3072 -0.7392
22762SOL    HW168864   2.371   3.217   8.426  1.2754 -0.1597 -0.4420
22762SOL    HW268865   2.390   3.239   8.574 -0.3306  0.0573 -0.2542
22763SOL     OW68866   3.861   3.608   8.237 -0.2731 -0.1440  0.4073
22763SOL    HW168867   3.815   3.628   8.156  1.4356  1.2475 -0.2801
22763SOL    HW268868   3.893   3.693   8.268  0.9819 -0.9375  1.3555
22764SOL     OW68869   6.937   9.709   0.933 -0.0603 -0.6354  0.3177
22764SOL    HW168870   6.915   9.663   1.014 -1.2006 -2.1350 -0.7925
22764SOL    HW268871   6.853   9.720   0.888  0.3895  1.2700 -0.1342
22765SOL     OW68872   4.261   8.336   1.883  0.4723  0.5181  0.5879
22765SOL    HW168873   4.287   8.249   1.914 -1.2557  0.0551  0.8494
22765SOL    HW268874   4.252   8.325   1.788  1.5326  0.7739  0.4509
22766SOL     OW68875   2.409   6.271   2.525 -0.6874  0.6356  0.2514
22766SOL    HW168876   2.315   6.279   2.540 -1.2419 -3.4757  0.3090
22766SOL    HW268877   2.418   6.260   2.431 -0.3837  0.2481  0.3215
22767SOL     OW68878   6.322   9.388   3.799 -0.8728  0.1306  0.7024
22767SOL    HW168879   6.367   9.306   3.818 -1.9688 -0.3619  1.2221
22767SOL    HW268880   6.240   9.384   3.848 -1.3484  1.1521  0.0483
22768SOL     OW68881   6.669   8.628   1.836  0.2566 -0.3368 -0.2723
22768SOL    HW168882   6.614   8.698   1.802  1.8251 -0.2847 -2.9528
22768SOL    HW268883   6.734   8.672   1.891 -0.1184  0.0261 -0.1170
22769SOL     OW68884   6.315   7.966   9.947  0.2894  0.2335  0.1220
22769SOL    HW168885   6.232   7.996   9.910 -0.4539 -0.0947  1.4474
22769SOL    HW268886   6.339   8.035  10.009 -0.9124 -1.3037  2.4376
22770SOL     OW68887   8.985   5.454   2.567  0.2036  0.4511  0.3493
22770SOL    HW168888   8.988   5.377   2.624  1.5174  0.9090  0.9477
22770SOL    HW268889   9.052   5.436   2.500 -0.2298  0.6132 -0.1331
22771SOL     OW68890   1.068   5.247   7.776  0.0842 -0.1967 -0.0086
22771SOL    HW168891   1.136   5.243   7.709  0.1746  3.1496 -0.3139
22771SOL    HW268892   1.109   5.294   7.849 -0.8776 -1.2421  1.2581
22772SOL     OW68893   4.141   3.770   7.816 -0.5316 -0.4474  0.0644
22772SOL    HW168894   4.168   3.788   7.726 -0.5321 -0.1945  0.1139
22772SOL    HW268895   4.188   3.835   7.869  2.3770 -2.7759  0.6828
22773SOL     OW68896   0.687   0.603   3.046  0.0181 -0.0507 -0.5373
22773SOL    HW168897   0.738   0.622   3.125 -0.8954 -2.3358  0.6785
22773SOL    HW268898   0.752   0.571   2.984  0.3169 -1.5682  0.5054
22774SOL     OW68899   0.181   9.031   0.701  0.2318 -0.3096 -0.5964
22774SOL    HW168900   0.088   9.012   0.712  0.2477 -1.5500 -2.3544
22774SOL    HW268901   0.208   8.980   0.626  2.3652  0.0175 -0.1211
22775SOL     OW68902   3.833   7.480   5.411  0.4350 -0.4468  0.2353
22775SOL    HW168903   3.891   7.477   5.334 -1.0454  1.2606 -1.0371
22775SOL    HW268904   3.762   7.421   5.389 -0.0195  0.0898  0.2315
22776SOL     OW68905   9.129   5.267   0.775  0.0263  0.1533 -0.4395
22776SOL    HW168906   9.177   5.231   0.850 -0.4265  2.4701  1.0534
22776SOL    HW268907   9.159   5.215   0.700  0.0100 -2.7010  1.3771
22777SOL     OW68908   7.422   8.259   3.453 -0.6659 -0.3051 -0.0913
22777SOL    HW168909   7.460   8.174   3.472 -1.0237  0.1534  3.3977
22777SOL    HW268910   7.416   8.302   3.538  0.2479  3.5714 -1.7635
22778SOL     OW68911   9.451   5.204   2.151  0.1564 -0.3067  0.1414
22778SOL    HW168912   9.488   5.214   2.239  1.0252  0.3611 -0.2808
22778SOL    HW268913   9.361   5.179   2.166  0.2314  0.0053  1.2383
22779SOL     OW68914   2.592   4.710   9.856 -0.2331  0.2798 -0.3042
22779SOL    HW168915   2.585   4.636   9.916  2.5411 -0.3510 -0.6222
22779SOL    HW268916   2.575   4.787   9.911  0.6051 -0.3821  0.9298
22780SOL     OW68917   5.167   2.254   9.690  0.1533 -0.2396 -0.7447
22780SOL    HW168918   5.198   2.165   9.673  0.1032  0.1007 -3.0078
22780SOL    HW268919   5.243   2.300   9.726  0.2871 -1.0764  0.0631
22781SOL     OW68920   5.222   3.403   2.870  0.3281  0.7852  0.3431
22781SOL    HW168921   5.233   3.495   2.848 -1.5699  1.0360  0.3232
22781SOL    HW268922   5.157   3.371   2.807  0.1994 -0.3080  1.0084
22782SOL     OW68923   5.437   8.274   9.762  0.3779 -0.6395 -0.4698
22782SOL    HW168924   5.527   8.272   9.729  0.5456 -1.0732 -0.0025
22782SOL    HW268925   5.441   8.227   9.845 -0.1584 -0.1070 -0.1332
22783SOL     OW68926   4.729   7.386   6.528  0.1840 -0.4819 -0.5519
22783SOL    HW168927   4.738   7.292   6.510 -0.7762 -0.6467 -0.2176
22783SOL    HW268928   4.638   7.406   6.507  0.5780  0.5491 -1.3551
22784SOL     OW68929   4.240   6.972   9.796 -0.4589 -0.8773 -0.7703
22784SOL    HW168930   4.181   6.899   9.810 -0.2757 -0.8694  0.1348
22784SOL    HW268931   4.187   7.050   9.811 -0.3159 -0.8647 -0.2868
22785SOL     OW68932   4.233   0.393   1.460 -0.0978  0.1257  0.0947
22785SOL    HW168933   4.237   0.464   1.396 -1.9321  0.9552  0.8450
22785SOL    HW268934   4.310   0.408   1.515  0.9597 -0.0194 -1.2758
22786SOL     OW68935   4.503   6.054   7.756 -0.3496 -0.4488  0.7794
22786SOL    HW168936   4.475   5.971   7.718  1.5054 -1.0960  0.7284
22786SOL    HW268937   4.473   6.121   7.694 -0.5117 -1.2017  0.0315
22787SOL     OW68938   8.251   9.059   8.459  0.4531 -0.1408 -0.3472
22787SOL    HW168939   8.204   9.140   8.441  0.3159 -0.0166  0.5684
22787SOL    HW268940   8.212   8.995   8.399  1.6308  0.7987 -2.2467
22788SOL     OW68941   0.988   0.938   4.182 -0.9380  0.2535  0.3107
22788SOL    HW168942   1.012   0.894   4.263 -0.7564  1.5932  1.0070
22788SOL    HW268943   0.912   0.992   4.205  0.2215  2.0518  0.0790
22789SOL     OW68944   3.163   2.222   2.741  0.2467  0.0041 -0.3697
22789SOL    HW168945   3.121   2.197   2.823  1.9997  0.3503  0.6961
22789SOL    HW268946   3.257   2.220   2.761  0.6562  2.8573 -1.5062
22790SOL     OW68947   1.162   4.199   2.977 -0.3945 -0.1131  0.2913
22790SOL    HW168948   1.221   4.127   2.996 -0.1245 -0.0858 -0.4191
22790SOL    HW268949   1.173   4.260   3.050 -0.7061 -0.8398  0.9477
22791SOL     OW68950   5.597   0.840   4.571 -0.5197 -0.3594 -0.1692
22791SOL    HW168951   5.614   0.926   4.532 -0.7977  1.3423  3.0894
22791SOL    HW268952   5.502   0.838   4.583 -0.2647  0.2191  2.3796
22792SOL     OW68953   3.961   4.928   5.750 -0.1072  0.5699  0.1252
22792SOL    HW168954   3.985   4.838   5.773 -0.0234  1.3132  3.5548
22792SOL    HW268955   3.883   4.919   5.695  0.5076 -1.5898 -0.4802
22793SOL     OW68956   2.966   5.159   3.086  0.5527 -0.2070  0.0306
22793SOL    HW168957   2.931   5.223   3.147 -0.0226  0.8275 -1.3400
22793SOL    HW268958   2.933   5.075   3.118  0.0806  0.3279  0.9988
22794SOL     OW68959   1.143   9.791   2.268 -0.7791 -0.0102 -0.1167
22794SOL    HW168960   1.048   9.804   2.273 -0.6448  0.8475  0.4247
22794SOL    HW268961   1.157   9.700   2.292 -1.6751 -0.9120 -2.7292
22795SOL     OW68962   6.225   2.150   5.596  0.0251 -0.4478 -0.0429
22795SOL    HW168963   6.218   2.139   5.691  1.8176  0.7258  0.2795
22795SOL    HW268964   6.162   2.219   5.575  0.8958  0.5995  0.6321
22796SOL     OW68965   0.554   8.843   8.114 -0.0448  0.4261 -0.0205
22796SOL    HW168966   0.647   8.860   8.103  0.1251  0.1071  0.8639
22796SOL    HW268967   0.523   8.914   8.171 -0.4472  0.8115 -0.7115
22797SOL     OW68968   4.753   0.608   3.184 -0.1437 -0.5329 -0.0474
22797SOL    HW168969   4.789   0.615   3.272  0.1721 -0.4956 -0.1782
22797SOL    HW268970   4.829   0.597   3.127 -0.1984  1.1271 -0.4928
22798SOL     OW68971   0.763   9.823   4.840  0.6422  0.3810 -0.2323
22798SOL    HW168972   0.811   9.839   4.921  0.9521 -0.0393 -0.3328
22798SOL    HW268973   0.746   9.729   4.839 -0.8360  0.6148  0.1624
22799SOL     OW68974   8.713   0.728   7.299  0.7207 -0.0511  0.1766
22799SOL    HW168975   8.638   0.714   7.240  0.8381  0.5349 -0.1217
22799SOL    HW268976   8.737   0.820   7.285  1.2247 -0.1184  0.5915
22800SOL     OW68977   3.469   1.485   1.723 -0.0400  0.0858 -0.2212
22800SOL    HW168978   3.411   1.484   1.647 -1.0670 -0.2111  0.5473
22800SOL    HW268979   3.415   1.450   1.794  0.5391  1.4170  0.9016
22801SOL     OW68980   9.482   2.136   3.993 -0.1363 -0.3602 -0.3588
22801SOL    HW168981   9.525   2.064   4.040 -2.7234 -0.9364  1.3549
22801SOL    HW268982   9.507   2.214   4.042  2.2356 -0.0907 -1.8926
22802SOL     OW68983   6.046   2.069   8.037  0.7590 -0.1346 -0.0665
22802SOL    HW168984   6.092   2.136   7.986  0.5460  1.0687  1.2577
22802SOL    HW268985   5.975   2.116   8.080 -0.2321 -1.4891 -0.1459
22803SOL     OW68986   2.558   0.625   3.396  0.6585  0.1570  0.2826
22803SOL    HW168987   2.483   0.584   3.353  0.3384 -1.1208  1.9505
22803SOL    HW268988   2.634   0.583   3.355  0.3971 -0.1728  0.1293
22804SOL     OW68989   5.113   7.022   2.110  0.1097  0.5696  0.2781
22804SOL    HW168990   5.052   6.988   2.176  0.4470  2.1266  1.4522
22804SOL    HW268991   5.058   7.041   2.034 -0.3802 -0.7197  0.2814
22805SOL     OW68992   9.673   5.941   8.462  0.0850 -0.1762  0.3497
22805SOL    HW168993   9.728   5.891   8.521  0.5991 -3.3019 -2.5115
22805SOL    HW268994   9.704   6.031   8.471  3.2347 -1.2551  1.4552
22806SOL     OW68995   9.924   0.788   7.751  0.3020 -0.2126  0.1157
22806SOL    HW168996   9.835   0.780   7.718  0.4439 -2.5528  0.1559
22806SOL    HW268997   9.965   0.854   7.695 -0.6410 -1.1427 -1.7477
22807SOL     OW68998   2.285   0.663   5.720  0.3088 -0.0711  0.1475
22807SOL    HW168999   2.357   0.599   5.718 -1.1467 -1.7761 -1.1091
22807SOL    HW269000   2.275   0.684   5.813  1.3864 -1.0426  0.5186
22808SOL     OW69001   0.761   9.768   1.794  0.5190 -0.5505 -0.3996
22808SOL    HW169002   0.688   9.794   1.849  0.3934  2.9879 -2.0239
22808SOL    HW269003   0.721   9.726   1.718  0.5293 -2.4509  0.5709
22809SOL     OW69004   3.907   6.915   0.565 -0.0453 -0.3140 -0.4077
22809SOL    HW169005   3.861   6.842   0.607  0.3870 -0.8100 -0.7767
22809SOL    HW269006   3.925   6.977   0.636 -0.2325 -0.6675 -0.0510
22810SOL     OW69007   8.126   1.069   0.134  0.2006 -0.0743 -0.1941
22810SOL    HW169008   8.185   1.125   0.082 -0.0671 -0.3426 -0.7870
22810SOL    HW269009   8.045   1.067   0.085 -0.6688  1.1064  1.1198
22811SOL     OW69010   9.199   2.388   1.534 -0.3770  0.1769 -0.4745
22811SOL    HW169011   9.173   2.428   1.617 -0.5674 -1.4748  0.3193
22811SOL    HW269012   9.227   2.300   1.559  4.1786  1.0894 -1.4797
22812SOL     OW69013   9.958   4.740   1.987  0.3632 -0.2500  0.5130
22812SOL    HW169014   9.887   4.800   2.013  0.2612  0.3901 -1.1178
22812SOL    HW269015   9.916   4.678   1.927  0.5508 -1.7798  1.9041
22813SOL     OW69016   0.172   2.158   4.657 -0.4287 -0.4604  0.2737
22813SOL    HW169017   0.202   2.198   4.739 -0.5543 -1.6690  0.9259
22813SOL    HW269018   0.146   2.233   4.603 -1.7581  0.3302  1.8792
22814SOL     OW69019   1.991   9.324   0.327  0.1750  0.1466 -0.1189
22814SOL    HW169020   2.047   9.377   0.383  0.8077 -0.6486  0.0081
22814SOL    HW269021   1.904   9.362   0.338  0.2624 -0.0609  1.4781
22815SOL     OW69022   7.551   7.642   4.211 -0.2975 -0.3965  0.0075
22815SOL    HW169023   7.607   7.629   4.135  1.1252  1.8964  0.5722
22815SOL    HW269024   7.602   7.696   4.271 -2.3712  0.1187  1.4489
22816SOL     OW69025   9.763   6.933   9.486  0.1592 -0.2368 -0.3778
22816SOL    HW169026   9.849   6.926   9.527 -0.2741  0.7267  0.7318
22816SOL    HW269027   9.741   6.844   9.461  1.4572 -0.5007 -0.6434
22817SOL     OW69028   2.989   8.315   2.399  0.0637 -0.2211  0.1842
22817SOL    HW169029   2.903   8.281   2.376  0.2203 -1.4153  1.2444
22817SOL    HW269030   2.991   8.312   2.495  0.9584  0.6283  0.2049
22818SOL     OW69031   2.764   9.588   4.798  0.3789  0.1621  0.0220
22818SOL    HW169032   2.786   9.525   4.867 -0.8149  1.6727  1.8779
22818SOL    HW269033   2.744   9.533   4.722 -0.2836 -1.7125  1.4621
22819SOL     OW69034   3.980   8.292   0.185 -0.0917 -0.0709  0.1140
22819SOL    HW169035   3.955   8.289   0.277  1.1738  0.0232  0.4767
22819SOL    HW269036   4.073   8.269   0.184  0.0621  0.5054 -1.0861
22820SOL     OW69037   5.049   4.347   6.020  0.3834  0.3810  0.4644
22820SOL    HW169038   5.008   4.433   6.031 -0.8709  0.1085 -1.4560
22820SOL    HW269039   4.977   4.290   5.991  1.3595 -1.1160  0.8445
22821SOL     OW69040   6.947   3.368   9.759  0.1277  0.3258  0.1571
22821SOL    HW169041   6.870   3.407   9.718  0.6323 -0.1255 -1.2616
22821SOL    HW269042   6.914   3.287   9.799 -0.2766  0.5292  0.2451
22822SOL     OW69043   4.421   6.374   0.839 -0.3367 -0.1904 -0.3538
22822SOL    HW169044   4.341   6.372   0.892 -0.2326 -0.3394 -0.2008
22822SOL    HW269045   4.397   6.424   0.761 -0.5450 -0.1309 -0.2524
22823SOL     OW69046   3.282   4.694   1.314  0.0344 -0.6272 -0.7457
22823SOL    HW169047   3.260   4.725   1.226 -1.3070 -0.9345 -0.5295
22823SOL    HW269048   3.222   4.740   1.372 -0.5046 -1.9626 -0.2064
22824SOL     OW69049   5.932   8.770   4.193  0.0342 -0.1868  0.1775
22824SOL    HW169050   5.864   8.837   4.199 -1.8570 -1.8980 -0.8555
22824SOL    HW269051   5.937   8.733   4.281  0.5996  0.8014  0.5829
22825SOL     OW69052   3.603   4.621   7.813  0.4023 -0.2486  0.9190
22825SOL    HW169053   3.608   4.716   7.803  1.1125 -0.0558  2.7796
22825SOL    HW269054   3.522   4.597   7.769  0.0703  1.2469  0.6556
22826SOL     OW69055   9.094   3.443   2.330  0.2356 -0.5659  0.2623
22826SOL    HW169056   9.108   3.456   2.236 -1.4558  1.6547  0.2466
22826SOL    HW269057   9.129   3.522   2.370  1.3162 -1.6621  1.6188
22827SOL     OW69058   3.869   6.359   3.182  0.3244 -0.1172 -0.4935
22827SOL    HW169059   3.821   6.419   3.239  0.6686  0.5539 -0.9017
22827SOL    HW269060   3.810   6.284   3.171 -0.5720  0.6270 -0.8713
22828SOL     OW69061   7.903   9.317   4.502 -0.5057 -0.1545 -0.1812
22828SOL    HW169062   7.812   9.307   4.474 -0.4037  0.7000 -0.8408
22828SOL    HW269063   7.906   9.402   4.547 -0.4065 -0.9658  1.4096
22829SOL     OW69064   1.001   4.145   6.340  0.2646  0.4059  0.1441
22829SOL    HW169065   0.953   4.208   6.286  2.9382 -0.2665 -3.3795
22829SOL    HW269066   1.091   4.179   6.343  0.8986 -1.2184  1.5747
22830SOL     OW69067   9.325   5.784   6.000 -0.2810 -0.0622 -0.3016
22830SOL    HW169068   9.317   5.856   6.062  0.9748  0.0179 -0.2036
22830SOL    HW269069   9.361   5.712   6.052  0.4253 -0.1078 -0.8345
22831SOL     OW69070   4.056   1.435   6.318  0.3784 -0.3367  0.5414
22831SOL    HW169071   4.037   1.358   6.264 -2.1084 -0.8830  2.0518
22831SOL    HW269072   4.061   1.401   6.407 -1.4074  1.2970  1.3295
22832SOL     OW69073   4.598   2.943   1.432 -0.0756 -0.0841 -0.3686
22832SOL    HW169074   4.530   2.875   1.427  0.7344 -0.8847 -0.6566
22832SOL    HW269075   4.680   2.895   1.443  0.3560  0.9160  1.0501
22833SOL     OW69076   7.887   4.407   3.079 -0.4746 -0.4202 -0.2067
22833SOL    HW169077   7.849   4.384   3.164 -0.6646  0.9242  0.0879
22833SOL    HW269078   7.879   4.327   3.027 -2.1613 -0.6863  0.3991
22834SOL     OW69079   3.812   2.875   2.376 -0.2752 -0.2989  0.1074
22834SOL    HW169080   3.766   2.886   2.459 -1.1494 -1.6609 -0.1737
22834SOL    HW269081   3.743   2.875   2.310  0.0447 -2.4725 -0.3141
22835SOL     OW69082   9.576   3.343   9.087 -0.4808  0.7209 -0.3223
22835SOL    HW169083   9.623   3.265   9.117  0.9514  0.5593 -2.7304
22835SOL    HW269084   9.507   3.310   9.030 -1.7875  1.1224  0.9581
22836SOL     OW69085   6.567   4.402   2.005 -0.0248  0.3586 -0.1575
22836SOL    HW169086   6.544   4.311   2.025  0.4581  0.6422  1.9113
22836SOL    HW269087   6.482   4.446   1.995 -0.3295  0.0869  1.0138
22837SOL     OW69088   1.976   9.043   0.450  0.2815  0.3591  0.0242
22837SOL    HW169089   1.907   9.009   0.392  0.4572 -0.3142  0.1992
22837SOL    HW269090   1.979   9.136   0.431  0.0999  0.2064 -0.8030
22838SOL     OW69091   6.878   1.049   2.642  0.0571  0.0946 -0.0591
22838SOL    HW169092   6.811   1.044   2.574 -0.8574 -0.7414  0.8575
22838SOL    HW269093   6.867   1.136   2.681 -0.0307  0.2167 -0.3548
22839SOL     OW69094   9.175   5.079   7.178 -0.0833  0.4012 -0.2493
22839SOL    HW169095   9.145   5.048   7.263  0.3024  0.5408 -0.0600
22839SOL    HW269096   9.253   5.130   7.197  0.4423 -0.1938 -0.7583
22840SOL     OW69097   1.750   1.388   3.464 -0.7577  0.3084  0.7253
22840SOL    HW169098   1.764   1.326   3.535 -1.8480 -2.4009 -1.2456
22840SOL    HW269099   1.680   1.350   3.412  0.0992  2.0413 -1.9326
22841SOL     OW69100   9.463   9.599   8.422  0.2524  0.6077  0.2806
22841SOL    HW169101   9.408   9.531   8.461 -1.1708  1.0988 -0.7870
22841SOL    HW269102   9.509   9.638   8.496 -1.2042  0.4996  1.2879
22842SOL     OW69103   2.962   8.868   0.265  0.1654 -0.3105 -0.2106
22842SOL    HW169104   2.889   8.930   0.274  0.8606  0.7467 -1.4660
22842SOL    HW269105   2.996   8.858   0.354 -2.5427 -2.2265  0.7517
22843SOL     OW69106   2.486   6.881   8.478 -1.2335 -0.3562  0.1010
22843SOL    HW169107   2.543   6.817   8.436  0.2574  1.1105 -0.2493
22843SOL    HW269108   2.469   6.846   8.565  2.1797  0.1274  1.1277
22844SOL     OW69109   9.329   2.080   7.043 -0.2948  0.3234 -0.0988
22844SOL    HW169110   9.234   2.089   7.046 -0.1205  2.4916  0.4450
22844SOL    HW269111   9.362   2.160   7.084  1.7461 -2.2552  4.0091
22845SOL     OW69112   2.782   2.897   5.668 -0.0399 -0.7267  0.0582
22845SOL    HW169113   2.790   2.865   5.578 -0.7617 -1.2409  0.1698
22845SOL    HW269114   2.690   2.883   5.690  0.2349 -1.0442  1.0327
22846SOL     OW69115   9.351   9.609   3.224  0.1190  0.2956  0.3280
22846SOL    HW169116   9.416   9.659   3.273 -0.1347  0.0181  0.9748
22846SOL    HW269117   9.267   9.645   3.252 -0.0239  0.2535 -0.0442
22847SOL     OW69118   3.378   9.671   5.481 -0.5315  0.3060 -0.6633
22847SOL    HW169119   3.291   9.659   5.518 -0.5206  2.5557  0.2586
22847SOL    HW269120   3.377   9.621   5.400 -2.0620 -1.1332  0.1768
22848SOL     OW69121   7.461   3.949   8.415  0.1463 -0.4743 -0.1165
22848SOL    HW169122   7.414   3.944   8.331  1.9612 -1.9398 -1.1417
22848SOL    HW269123   7.475   3.857   8.439 -1.6603 -0.1267  2.6473
22849SOL     OW69124   7.276   6.072   9.733 -0.1063 -0.2849 -0.5533
22849SOL    HW169125   7.348   6.033   9.685  1.1717  1.2830  0.0074
22849SOL    HW269126   7.310   6.086   9.821 -0.5857  1.7158 -0.6271
22850SOL     OW69127   5.094   8.954   4.338 -0.3143 -0.1581 -0.0127
22850SOL    HW169128   5.134   8.873   4.371 -0.1835 -0.8731 -1.8082
22850SOL    HW269129   5.126   8.962   4.248 -0.4227  1.8559  0.0822
22851SOL     OW69130   5.336   7.737   2.928  0.2911  0.1915 -0.5927
22851SOL    HW169131   5.342   7.660   2.984 -0.8156 -0.7571 -1.7203
22851SOL    HW269132   5.324   7.810   2.988 -0.8783 -0.7950  0.4181
22852SOL     OW69133   0.850   5.811   7.133 -0.4856  0.0254 -0.3637
22852SOL    HW169134   0.930   5.863   7.124 -1.3487  1.0171 -3.6811
22852SOL    HW269135   0.791   5.866   7.184 -0.5614  1.3226 -1.7990
22853SOL     OW69136   3.593   4.035   1.044 -0.2343  0.4607  0.3987
22853SOL    HW169137   3.540   3.971   0.997 -0.1271  1.9262 -1.8609
22853SOL    HW269138   3.534   4.109   1.058  0.2359  0.7203  1.0764
22854SOL     OW69139   0.478   6.651   9.533  0.3255  0.0078  0.6068
22854SOL    HW169140   0.502   6.632   9.624  0.5812  2.1655  1.0565
22854SOL    HW269141   0.404   6.712   9.539  1.4199  1.5493 -0.5409
22855SOL     OW69142   3.956   3.400   3.019  0.1129 -0.6753 -0.2107
22855SOL    HW169143   3.882   3.385   3.078  1.3643 -1.3181  1.2541
22855SOL    HW269144   3.917   3.443   2.942 -1.6863 -0.5386  0.7270
22856SOL     OW69145   7.620   7.698   6.981 -0.4639 -0.0786  0.7542
22856SOL    HW169146   7.646   7.627   7.039  1.2861 -1.1798 -1.2519
22856SOL    HW269147   7.634   7.778   7.033  1.0199 -1.0106  1.8723
22857SOL     OW69148   2.928   7.508   4.984 -0.4275 -0.2017  0.2706
22857SOL    HW169149   2.974   7.546   4.909  1.0066 -0.8174  0.8018
22857SOL    HW269150   2.887   7.583   5.028 -0.1446  0.3291 -0.3582
22858SOL     OW69151   2.813   2.125   6.438 -0.1194 -0.4978 -0.7092
22858SOL    HW169152   2.890   2.068   6.435 -1.0207 -1.7463 -0.7200
22858SOL    HW269153   2.738   2.066   6.428 -1.2255  0.3702  1.6647
22859SOL     OW69154   0.430   5.590   1.256  0.3339 -0.0449  0.6590
22859SOL    HW169155   0.346   5.554   1.284  0.7440 -1.0679  0.6052
22859SOL    HW269156   0.469   5.624   1.337  0.1009 -0.0312  0.7679
22860SOL     OW69157   1.468   1.849   6.944 -0.3691 -0.3305  0.2556
22860SOL    HW169158   1.473   1.797   7.025 -0.2730  0.1960  0.5934
22860SOL    HW269159   1.465   1.940   6.974  1.2434 -0.0441 -0.3724
22861SOL     OW69160   0.641   2.905   1.425 -0.4731 -0.3273  0.4516
22861SOL    HW169161   0.613   2.849   1.352 -1.2966  1.2121 -0.4706
22861SOL    HW269162   0.593   2.987   1.412 -0.5869  0.0229  2.7107
22862SOL     OW69163   7.040   5.923   0.503 -0.5716  0.3158  0.6424
22862SOL    HW169164   7.046   6.010   0.464  1.0755  0.1721  0.5103
22862SOL    HW269165   6.958   5.887   0.469 -1.8282  2.1874  1.5219
22863SOL     OW69166   6.717   2.759   2.876 -0.3493  0.1569 -0.0342
22863SOL    HW169167   6.795   2.734   2.825 -0.9875  1.0236 -1.4876
22863SOL    HW269168   6.750   2.769   2.965  1.1875  0.3599 -0.5859
22864SOL     OW69169   9.541   5.815   6.386  0.2663 -0.1393  0.1838
22864SOL    HW169170   9.610   5.860   6.435  0.5014 -0.7333  0.4142
22864SOL    HW269171   9.575   5.806   6.298  0.0735  0.4400  0.0496
22865SOL     OW69172   3.652   5.624   2.991 -0.2096  0.1252 -0.4492
22865SOL    HW169173   3.580   5.609   2.930 -0.4886 -2.8114  0.4068
22865SOL    HW269174   3.727   5.583   2.949  0.4965  1.3868 -0.4426
22866SOL     OW69175   1.244   8.543   3.523  0.7387  0.3933 -0.0421
22866SOL    HW169176   1.303   8.501   3.460 -0.6342  0.4995 -1.4552
22866SOL    HW269177   1.242   8.635   3.496 -1.4431  0.0661 -1.1802
22867SOL     OW69178   4.460   0.834   1.768 -0.1819 -0.1090  0.3827
22867SOL    HW169179   4.465   0.922   1.805  0.2800  0.7414 -1.5299
22867SOL    HW269180   4.395   0.842   1.697  0.2922 -1.1482 -0.1952
22868SOL     OW69181   4.721   7.211   9.666  0.3781  0.0774  0.7298
22868SOL    HW169182   4.666   7.204   9.588  0.6284  0.0559  0.5519
22868SOL    HW269183   4.702   7.133   9.716  0.2464  0.0699  0.6689
22869SOL     OW69184   5.630   5.422   9.624 -0.0864 -1.3557  0.4679
22869SOL    HW169185   5.715   5.448   9.588  0.0612 -1.3237  0.8368
22869SOL    HW269186   5.650   5.386   9.710 -0.6065  0.2465  1.3024
22870SOL     OW69187   3.833   0.120   7.668  0.1899  0.0789  0.0441
22870SOL    HW169188   3.851   0.032   7.701  1.3374  0.2823 -0.0145
22870SOL    HW269189   3.770   0.156   7.730 -0.0046 -0.6438  0.2804
22871SOL     OW69190   9.640   9.632   3.050 -0.4734  0.0878  0.0242
22871SOL    HW169191   9.672   9.705   2.997 -3.0360  1.4418  0.1719
22871SOL    HW269192   9.716   9.575   3.060  0.7972  1.0651 -2.8611
22872SOL     OW69193   4.284   1.289   5.930  0.1027  0.2433  0.5414
22872SOL    HW169194   4.194   1.310   5.956 -0.6670 -1.8819 -0.2408
22872SOL    HW269195   4.304   1.207   5.974  1.3604  0.2650  0.0531
22873SOL     OW69196   6.988   2.799   2.163 -0.1459 -0.2410 -0.2627
22873SOL    HW169197   6.920   2.769   2.102 -0.8185 -1.3830  0.9989
22873SOL    HW269198   7.049   2.726   2.169 -0.3736 -0.3657  0.8196
22874SOL     OW69199   6.824   8.431   6.440  0.3231 -0.2067  0.1816
22874SOL    HW169200   6.755   8.383   6.487 -1.7261  0.5996 -1.8319
22874SOL    HW269201   6.886   8.363   6.414 -0.0690 -1.0743  1.4037
22875SOL     OW69202   3.744   6.336   0.890  0.3136 -0.0343 -0.2345
22875SOL    HW169203   3.788   6.251   0.899  1.7383  0.5432 -1.2774
22875SOL    HW269204   3.651   6.315   0.884  0.4520 -1.3631  1.5059
22876SOL     OW69205   8.993   0.968   0.359 -0.0417  0.2148  0.4205
22876SOL    HW169206   9.084   0.995   0.359  0.1263 -0.2880 -1.1121
22876SOL    HW269207   8.950   1.028   0.298 -0.4126 -0.5517 -0.0818
22877SOL     OW69208   0.552   6.199   5.318  0.1323  0.2977  0.4174
22877SOL    HW169209   0.610   6.212   5.394 -0.8116 -0.1686  1.2337
22877SOL    HW269210   0.510   6.284   5.305 -2.8339 -0.5871  3.0826
22878SOL     OW69211   3.018   2.573   7.306  0.3409  0.2111  0.3657
22878SOL    HW169212   3.089   2.616   7.354  1.1537 -0.5047 -0.1576
22878SOL    HW269213   2.945   2.570   7.368  0.9869  0.3706  1.1502
22879SOL     OW69214   4.772   5.707   4.220 -0.3892 -0.5414 -0.4307
22879SOL    HW169215   4.719   5.702   4.141 -0.6750  0.7507 -0.3472
22879SOL    HW269216   4.726   5.769   4.277  0.9027  0.2116 -0.1409
22880SOL     OW69217   6.909   7.464   8.943  0.1057 -0.4296  0.2096
22880SOL    HW169218   6.996   7.429   8.925  0.5203  0.5970  0.1574
22880SOL    HW269219   6.887   7.429   9.030  1.1288  0.3134  0.7982
22881SOL     OW69220   3.203   2.203   2.478  0.5413  1.0243 -0.7647
22881SOL    HW169221   3.252   2.122   2.495  0.9000  0.6182 -3.2747
22881SOL    HW269222   3.183   2.238   2.565  1.1395 -1.2935  0.3905
22882SOL     OW69223   1.491   3.464   4.611  0.2685  0.2570 -0.2115
22882SOL    HW169224   1.473   3.497   4.523  0.6086  0.6129 -0.1493
22882SOL    HW269225   1.480   3.369   4.603  1.2761  0.1693 -0.8919
22883SOL     OW69226   0.129   3.872   3.362 -0.1215  0.0175 -0.4424
22883SOL    HW169227   0.086   3.839   3.283  3.1231 -1.1633 -1.8947
22883SOL    HW269228   0.104   3.964   3.366 -2.6938 -0.5569 -1.1036
22884SOL     OW69229   8.421   9.019   5.390 -0.2299 -0.4379  0.2160
22884SOL    HW169230   8.372   8.992   5.313  0.2989  0.0213 -0.2914
22884SOL    HW269231   8.416   8.944   5.449  0.3191 -1.2364 -0.7338
22885SOL     OW69232   7.200   7.205   2.689 -0.2270  0.5520  0.1028
22885SOL    HW169233   7.194   7.240   2.600  1.5918 -1.8681 -1.0781
22885SOL    HW269234   7.193   7.281   2.745  2.1474  2.6651 -2.2250
22886SOL     OW69235   3.198   7.441   4.585  0.4016 -0.7583  0.6465
22886SOL    HW169236   3.259   7.372   4.612  1.5693  0.3407  0.9299
22886SOL    HW269237   3.226   7.463   4.496  1.4257  0.7907  1.3221
22887SOL     OW69238   4.882   6.457   7.540  0.2418 -0.4562  0.0515
22887SOL    HW169239   4.841   6.382   7.581 -3.5213  1.2741 -0.0914
22887SOL    HW269240   4.909   6.513   7.612 -1.7433  0.3008  0.2732
22888SOL     OW69241   0.838   5.190   0.446  0.1645  0.2651 -0.4079
22888SOL    HW169242   0.837   5.286   0.446  1.5244  0.2936 -0.2526
22888SOL    HW269243   0.861   5.167   0.356  2.6786  0.1783  0.1899
22889SOL     OW69244   0.258   1.367   2.814 -0.1594 -0.6267  1.0003
22889SOL    HW169245   0.162   1.366   2.814 -0.1730 -1.9647  0.2568
22889SOL    HW269246   0.282   1.337   2.726  0.9550  1.2717  0.6011
22890SOL     OW69247   8.381   1.478   8.756 -0.0966 -0.2830  0.2184
22890SOL    HW169248   8.425   1.393   8.754 -1.3429 -0.9538 -0.7074
22890SOL    HW269249   8.437   1.536   8.706 -0.3146 -1.1621 -1.1003
22891SOL     OW69250   0.172   9.170   5.307 -0.1822 -0.8918 -0.4049
22891SOL    HW169251   0.193   9.108   5.377  1.7494  0.0700 -0.0542
22891SOL    HW269252   0.257   9.204   5.279 -1.1402  1.3495 -0.7997
22892SOL     OW69253   8.313   9.070   3.115  0.4086  0.3637 -0.2447
22892SOL    HW169254   8.340   8.979   3.128 -1.3471 -0.2220 -0.5770
22892SOL    HW269255   8.345   9.092   3.027  0.8028  0.0770 -0.1793
22893SOL     OW69256   3.201   8.992   3.707 -0.2529 -0.6809 -0.0195
22893SOL    HW169257   3.113   8.997   3.670  0.2413 -0.0800 -1.1635
22893SOL    HW269258   3.236   8.909   3.676 -0.5978 -1.1662  0.8726
22894SOL     OW69259   2.918   6.578   7.823 -0.5069 -0.0680  0.4130
22894SOL    HW169260   2.910   6.643   7.892 -1.2940 -1.4642  1.7007
22894SOL    HW269261   2.927   6.629   7.742  0.6387  1.6026  1.5366
22895SOL     OW69262   5.542   7.760   0.361 -0.4331  0.4110 -0.2551
22895SOL    HW169263   5.599   7.762   0.438 -1.3252  0.7971  0.4135
22895SOL    HW269264   5.454   7.756   0.397 -0.8182 -1.1311 -1.2652
22896SOL     OW69265   0.903   5.293   7.035  0.4233  0.3450  0.2191
22896SOL    HW169266   0.838   5.363   7.031  0.7271  0.6679  0.8478
22896SOL    HW269267   0.951   5.300   6.952 -0.0464  0.3903 -0.0484
22897SOL     OW69268   2.370   6.145   0.743  0.0301  0.0148 -0.5112
22897SOL    HW169269   2.323   6.225   0.768  0.8927  0.7980 -1.3030
22897SOL    HW269270   2.368   6.091   0.822 -1.2937  0.4536 -0.2152
22898SOL     OW69271   2.700   9.913   9.035 -0.1595 -0.2348  0.1746
22898SOL    HW169272   2.659   9.978   9.092 -2.5733 -2.7682  1.5711
22898SOL    HW269273   2.744   9.853   9.094 -0.8033 -1.6933 -0.7670
22899SOL     OW69274   1.936   7.532   1.173  0.3023 -0.1601 -0.0421
22899SOL    HW169275   1.896   7.597   1.115  0.8123 -1.2660 -1.6931
22899SOL    HW269276   1.952   7.456   1.117  2.1833 -0.7412  1.2039
22900SOL     OW69277   8.655   8.628   7.186 -0.1809 -0.1444  0.2895
22900SOL    HW169278   8.743   8.641   7.151  1.9791 -0.6497  4.7433
22900SOL    HW269279   8.642   8.701   7.247 -3.0930  0.1298 -0.5200
22901SOL     OW69280   5.474   6.119   9.933 -0.0974 -0.0260 -0.0681
22901SOL    HW169281   5.457   6.042   9.879 -0.4589 -0.3536  0.4955
22901SOL    HW269282   5.559   6.151   9.903  0.7062 -1.4371  0.5774
22902SOL     OW69283   2.996   8.201   7.984  0.5373 -0.1728 -0.0708
22902SOL    HW169284   3.004   8.159   8.070  2.8210  0.8450  0.3037
22902SOL    HW269285   2.929   8.269   7.996  0.2880 -0.5433  0.6858
22903SOL     OW69286   8.319   1.810   3.934  0.0569  0.5169 -0.0497
22903SOL    HW169287   8.364   1.727   3.949 -1.0070 -0.2212 -0.7492
22903SOL    HW269288   8.323   1.823   3.839 -1.2775  0.3580 -0.1491
22904SOL     OW69289   3.820   7.349   3.275 -0.2313 -0.2101 -0.0199
22904SOL    HW169290   3.808   7.352   3.180 -0.4252 -0.7566 -0.0153
22904SOL    HW269291   3.841   7.257   3.294 -1.4142 -0.3714  0.6013
22905SOL     OW69292   8.557   2.034   7.042  0.1818 -0.1698  0.0556
22905SOL    HW169293   8.475   2.023   6.994 -0.1650  0.8271  0.4070
22905SOL    HW269294   8.530   2.042   7.134  0.5536  1.4862  0.0423
22906SOL     OW69295   4.327   5.049   0.235  0.2035 -0.1576 -0.5986
22906SOL    HW169296   4.385   5.028   0.308 -0.5259  0.0044  0.0373
22906SOL    HW269297   4.363   5.130   0.199  0.1887  0.1177 -0.0035
22907SOL     OW69298   2.149   9.704   6.529 -0.3649 -0.0177 -0.0379
22907SOL    HW169299   2.130   9.622   6.484  1.8721 -0.2711 -0.6696
22907SOL    HW269300   2.185   9.677   6.613 -2.3032  0.4181  0.9810
22908SOL     OW69301   4.860   6.804   1.642 -0.4311  0.5357  0.2098
22908SOL    HW169302   4.834   6.892   1.666 -1.5687  0.3998 -0.4400
22908SOL    HW269303   4.778   6.756   1.633  0.1646 -0.5743  0.4911
22909SOL     OW69304   4.552   6.724   5.293  0.0687  0.1421 -0.0132
22909SOL    HW169305   4.486   6.733   5.224  1.5703 -0.5792 -1.6194
22909SOL    HW269306   4.589   6.812   5.303  0.2340  0.1402 -0.5597
22910SOL     OW69307   2.923   4.081   3.013  0.3375 -0.1098 -0.0407
22910SOL    HW169308   2.988   4.150   3.026  1.3628 -0.9516 -0.4864
22910SOL    HW269309   2.887   4.097   2.926  0.1159  0.2237  0.1111
22911SOL     OW69310   9.644   2.572   9.810 -0.1290  0.4103 -0.0590
22911SOL    HW169311   9.565   2.518   9.808  0.4438 -0.4350 -0.4231
22911SOL    HW269312   9.625   2.640   9.875 -1.9306  1.4310 -1.5382
22912SOL     OW69313   7.336   1.312   3.328 -0.4500 -0.2456 -0.2982
22912SOL    HW169314   7.374   1.259   3.399 -1.4288 -1.3846 -0.5929
22912SOL    HW269315   7.343   1.403   3.360  1.9353 -0.4362 -0.1058
22913SOL     OW69316   3.537   2.047   7.338  0.4451 -0.8481  0.1095
22913SOL    HW169317   3.561   2.081   7.424  0.1038 -0.4250  0.0413
22913SOL    HW269318   3.477   2.112   7.302 -1.1931 -2.0778  0.4811
22914SOL     OW69319   9.206   6.099   7.210 -0.0756 -0.5714  0.5917
22914SOL    HW169320   9.228   6.191   7.225  1.3671 -0.7781 -0.1345
22914SOL    HW269321   9.120   6.088   7.250  0.4152  0.7032  2.0834
22915SOL     OW69322   8.567   9.679   6.726 -0.3928  0.2574  0.8376
22915SOL    HW169323   8.534   9.754   6.677 -0.2043  0.0516  0.3897
22915SOL    HW269324   8.654   9.663   6.689 -1.1819 -1.4003 -0.4463
22916SOL     OW69325   3.510   5.015   5.718  0.4605  0.3954  0.3695
22916SOL    HW169326   3.449   4.943   5.703  0.6809  0.6442 -2.0517
22916SOL    HW269327   3.455   5.087   5.748  0.2081 -0.6231  2.5943
22917SOL     OW69328   1.695   1.946   0.208 -0.3681  0.1522  0.4840
22917SOL    HW169329   1.602   1.964   0.222 -0.9129 -2.4998  0.7790
22917SOL    HW269330   1.712   1.867   0.260  2.2674  1.0242  1.0864
22918SOL     OW69331   3.611   5.883   9.402 -0.0845 -0.1914  0.0945
22918SOL    HW169332   3.600   5.954   9.465 -0.4643 -1.3264  1.3473
22918SOL    HW269333   3.692   5.839   9.429 -0.1452 -0.5840 -0.3352
22919SOL     OW69334   5.871   2.827   4.389  0.1335 -0.5757 -0.1727
22919SOL    HW169335   5.855   2.738   4.420 -0.1860 -0.0763  1.1354
22919SOL    HW269336   5.916   2.870   4.462 -0.9049  0.7226 -0.2687
22920SOL     OW69337   2.103   4.833   3.567 -0.2356 -0.0882 -0.0668
22920SOL    HW169338   2.165   4.906   3.576 -0.0826 -0.1876 -0.2962
22920SOL    HW269339   2.130   4.790   3.486 -0.8500  0.0931 -0.3696
22921SOL     OW69340   3.178   5.334   5.229  0.6006 -0.0139  0.8879
22921SOL    HW169341   3.117   5.263   5.250  1.6988 -1.3135 -0.0773
22921SOL    HW269342   3.215   5.309   5.144  1.9217  1.0902  1.1029
22922SOL     OW69343   4.214   2.196   6.003  0.3637  0.0942 -0.0893
22922SOL    HW169344   4.233   2.240   6.086  3.1849  1.6636 -1.4399
22922SOL    HW269345   4.237   2.104   6.019  0.2865  0.2567  1.0382
22923SOL     OW69346   4.101   1.418   8.852 -0.0203 -0.6064  0.3395
22923SOL    HW169347   4.167   1.357   8.887  0.1678 -0.1844  0.7307
22923SOL    HW269348   4.152   1.492   8.819 -0.0840 -1.5549 -2.0830
22924SOL     OW69349   7.396   3.253   5.271 -0.7982 -0.1716 -0.0355
22924SOL    HW169350   7.445   3.252   5.189 -1.6682  1.7170 -0.6387
22924SOL    HW269351   7.387   3.346   5.292  0.0487 -0.5932  2.6330
22925SOL     OW69352   9.365   6.395   6.181 -0.5136  0.6816  0.7603
22925SOL    HW169353   9.350   6.450   6.104  0.7294  1.7364  1.2442
22925SOL    HW269354   9.370   6.455   6.254 -1.0554 -0.2612  1.6014
22926SOL     OW69355   0.797   7.064   5.634  0.3864 -0.2441  0.4548
22926SOL    HW169356   0.718   7.083   5.583  0.9130  0.2686 -0.1746
22926SOL    HW269357   0.851   7.010   5.576 -0.4284 -2.5145  1.6655
22927SOL     OW69358   0.340   7.003   9.179 -0.2366  0.0931  0.2415
22927SOL    HW169359   0.333   6.993   9.274  1.0016  2.0788  0.6182
22927SOL    HW269360   0.432   6.982   9.160 -0.1528  0.9149 -0.2998
22928SOL     OW69361   7.644   5.478   5.821 -0.0711  0.5122 -0.0328
22928SOL    HW169362   7.719   5.537   5.815 -0.6878  1.3630  0.3866
22928SOL    HW269363   7.578   5.517   5.763 -0.1636 -0.2779 -0.4731
22929SOL     OW69364   2.002   1.141   0.256 -0.2504 -1.0851  0.0299
22929SOL    HW169365   2.078   1.195   0.236 -1.0131 -0.8168 -2.5776
22929SOL    HW269366   1.943   1.198   0.304 -0.3471 -0.0817 -1.2416
22930SOL     OW69367   8.434   4.761   9.245 -0.0298 -0.4679  0.2525
22930SOL    HW169368   8.475   4.802   9.321  0.5289 -0.3368 -0.1106
22930SOL    HW269369   8.472   4.673   9.241 -0.1924 -0.5376  0.2308
22931SOL     OW69370   9.207   3.200   3.284 -0.1311  0.4577 -0.3877
22931SOL    HW169371   9.220   3.182   3.191 -0.7732 -0.3391 -0.3295
22931SOL    HW269372   9.161   3.284   3.285 -1.0127 -0.0075 -0.8335
22932SOL     OW69373   2.832   9.454   9.901 -0.3118  0.3913  0.1072
22932SOL    HW169374   2.908   9.510   9.885 -0.1459  0.1899  0.1816
22932SOL    HW269375   2.772   9.508   9.953  1.3923 -0.6504  3.4179
22933SOL     OW69376   8.809   1.702   7.770  0.1136  0.0334 -0.8653
22933SOL    HW169377   8.773   1.615   7.785 -1.7427  0.8869 -0.0170
22933SOL    HW269378   8.784   1.723   7.680  1.5466 -0.7157 -1.4671
22934SOL     OW69379   7.821   6.849   7.904  0.0328  0.1040  0.1297
22934SOL    HW169380   7.784   6.918   7.959 -0.3927  0.0265 -0.0496
22934SOL    HW269381   7.915   6.851   7.921 -0.0724  0.2234  0.6949
22935SOL     OW69382   5.267   6.312   7.036 -0.4033 -0.2761  0.3368
22935SOL    HW169383   5.329   6.291   7.105  0.2218 -0.6306 -0.3220
22935SOL    HW269384   5.265   6.235   6.980 -0.1065  0.3831 -0.6195
22936SOL     OW69385   0.054   7.135   3.623 -0.1279 -0.3545  0.1635
22936SOL    HW169386  -0.021   7.191   3.646 -0.2707  0.1230 -1.3485
22936SOL    HW269387   0.023   7.083   3.550  0.5337 -1.2960  0.5363
22937SOL     OW69388   8.868   2.271   2.609 -0.0240 -0.2677  0.2491
22937SOL    HW169389   8.862   2.263   2.514  0.0803  2.2175 -0.0390
22937SOL    HW269390   8.959   2.296   2.625 -0.4035  0.7878  0.8436
22938SOL     OW69391   2.321   0.634   4.328  0.3584 -0.5693  0.3264
22938SOL    HW169392   2.227   0.634   4.312  0.0780 -0.1172  1.7645
22938SOL    HW269393   2.333   0.573   4.401  1.3170 -1.3543 -0.4536
22939SOL     OW69394   9.434   9.674   7.364 -0.4085 -0.1001 -0.5674
22939SOL    HW169395   9.361   9.612   7.365 -0.7304  0.2255 -1.9947
22939SOL    HW269396   9.440   9.702   7.273  1.0784  0.3814 -0.3441
22940SOL     OW69397   5.527   3.182   9.127  0.0981  0.5264  0.1128
22940SOL    HW169398   5.507   3.255   9.186 -1.5554  0.5947 -0.4848
22940SOL    HW269399   5.493   3.211   9.042  2.6006  0.5110 -0.9654
22941SOL     OW69400   8.343   7.037   1.959 -0.8125  0.8577  0.5911
22941SOL    HW169401   8.249   7.024   1.942 -0.6025  0.6101 -0.3959
22941SOL    HW269402   8.346   7.120   2.007 -1.6160  0.3476  1.5883
22942SOL     OW69403   2.823   9.718   1.544  0.7253 -0.2234 -0.0790
22942SOL    HW169404   2.831   9.798   1.493  0.2272  0.9802  1.6457
22942SOL    HW269405   2.782   9.656   1.484 -2.1052  1.8521 -0.5055
22943SOL     OW69406   3.556   2.676   2.505 -0.2075 -0.0810 -0.4264
22943SOL    HW169407   3.634   2.640   2.548 -0.3699 -0.5889 -0.5474
22943SOL    HW269408   3.530   2.750   2.560 -0.4228 -0.7338  0.3779
22944SOL     OW69409   7.878   4.457   7.213 -0.3181  0.0727 -0.2015
22944SOL    HW169410   7.896   4.510   7.135 -0.2284 -0.7490 -0.7449
22944SOL    HW269411   7.804   4.501   7.255 -0.6924  0.2423 -1.0261
22945SOL     OW69412   9.242   0.543   7.353  0.2742  0.4056 -0.1528
22945SOL    HW169413   9.316   0.603   7.347 -2.3532  4.0806  0.6781
22945SOL    HW269414   9.210   0.536   7.262 -0.2811  1.6476 -0.0858
22946SOL     OW69415   1.086   1.333   5.255  0.2316  0.9097 -0.0323
22946SOL    HW169416   1.013   1.272   5.246  1.1950 -0.2076 -0.5593
22946SOL    HW269417   1.108   1.357   5.165  0.3242  1.4850  0.1405
22947SOL     OW69418   7.871   2.090   9.153 -0.4189 -0.0796  1.0665
22947SOL    HW169419   7.858   2.034   9.230 -0.6308  0.8526  1.7191
22947SOL    HW269420   7.867   2.029   9.079  1.0030 -1.1914  1.8415
22948SOL     OW69421   9.681   0.307   3.128 -0.2117 -0.4893  0.6538
22948SOL    HW169422   9.591   0.338   3.126  0.2161  0.7733  0.0824
22948SOL    HW269423   9.706   0.311   3.220 -0.2863  0.5654  0.6446
22949SOL     OW69424   7.811   1.319   2.508 -0.0618  0.3150 -0.3290
22949SOL    HW169425   7.739   1.381   2.521  0.3596  0.6998  0.1861
22949SOL    HW269426   7.793   1.281   2.422 -1.6021 -0.5590  0.3306
22950SOL     OW69427   2.533   7.485   5.208 -0.4856  0.0470 -0.5512
22950SOL    HW169428   2.569   7.518   5.126 -0.2662 -0.7562 -0.7887
22950SOL    HW269429   2.449   7.447   5.184  0.4689 -2.0657 -0.8245
22951SOL     OW69430   6.771   3.445   0.151 -0.1761 -0.1658 -0.4106
22951SOL    HW169431   6.809   3.529   0.126  0.5684  0.8427  3.3682
22951SOL    HW269432   6.678   3.463   0.163  0.0706  0.3619  0.9417
22952SOL     OW69433   2.000   9.387   1.382 -0.5934  0.2042  0.3144
22952SOL    HW169434   1.939   9.383   1.455 -0.7192 -1.6719  0.1489
22952SOL    HW269435   1.956   9.341   1.311 -0.4096  1.8536 -0.9363
22953SOL     OW69436   7.370   8.833   9.265  0.5462 -0.0268 -0.1119
22953SOL    HW169437   7.393   8.813   9.174  1.1693  0.6481 -0.1091
22953SOL    HW269438   7.434   8.898   9.292  0.4829 -0.3710  0.8829
22954SOL     OW69439   3.998   1.925   6.721  0.0249  0.1220  0.1533
22954SOL    HW169440   4.051   1.849   6.745  1.3179  0.9600 -0.0042
22954SOL    HW269441   3.911   1.888   6.703  0.8800 -1.4700 -0.9313
22955SOL     OW69442   6.348   4.653   0.661  0.3252 -0.2884  0.0147
22955SOL    HW169443   6.304   4.603   0.730 -0.7875 -0.2513 -0.6467
22955SOL    HW269444   6.282   4.714   0.630  0.5705 -0.8069 -1.6009
22956SOL     OW69445   6.681   3.473   7.252  0.0093  0.2275  0.2778
22956SOL    HW169446   6.613   3.416   7.289 -0.4085  1.0444  0.8100
22956SOL    HW269447   6.693   3.541   7.318  0.9601  0.3984 -0.0660
22957SOL     OW69448   7.908   9.140   0.918 -0.7039 -0.5377 -0.0589
22957SOL    HW169449   7.929   9.169   0.829 -1.4660  0.6909  0.1400
22957SOL    HW269450   7.980   9.173   0.971  0.0571 -1.7779 -0.2817
22958SOL     OW69451   7.777   1.668   8.561  0.1586 -0.7466 -0.1227
22958SOL    HW169452   7.853   1.622   8.524 -0.0655  0.0778 -1.7224
22958SOL    HW269453   7.713   1.669   8.490  0.7488  3.4047 -0.8779
22959SOL     OW69454   1.720   5.110   5.164  0.2985  0.3984 -0.6976
22959SOL    HW169455   1.777   5.034   5.149  0.6140  0.7018 -1.0735
22959SOL    HW269456   1.669   5.087   5.241  0.1605 -0.3312 -1.0004
22960SOL     OW69457   4.407   7.676   6.646  0.2339  0.4071  0.3857
22960SOL    HW169458   4.383   7.721   6.727 -1.4372 -0.7450  0.5644
22960SOL    HW269459   4.346   7.708   6.580  0.3553 -0.0554  0.0353
22961SOL     OW69460   9.177   4.018   3.211 -0.2006  0.0232 -0.0676
22961SOL    HW169461   9.150   4.080   3.144 -0.2284 -0.0431 -0.1179
22961SOL    HW269462   9.143   4.054   3.293  0.5801  0.5568  0.0296
22962SOL     OW69463   9.220   7.572   7.560 -0.3228 -0.0654  0.0540
22962SOL    HW169464   9.216   7.661   7.527  1.4141  0.5295  1.3056
22962SOL    HW269465   9.252   7.580   7.650  0.5073 -1.9614  0.0013
22963SOL     OW69466   5.213   3.109   2.166 -0.3453  0.2541 -0.4164
22963SOL    HW169467   5.159   3.188   2.155  0.2086  0.6474 -0.3297
22963SOL    HW269468   5.288   3.138   2.217  0.3393 -0.1318 -1.1965
22964SOL     OW69469   7.715   9.380   8.373  0.0016  0.8959 -0.7264
22964SOL    HW169470   7.710   9.288   8.346  1.6139  0.2244  1.0404
22964SOL    HW269471   7.632   9.395   8.419  0.3648 -0.2040  0.3596
22965SOL     OW69472   3.279   0.870   0.024  0.7352  0.2591 -0.0402
22965SOL    HW169473   3.224   0.916  -0.040  0.7381 -2.3923 -2.1139
22965SOL    HW269474   3.219   0.851   0.097 -0.5641 -0.6146 -1.2773
22966SOL     OW69475   9.851   8.756   9.681  0.6227 -0.8866 -0.6154
22966SOL    HW169476   9.897   8.773   9.763  0.5885  0.0070 -0.7706
22966SOL    HW269477   9.776   8.815   9.683  1.0752 -0.2447 -1.6555
22967SOL     OW69478   8.220   9.556   9.743 -0.0354  0.3400  0.0877
22967SOL    HW169479   8.196   9.627   9.802 -1.2466  0.4512 -0.5163
22967SOL    HW269480   8.226   9.597   9.656  0.1541 -0.1203 -0.1214
22968SOL     OW69481   4.630   9.339   4.647 -0.2520  0.4702  0.1962
22968SOL    HW169482   4.696   9.404   4.674 -0.4049  0.5910  0.2813
22968SOL    HW269483   4.681   9.269   4.607 -0.0984  0.7282 -0.0649
22969SOL     OW69484   6.437   1.875   1.111 -0.2131  0.5923 -0.5778
22969SOL    HW169485   6.528   1.849   1.117 -0.7610 -1.7165 -1.2142
22969SOL    HW269486   6.436   1.943   1.044  1.1117  1.2528  0.0299
22970SOL     OW69487   9.574   2.829   8.010  0.2371 -0.3696  0.1341
22970SOL    HW169488   9.651   2.851   7.957  1.0329 -2.0328  0.5287
22970SOL    HW269489   9.558   2.737   7.993 -1.0375 -0.3220  0.8854
22971SOL     OW69490   4.485   2.741   5.381  0.2605  0.2245 -0.6287
22971SOL    HW169491   4.516   2.730   5.472 -0.2004  0.3351 -0.4555
22971SOL    HW269492   4.554   2.702   5.328  0.0811 -0.7317 -0.1783
22972SOL     OW69493   2.748   6.721   2.182  0.4700  0.4862 -0.2736
22972SOL    HW169494   2.812   6.666   2.227  0.5708  0.7346 -0.1132
22972SOL    HW269495   2.745   6.687   2.093  1.1587  0.7581 -0.4027
22973SOL     OW69496   1.860   9.815   2.954 -0.1002  0.1162 -0.6062
22973SOL    HW169497   1.799   9.753   2.915 -0.5742 -0.8042  1.4659
22973SOL    HW269498   1.837   9.817   3.047  2.1542  0.7564  0.0136
22974SOL     OW69499   6.471   5.704   9.705  0.2307 -0.2383  0.5174
22974SOL    HW169500   6.555   5.732   9.669  0.3905 -1.7471 -0.3966
22974SOL    HW269501   6.486   5.698   9.799  0.8767  0.3516  0.4634
22975SOL     OW69502   4.592   9.552   5.620 -0.0815  0.4205 -0.1281
22975SOL    HW169503   4.610   9.494   5.694  2.1177  0.5723 -0.4747
22975SOL    HW269504   4.641   9.632   5.639 -1.4741  1.4266 -0.6031
22976SOL     OW69505   6.077   3.724   5.303  0.4126  0.0636  0.2289
22976SOL    HW169506   5.988   3.747   5.275 -0.8366 -0.5251  3.3394
22976SOL    HW269507   6.105   3.798   5.356  0.8666 -0.7273  1.1107
22977SOL     OW69508   1.892   4.783   5.499 -0.1693  0.0216  0.1851
22977SOL    HW169509   1.858   4.851   5.556 -1.3530 -1.3696  1.2198
22977SOL    HW269510   1.832   4.782   5.424  0.3595  0.6911 -0.2476
22978SOL     OW69511   7.916   7.643   4.116  0.2764 -0.2346 -0.5990
22978SOL    HW169512   7.880   7.590   4.045  0.3266 -1.4107  0.2366
22978SOL    HW269513   7.841   7.669   4.168  0.2272  0.7295 -1.1310
22979SOL     OW69514   6.088   2.445   6.149  0.2711  0.0690 -0.1563
22979SOL    HW169515   6.137   2.409   6.075 -0.9392 -1.9613 -0.0581
22979SOL    HW269516   6.008   2.480   6.109 -0.8207 -1.8679  0.2075
22980SOL     OW69517   5.708   6.133   8.238 -0.3121  0.6457 -0.7658
22980SOL    HW169518   5.712   6.226   8.214 -1.2651  1.3712  1.6012
22980SOL    HW269519   5.761   6.126   8.317 -1.8152 -0.4211  0.1876
22981SOL     OW69520   2.209   0.190   1.450  0.4749  0.0702 -0.4760
22981SOL    HW169521   2.260   0.127   1.399 -1.2776 -1.4171 -0.4591
22981SOL    HW269522   2.123   0.150   1.461  0.2066  1.1360  2.1184
22982SOL     OW69523   7.218   3.312   0.787  0.1279 -0.4969 -0.0721
22982SOL    HW169524   7.313   3.302   0.788  0.1817  0.0627  1.1865
22982SOL    HW269525   7.197   3.353   0.870 -1.3163 -1.5106  0.1042
22983SOL     OW69526   3.395   5.404   9.716 -0.0649 -0.2238 -0.0976
22983SOL    HW169527   3.423   5.352   9.640 -0.5771  0.3956 -0.7210
22983SOL    HW269528   3.474   5.450   9.744  0.2680 -0.9236  0.1279
22984SOL     OW69529   0.316   9.035   0.264 -0.4022 -0.1287 -0.3416
22984SOL    HW169530   0.360   9.093   0.202  1.9347  1.0010  2.1717
22984SOL    HW269531   0.360   8.950   0.252  0.8645  0.3809  0.4732
22985SOL     OW69532   6.704   0.612   3.667 -0.0808 -0.0083 -0.2652
22985SOL    HW169533   6.627   0.565   3.635  0.6838 -1.4629 -0.0817
22985SOL    HW269534   6.774   0.547   3.662  0.7039  0.6587  1.4741
22986SOL     OW69535   3.126   6.118   5.643 -0.3881  0.6985 -0.3003
22986SOL    HW169536   3.170   6.111   5.727  1.0714  0.1519 -1.0663
22986SOL    HW269537   3.043   6.071   5.655 -0.4548  1.1101  0.9755
22987SOL     OW69538   0.998   7.006   8.287  0.3061  0.2777  0.3049
22987SOL    HW169539   1.090   7.025   8.307  0.2614  0.7903  0.0425
22987SOL    HW269540   0.963   6.968   8.367  0.5591  0.7531  0.6414
22988SOL     OW69541   9.832   3.901   4.928 -0.0975 -0.6493 -0.2058
22988SOL    HW169542   9.759   3.940   4.977 -1.2819  1.0615 -3.0740
22988SOL    HW269543   9.846   3.961   4.854  2.3608 -2.4325 -1.3252
22989SOL     OW69544   4.622   8.319   6.323  0.1637 -1.0729 -0.1083
22989SOL    HW169545   4.703   8.289   6.364 -0.1583 -0.1787  1.2654
22989SOL    HW269546   4.564   8.337   6.397 -0.1610  1.3936 -0.8842
22990SOL     OW69547   6.386   4.548   8.808  0.4087 -0.1517  0.0152
22990SOL    HW169548   6.423   4.635   8.824 -0.1615  0.0812  0.0903
22990SOL    HW269549   6.338   4.558   8.726 -2.3962  0.4983  1.6359
22991SOL     OW69550   9.311   7.133   3.553 -0.1369 -0.0192  0.1475
22991SOL    HW169551   9.284   7.134   3.461 -1.3089  0.3876  0.4765
22991SOL    HW269552   9.292   7.222   3.584  1.1444  0.1284  0.5477
22992SOL     OW69553   3.041   0.971   7.020 -0.1941 -0.2221  0.1423
22992SOL    HW169554   3.119   0.999   6.971  0.4248 -0.6736  0.8653
22992SOL    HW269555   3.024   1.043   7.081 -1.1655  0.4964 -0.9165
22993SOL     OW69556   4.943   0.857   3.783  0.3918 -0.4745  0.1017
22993SOL    HW169557   4.974   0.948   3.774 -4.2773  1.5545  1.6901
22993SOL    HW269558   4.918   0.849   3.875 -3.2819 -1.7881 -0.8468
22994SOL     OW69559   3.338   6.843   4.339  0.2313  0.5895 -0.0736
22994SOL    HW169560   3.386   6.923   4.321 -1.3793  1.1242 -2.5676
22994SOL    HW269561   3.398   6.773   4.313  1.3044  0.9811  1.2406
22995SOL     OW69562   9.037   3.871   1.586 -0.1498 -0.4270 -0.4208
22995SOL    HW169563   9.026   3.783   1.621 -0.3975 -0.7736 -1.3498
22995SOL    HW269564   9.059   3.925   1.663 -2.7468 -0.7559  0.6883
22996SOL     OW69565   8.719   9.627   1.023 -0.0394  0.8639  0.5617
22996SOL    HW169566   8.803   9.672   1.024  0.9590 -0.7012 -2.2269
22996SOL    HW269567   8.654   9.696   1.038  1.4930  3.0747 -2.1448
22997SOL     OW69568   7.439   8.192   9.103  0.4310 -0.1543 -0.2214
22997SOL    HW169569   7.364   8.218   9.156 -1.6233 -1.5373 -2.2736
22997SOL    HW269570   7.471   8.112   9.144  0.7801  0.4148  0.6354
22998SOL     OW69571   8.058   6.476   5.754 -0.4282 -1.2211  0.3990
22998SOL    HW169572   8.047   6.571   5.741  1.1006 -1.0588  0.1656
22998SOL    HW269573   8.118   6.468   5.827  1.9172 -1.9158 -1.4856
22999SOL     OW69574   3.053   0.906   2.731 -0.1381 -0.6771  0.3058
22999SOL    HW169575   3.019   0.906   2.642  0.5277 -1.8094  0.0221
22999SOL    HW269576   3.136   0.954   2.725 -0.2643 -0.4498  0.3863
23000SOL     OW69577   5.837   7.081   4.021 -0.1591 -0.1837 -0.5972
23000SOL    HW169578   5.902   7.027   4.067 -0.1510  0.2083 -0.1474
23000SOL    HW269579   5.827   7.159   4.076 -0.1948  0.2636 -1.2313
23001SOL     OW69580   7.892   7.994   8.456 -0.2108 -0.1205 -0.0595
23001SOL    HW169581   7.831   7.967   8.388  0.3717 -1.7526  0.0176
23001SOL    HW269582   7.897   7.919   8.515  1.0809  0.3606  0.4833
23002SOL     OW69583   5.861   5.491   0.252 -0.5048 -0.1178 -0.6520
23002SOL    HW169584   5.833   5.575   0.287 -0.1551 -0.2991  0.0659
23002SOL    HW269585   5.796   5.471   0.184 -1.5875 -0.0707  0.3329
23003SOL     OW69586   2.899   4.201   9.311 -0.2813  0.4170  0.1477
23003SOL    HW169587   2.925   4.113   9.340 -0.0597  0.1501 -0.8166
23003SOL    HW269588   2.920   4.258   9.385  2.5078  0.1279 -0.3117
23004SOL     OW69589   7.024   2.629   0.075  0.2077 -0.4399 -0.5341
23004SOL    HW169590   7.014   2.697   0.009 -0.1025 -0.4144 -0.4617
23004SOL    HW269591   6.966   2.655   0.146  1.5690  0.2593  0.3587
23005SOL     OW69592   8.093   2.286   3.853 -0.4226 -0.0978  0.3242
23005SOL    HW169593   8.167   2.329   3.896 -0.4601  0.6580 -0.3377
23005SOL    HW269594   8.024   2.287   3.919  0.0083 -0.4031  0.7944
23006SOL     OW69595   8.775   0.171   6.387  0.5446  0.2821  0.4452
23006SOL    HW169596   8.812   0.126   6.311  1.2714  0.8434  0.4590
23006SOL    HW269597   8.833   0.148   6.459  0.4205  0.5451  0.6292
23007SOL     OW69598   6.832   0.513   5.730  0.4444 -0.0606  0.2414
23007SOL    HW169599   6.794   0.425   5.729 -1.5123  0.7001  2.0257
23007SOL    HW269600   6.796   0.556   5.652  1.7325 -0.8931 -0.8726
23008SOL     OW69601   7.810   0.414   0.720 -0.3336 -0.4254  0.0705
23008SOL    HW169602   7.789   0.408   0.627 -0.5704 -2.5568  0.2157
23008SOL    HW269603   7.785   0.329   0.756  0.1212  0.2095  2.0179
23009SOL     OW69604   7.544   8.539   6.779 -0.2715 -0.8856  0.7757
23009SOL    HW169605   7.507   8.452   6.763 -0.3227 -1.0286  1.6218
23009SOL    HW269606   7.539   8.550   6.874 -2.4951  1.0079  0.5463
23010SOL     OW69607   5.968   4.082   5.994 -0.4013  1.0721 -0.1620
23010SOL    HW169608   5.946   4.174   6.005 -1.0744  0.8339  0.6420
23010SOL    HW269609   5.901   4.048   5.935  0.2552  1.2370 -1.0236
23011SOL     OW69610   3.476   5.188   2.107 -0.1673  0.0904 -0.1991
23011SOL    HW169611   3.398   5.225   2.147  1.5149  0.6585  2.8370
23011SOL    HW269612   3.549   5.237   2.146  1.7549  0.4523 -3.7777
23012SOL     OW69613   3.930   4.122   8.597 -0.3206 -0.3666 -0.3532
23012SOL    HW169614   3.930   4.041   8.648  1.1631  0.4976  1.0788
23012SOL    HW269615   4.015   4.123   8.554 -0.0598  0.7327  0.1623
23013SOL     OW69616   8.188   5.798   6.691 -0.2593  0.4024  0.0732
23013SOL    HW169617   8.225   5.885   6.674  1.1972 -0.2629 -0.2722
23013SOL    HW269618   8.144   5.774   6.610 -1.7277  1.2960  0.5624
23014SOL     OW69619   4.312   1.163   6.997  0.6396  0.0770  0.0194
23014SOL    HW169620   4.396   1.154   6.952  0.7461  2.0823 -0.3109
23014SOL    HW269621   4.336   1.191   7.086  0.3697  2.1759 -0.5031
23015SOL     OW69622   6.578   7.881   1.093 -0.1583  0.0665  0.2677
23015SOL    HW169623   6.511   7.818   1.066 -0.7906  0.9690 -0.3042
23015SOL    HW269624   6.616   7.842   1.171 -0.2178 -1.2518 -0.3228
23016SOL     OW69625   4.333   9.178   9.872 -0.4492 -0.2972  0.4598
23016SOL    HW169626   4.422   9.167   9.905  0.0015  0.2917 -0.4967
23016SOL    HW269627   4.316   9.272   9.880  0.0837  0.0741 -1.8525
23017SOL     OW69628   5.252   6.494   3.425 -0.1559  0.0268 -0.3632
23017SOL    HW169629   5.161   6.507   3.453  0.2167 -1.3780  1.7253
23017SOL    HW269630   5.253   6.408   3.383  0.1014  0.3107 -0.9493
23018SOL     OW69631   3.532   3.391   2.018  0.0043  0.1273  0.8583
23018SOL    HW169632   3.545   3.330   1.945 -1.1097  0.4496  0.3648
23018SOL    HW269633   3.530   3.335   2.096 -0.4032 -0.4107  0.4695
23019SOL     OW69634   1.175   9.342   2.800 -1.0983  0.6943  0.0071
23019SOL    HW169635   1.143   9.287   2.728 -1.3984  0.0433  0.6356
23019SOL    HW269636   1.258   9.377   2.767 -0.2977 -1.0758  0.0341
23020SOL     OW69637   4.921   9.393   1.214  0.2144  0.1778  0.4780
23020SOL    HW169638   4.888   9.303   1.215 -0.5401  0.4476  1.0872
23020SOL    HW269639   4.937   9.411   1.122 -0.8439 -0.1575  0.2111
23021SOL     OW69640   8.414   6.447   5.347 -0.0671 -0.1512  0.0527
23021SOL    HW169641   8.434   6.435   5.254  1.2959  1.5650  0.0902
23021SOL    HW269642   8.467   6.381   5.392  0.6299  0.1684 -0.2895
23022SOL     OW69643   5.519   8.034   5.662  0.2252  0.1149  0.3487
23022SOL    HW169644   5.543   7.950   5.624  0.9730  0.8436 -0.8358
23022SOL    HW269645   5.433   8.054   5.624  0.7857  0.6469 -0.6734
23023SOL     OW69646   1.901   8.162   4.923  0.9314 -0.3193  0.0182
23023SOL    HW169647   1.987   8.168   4.964  0.0446  1.2550  1.8153
23023SOL    HW269648   1.851   8.106   4.982  0.4613 -0.4626 -0.5109
23024SOL     OW69649   3.109   4.857   4.974 -0.0746  0.1066  0.1624
23024SOL    HW169650   3.019   4.887   4.987  0.2439  0.0622  2.9590
23024SOL    HW269651   3.115   4.776   5.023  1.6124  0.3478  0.4139
23025SOL     OW69652   8.086   7.304   2.849  1.0486  0.3224 -0.3411
23025SOL    HW169653   8.001   7.263   2.863  0.5824  2.1744  3.2303
23025SOL    HW269654   8.066   7.387   2.805  1.0940  0.4327 -0.1537
23026SOL     OW69655   8.645   5.644   4.575  0.4063  0.4352  0.4077
23026SOL    HW169656   8.677   5.630   4.664 -0.1543  1.3309  0.7646
23026SOL    HW269657   8.550   5.655   4.585  0.0212 -1.5709 -0.5535
23027SOL     OW69658   8.002   4.981   4.726  0.3568 -0.0966 -0.1787
23027SOL    HW169659   7.909   4.967   4.706  0.6077 -2.5516  0.0731
23027SOL    HW269660   8.037   5.022   4.647 -0.7169 -0.2422 -0.7610
23028SOL     OW69661   7.855   8.466   0.965  0.3268  0.9479 -0.0685
23028SOL    HW169662   7.917   8.471   1.037  0.3278  0.8085 -0.0600
23028SOL    HW269663   7.907   8.488   0.887  0.8691 -1.1184 -0.3432
23029SOL     OW69664   2.788   1.822   7.827 -0.2487  0.6922  0.7916
23029SOL    HW169665   2.809   1.878   7.752  0.0044  0.5609  0.7649
23029SOL    HW269666   2.768   1.884   7.898 -0.0250  0.8167  0.7458
23030SOL     OW69667   0.893   3.737   8.616 -0.0800  0.0969 -0.6039
23030SOL    HW169668   0.895   3.826   8.650 -0.6725  0.6257 -1.8881
23030SOL    HW269669   0.972   3.696   8.650  0.1080  1.0526  0.1485
23031SOL     OW69670   5.522   5.686   3.847 -0.1839 -0.8388 -0.9007
23031SOL    HW169671   5.433   5.663   3.874  0.1514 -0.5051  0.5873
23031SOL    HW269672   5.512   5.770   3.801 -0.2410  1.6186  3.1274
23032SOL     OW69673   9.430   5.097   4.991  0.1654  0.4538  0.3429
23032SOL    HW169674   9.405   5.074   5.080  0.0719  1.2607  0.5314
23032SOL    HW269675   9.482   5.023   4.960 -0.7379 -0.3359  0.6740
23033SOL     OW69676   6.344   7.996   5.009  0.0393  0.4095 -0.4877
23033SOL    HW169677   6.312   8.064   5.070  1.6299 -0.6936  1.6870
23033SOL    HW269678   6.437   8.016   4.998 -0.0097 -0.0269 -1.7819
23034SOL     OW69679   9.683   2.729   4.688 -0.6357  0.2689  0.8169
23034SOL    HW169680   9.670   2.813   4.733 -0.2337  0.1246  1.2198
23034SOL    HW269681   9.754   2.746   4.626 -0.8200  0.3254  0.6211
23035SOL     OW69682   2.055   8.549   8.331 -0.1221 -0.2341  0.2513
23035SOL    HW169683   1.972   8.544   8.284 -0.3971 -1.3023  0.8058
23035SOL    HW269684   2.115   8.591   8.270 -0.3624 -1.9308 -1.2295
23036SOL     OW69685   4.366   2.532   6.219  0.0937  0.3776  0.1254
23036SOL    HW169686   4.345   2.577   6.301 -0.0417  1.3229 -0.4122
23036SOL    HW269687   4.324   2.585   6.151 -0.6676 -0.9453 -0.4881
23037SOL     OW69688   8.536   4.088   9.207 -0.2755  0.0531  0.7515
23037SOL    HW169689   8.550   4.131   9.123  0.3263 -0.5437  0.5420
23037SOL    HW269690   8.477   4.147   9.254  1.6066  1.8523  1.0097
23038SOL     OW69691   4.565   9.054   5.735  0.7650  0.2733  0.2355
23038SOL    HW169692   4.588   9.074   5.825 -1.5907 -0.6363  1.1085
23038SOL    HW269693   4.514   9.130   5.705  1.7608  0.6930 -0.4504
23039SOL     OW69694   7.185   3.366   9.364  0.3161  0.0310 -0.9375
23039SOL    HW169695   7.259   3.424   9.346 -0.2528  1.0635 -0.0763
23039SOL    HW269696   7.122   3.384   9.294 -0.6536  1.8910  0.3234
23040SOL     OW69697   2.355   7.345   2.232  0.3850  0.0432  0.2587
23040SOL    HW169698   2.390   7.391   2.156 -2.4241  0.5182 -0.8728
23040SOL    HW269699   2.431   7.329   2.288  2.5427 -0.0491 -2.4691
23041SOL     OW69700   3.574   3.184   6.541  0.3865 -0.4842 -0.0987
23041SOL    HW169701   3.526   3.115   6.495 -0.6198  0.6289 -0.7803
23041SOL    HW269702   3.525   3.198   6.622  0.1280 -0.0201 -0.3350
23042SOL     OW69703   4.983   1.962   1.565  0.9562  0.0608 -0.2100
23042SOL    HW169704   4.973   1.869   1.585 -1.9687  0.0563 -1.1593
23042SOL    HW269705   4.966   2.007   1.648 -0.6037 -0.2306 -0.3363
23043SOL     OW69706   4.215   5.137   5.379 -0.2985  0.2333 -0.0407
23043SOL    HW169707   4.236   5.045   5.397 -0.4760  0.3119  0.5624
23043SOL    HW269708   4.125   5.148   5.410 -0.4973  0.4600 -0.6644
23044SOL     OW69709   6.679   5.295   7.076  0.1467 -0.2028  0.3308
23044SOL    HW169710   6.629   5.214   7.064 -1.7364  0.8455  0.6852
23044SOL    HW269711   6.633   5.360   7.022  2.3638  0.3938 -0.9612
23045SOL     OW69712   3.850   0.502   6.550  0.0263  0.5358  0.0322
23045SOL    HW169713   3.856   0.596   6.533  0.2582  0.1157 -2.6663
23045SOL    HW269714   3.766   0.476   6.512 -0.0801 -0.3514  0.8373
23046SOL     OW69715   6.618   2.867   6.167 -0.1739 -0.1720 -0.2494
23046SOL    HW169716   6.598   2.883   6.075 -0.9587 -0.6826 -0.1718
23046SOL    HW269717   6.583   2.942   6.213 -0.5918 -0.3520 -0.2727
23047SOL     OW69718   0.716   1.556   0.802 -0.2275  0.5491 -0.2220
23047SOL    HW169719   0.660   1.632   0.789 -1.5558  0.1015  2.2798
23047SOL    HW269720   0.789   1.589   0.854 -0.8934  0.1131  1.0130
23048SOL     OW69721   1.023   8.041   7.101 -0.7839 -1.0317 -0.5023
23048SOL    HW169722   1.050   7.972   7.041  0.3188  0.4828 -1.8528
23048SOL    HW269723   1.063   8.121   7.066 -1.2544  0.1692  1.4764
23049SOL     OW69724   1.612   2.981   3.900  0.2119  0.1942 -0.0653
23049SOL    HW169725   1.672   2.939   3.962  0.5357  0.7744  0.0186
23049SOL    HW269726   1.655   3.063   3.876 -0.0002  0.0646 -0.9192
23050SOL     OW69727   2.200   4.869   2.953 -0.0598 -0.2654 -0.4554
23050SOL    HW169728   2.214   4.836   2.864  1.0435  2.5736 -1.4559
23050SOL    HW269729   2.289   4.888   2.986 -0.5650  1.1878  0.1739
23051SOL     OW69730   6.710   4.247   4.605 -0.0870 -0.0759 -0.6181
23051SOL    HW169731   6.794   4.211   4.577  0.2316  0.5581 -0.4864
23051SOL    HW269732   6.711   4.338   4.575 -0.5142  0.0821 -0.1704
23052SOL     OW69733   0.667   1.566   1.284  0.2495  0.4562  0.0785
23052SOL    HW169734   0.628   1.645   1.247 -0.4548  0.4138  0.7074
23052SOL    HW269735   0.675   1.506   1.210  0.5718  1.0292 -0.3565
23053SOL     OW69736   1.338   6.987   7.227 -0.2062  0.0568 -0.3113
23053SOL    HW169737   1.265   6.927   7.245  0.1019 -0.0259  0.7817
23053SOL    HW269738   1.383   6.949   7.152  0.1555 -1.2679  0.5386
23054SOL     OW69739   0.609   0.678   1.648 -0.2450  0.6092  0.6792
23054SOL    HW169740   0.567   0.745   1.701  0.6131  1.1839  0.6394
23054SOL    HW269741   0.645   0.725   1.573 -0.4335 -0.0294  0.1769
23055SOL     OW69742   6.885   6.118   4.490 -0.4905  0.1764 -0.0981
23055SOL    HW169743   6.889   6.036   4.539  1.6558  0.9625  1.1550
23055SOL    HW269744   6.883   6.186   4.557 -1.2470  1.1981 -1.1222
23056SOL     OW69745   4.902   7.797   4.838 -0.1727 -0.5898 -0.4762
23056SOL    HW169746   4.914   7.883   4.797 -0.2598 -0.2397  0.2075
23056SOL    HW269747   4.988   7.756   4.834 -0.0800 -0.3833 -0.6129
23057SOL     OW69748   2.140   3.765   3.680 -0.1988 -0.7810  0.0980
23057SOL    HW169749   2.116   3.675   3.699 -1.3224 -0.7272 -0.9591
23057SOL    HW269750   2.121   3.813   3.760 -1.7133 -1.1098 -0.0334
23058SOL     OW69751   4.650   3.894   2.850  0.5786  0.4246  0.2934
23058SOL    HW169752   4.720   3.942   2.893  0.2443  3.0710 -1.8292
23058SOL    HW269753   4.592   3.962   2.815 -0.1895 -1.5049 -2.5551
23059SOL     OW69754   3.010   0.532   8.822  0.1257  0.0347  0.2072
23059SOL    HW169755   3.006   0.447   8.777 -0.2852 -0.3460  0.9388
23059SOL    HW269756   3.103   0.555   8.820  0.1679 -0.1649 -0.4771
23060SOL     OW69757   7.780   2.320   2.881 -0.1178  0.6472 -0.3533
23060SOL    HW169758   7.731   2.264   2.822  1.8109 -1.9338  0.3105
23060SOL    HW269759   7.831   2.377   2.823  1.4692 -1.5860 -1.2967
23061SOL     OW69760   5.014   3.404   6.140  0.0990  0.2868  0.1468
23061SOL    HW169761   4.954   3.400   6.215 -0.9317  0.0839 -0.6740
23061SOL    HW269762   5.095   3.364   6.173  0.2868  1.8158  1.7007
23062SOL     OW69763   0.365   0.211   5.396 -0.0815 -0.9601  0.4782
23062SOL    HW169764   0.444   0.163   5.421  0.8775  0.5262  0.3965
23062SOL    HW269765   0.395   0.278   5.336 -1.5232 -0.7910 -0.1013
23063SOL     OW69766   2.254   7.002   1.616 -0.0181 -0.1542 -0.2741
23063SOL    HW169767   2.281   7.078   1.667  2.0675 -1.1100  0.1657
23063SOL    HW269768   2.195   7.037   1.549  0.0054  1.6516  0.6066
23064SOL     OW69769   4.700   4.429   1.252  0.8016  0.0289 -0.4191
23064SOL    HW169770   4.625   4.487   1.239  0.2971 -0.9249 -1.9627
23064SOL    HW269771   4.740   4.421   1.166  0.9670 -1.7732 -0.2026
23065SOL     OW69772   5.426   2.782   8.060 -0.2150 -0.6685  0.0108
23065SOL    HW169773   5.506   2.797   8.010 -0.0467  1.6919  0.8637
23065SOL    HW269774   5.356   2.816   8.004 -0.4510 -1.2176 -0.0397
23066SOL     OW69775   4.037   4.326   7.785  0.8148  0.0114 -0.4148
23066SOL    HW169776   4.110   4.264   7.780  0.0932 -0.7823 -3.1033
23066SOL    HW269777   4.050   4.383   7.709  0.3165  1.9035  0.8435
23067SOL     OW69778   4.026   4.254   1.829  1.3676 -0.0090  0.3851
23067SOL    HW169779   4.094   4.232   1.765  0.4290  1.4003 -1.1605
23067SOL    HW269780   4.034   4.348   1.842  1.1289 -0.1629  1.9280
23068SOL     OW69781   5.396   9.883   7.746  0.0059  0.3920  0.1197
23068SOL    HW169782   5.416   9.791   7.731  1.9940  1.0484 -1.7577
23068SOL    HW269783   5.319   9.900   7.691  0.8513  0.2732 -1.1484
23069SOL     OW69784   5.438   4.121   1.124  0.5315  0.1768 -0.0455
23069SOL    HW169785   5.394   4.204   1.144 -2.4537 -1.3209  0.2615
23069SOL    HW269786   5.437   4.116   1.029 -1.9004 -0.6703 -0.0396
23070SOL     OW69787   6.714   3.344   1.730  0.6529  0.4576  0.5042
23070SOL    HW169788   6.633   3.390   1.753 -1.7103 -1.5927 -2.8875
23070SOL    HW269789   6.748   3.392   1.654  0.1361 -1.1656 -0.8060
23071SOL     OW69790   4.664   0.388   7.090  0.5104 -0.1395  0.4984
23071SOL    HW169791   4.724   0.422   7.156  1.8669 -1.6891  0.1354
23071SOL    HW269792   4.598   0.340   7.141 -0.0459  0.9757  0.8590
23072SOL     OW69793   6.000   6.587   8.321 -0.1231  0.5360 -0.1772
23072SOL    HW169794   6.084   6.569   8.364 -1.7929  0.3860  3.3970
23072SOL    HW269795   5.994   6.682   8.318 -1.2693  0.7080  3.1579
23073SOL     OW69796   2.854   9.380   4.239 -0.1144  0.1300  0.9528
23073SOL    HW169797   2.763   9.384   4.209 -0.0626 -1.8253  0.3886
23073SOL    HW269798   2.873   9.469   4.270 -1.5022  1.1711 -0.9519
23074SOL     OW69799   8.884   7.589   3.903  0.1091 -0.2808 -0.0445
23074SOL    HW169800   8.790   7.573   3.906 -0.2835  1.6838 -0.7016
23074SOL    HW269801   8.921   7.506   3.871 -1.5944 -0.4370 -1.7862
23075SOL     OW69802   5.663   3.540   4.509 -0.5140 -0.2168 -0.2075
23075SOL    HW169803   5.607   3.466   4.529 -2.2809  0.8831 -0.8187
23075SOL    HW269804   5.631   3.573   4.425  0.7875  0.7253 -0.3751
23076SOL     OW69805   0.209   8.840   0.021 -0.0152  0.6230  0.3037
23076SOL    HW169806   0.240   8.867  -0.066 -0.1879  1.7702  0.5874
23076SOL    HW269807   0.289   8.816   0.068  0.0393 -0.4493 -0.3104
23077SOL     OW69808   1.971   2.972   4.027  0.3727  0.0546  0.2388
23077SOL    HW169809   2.023   3.014   4.096 -1.1552 -0.0935  1.5151
23077SOL    HW269810   1.920   2.905   4.072 -0.0699 -0.5972 -1.1768
23078SOL     OW69811   4.063   9.818   0.398 -0.2877 -0.5252 -0.4856
23078SOL    HW169812   4.075   9.732   0.437  1.6476  0.2209  0.7167
23078SOL    HW269813   3.968   9.828   0.391 -0.5595 -2.7269 -0.6677
23079SOL     OW69814   9.723   1.639   0.560  0.8124 -0.3098  0.4107
23079SOL    HW169815   9.701   1.692   0.484  1.2688 -1.5461 -0.6211
23079SOL    HW269816   9.714   1.698   0.634 -0.7817  0.6201 -0.4798
23080SOL     OW69817   7.210   3.444   2.293 -0.0263 -0.1714  0.9293
23080SOL    HW169818   7.128   3.412   2.255  0.4777  0.2690 -0.5884
23080SOL    HW269819   7.183   3.505   2.361 -0.9693 -0.0901  0.4998
23081SOL     OW69820   9.428   7.146   4.123  0.9055  0.0528  0.1399
23081SOL    HW169821   9.407   7.217   4.063  1.0740 -1.6716 -2.0768
23081SOL    HW269822   9.489   7.090   4.075  0.4535 -1.8260  1.6023
23082SOL     OW69823   3.032   0.156   8.492  0.0576 -0.0407  0.1581
23082SOL    HW169824   3.059   0.225   8.553  0.2132 -0.8697  1.0418
23082SOL    HW269825   2.941   0.136   8.517 -0.5059  0.8620 -1.0637
23083SOL     OW69826   3.331   3.662   9.487 -0.3402 -0.4592 -0.0747
23083SOL    HW169827   3.319   3.639   9.395 -1.1610 -2.1957  0.4283
23083SOL    HW269828   3.277   3.599   9.535 -0.4804  0.8510  1.5761
23084SOL     OW69829   9.727   5.968   5.177 -0.0155  0.6747 -0.1569
23084SOL    HW169830   9.646   5.965   5.227 -0.6661  1.0348 -1.1505
23084SOL    HW269831   9.699   5.982   5.086  1.0242 -1.6050 -0.9111
23085SOL     OW69832   7.056   9.840   9.722  0.5773 -0.4181 -0.2502
23085SOL    HW169833   7.108   9.767   9.756  1.9229  1.1965  1.4140
23085SOL    HW269834   6.970   9.829   9.763  0.5230 -1.4448 -0.6082
23086SOL     OW69835   7.085   0.392   2.261 -0.2206 -0.7731  0.1561
23086SOL    HW169836   7.059   0.364   2.173 -1.0310 -0.0159  0.1349
23086SOL    HW269837   7.155   0.456   2.247 -1.0825  0.1590 -0.0158
23087SOL     OW69838   6.132   1.444   6.050 -0.3096  0.3824  0.2036
23087SOL    HW169839   6.171   1.484   6.127 -0.0768  0.2327  0.1662
23087SOL    HW269840   6.039   1.465   6.056 -0.8198 -1.9784  2.0334
23088SOL     OW69841   5.281   8.107   5.589 -0.1487  0.1973  0.2180
23088SOL    HW169842   5.270   8.186   5.642 -0.3951  0.7772 -0.6828
23088SOL    HW269843   5.195   8.066   5.589 -0.5018  0.8942 -0.7992
23089SOL     OW69844   7.721   5.332   2.596 -0.4287 -0.1041  0.2257
23089SOL    HW169845   7.785   5.359   2.662  0.6324 -0.4375 -0.6143
23089SOL    HW269846   7.638   5.367   2.626 -0.2089 -1.2802  2.3550
23090SOL     OW69847   8.829   7.997   3.593  0.1498 -0.1390  0.2965
23090SOL    HW169848   8.895   8.064   3.612 -2.3714  2.5785  0.3396
23090SOL    HW269849   8.776   7.992   3.673 -0.6853 -0.9923 -0.2837
23091SOL     OW69850   5.213   7.080   4.694  0.1875 -0.6018 -0.2323
23091SOL    HW169851   5.169   7.035   4.766 -1.2169 -0.3109 -0.8676
23091SOL    HW269852   5.286   7.126   4.735  0.8107 -2.2862  0.6340
23092SOL     OW69853   3.282   3.076   4.986  0.1414 -0.0677  0.2208
23092SOL    HW169854   3.291   3.103   4.894  2.1252 -0.4263  0.2652
23092SOL    HW269855   3.326   3.146   5.035  1.2547 -1.0445  0.6732
23093SOL     OW69856   0.354   7.053   0.622  0.0449 -0.1883  0.5560
23093SOL    HW169857   0.270   7.011   0.641  0.4827 -1.1520  0.4244
23093SOL    HW269858   0.382   7.014   0.539  0.6650  0.0641  0.6403
23094SOL     OW69859   5.907   0.031   4.672 -0.3689 -0.0199  0.0850
23094SOL    HW169860   5.942   0.105   4.722 -1.3568 -0.2789  1.2051
23094SOL    HW269861   5.897  -0.039   4.737 -1.5369 -0.4161 -0.4984
23095SOL     OW69862   2.926   5.323   1.221 -0.2366  0.2358  0.4731
23095SOL    HW169863   2.922   5.366   1.135 -0.9902  2.7398  1.6648
23095SOL    HW269864   2.966   5.389   1.278  2.1130 -2.0875  1.6992
23096SOL     OW69865   9.611   7.628   9.724 -0.3131 -0.0027  0.5331
23096SOL    HW169866   9.642   7.537   9.722  2.2430  0.7976 -0.1116
23096SOL    HW269867   9.550   7.635   9.651  0.1439 -0.9790  0.0432
23097SOL     OW69868   1.622   9.141   3.987 -0.3941 -0.0371 -0.1717
23097SOL    HW169869   1.562   9.155   3.913 -1.1979 -0.0310  0.4667
23097SOL    HW269870   1.709   9.145   3.948 -0.8209 -2.0354 -1.4636
23098SOL     OW69871   7.488   7.299   8.338  0.2268 -0.1499  0.0738
23098SOL    HW169872   7.533   7.328   8.417 -0.6144  2.6616 -0.3697
23098SOL    HW269873   7.436   7.223   8.366 -0.1563  0.8615  2.2717
23099SOL     OW69874   7.737   2.384   7.218 -0.3523 -0.4466 -0.4416
23099SOL    HW169875   7.768   2.371   7.128  0.1025  0.7153 -0.4724
23099SOL    HW269876   7.689   2.466   7.214 -1.2430 -0.9255  0.1697
23100SOL     OW69877   6.734   3.456   2.867 -0.3945  0.3293 -0.1859
23100SOL    HW169878   6.752   3.543   2.903  0.3582 -0.9393  2.8913
23100SOL    HW269879   6.807   3.440   2.807  0.5158  1.1137  0.6593
23101SOL     OW69880   6.977   9.240   5.952  0.0411  0.5803 -0.4788
23101SOL    HW169881   6.886   9.266   5.968  0.0335  0.5353 -0.4452
23101SOL    HW269882   6.975   9.193   5.869  0.0633  0.7325 -0.5659
23102SOL     OW69883   5.209   9.320   7.302 -0.0852 -0.0239 -0.4393
23102SOL    HW169884   5.199   9.225   7.304 -0.2636  0.0009  0.0046
23102SOL    HW269885   5.225   9.341   7.210  0.9175 -0.5807 -0.3991
23103SOL     OW69886   9.434   4.214   9.594 -0.5124  0.7792 -0.1070
23103SOL    HW169887   9.527   4.224   9.616 -0.8223  0.4440  1.4885
23103SOL    HW269888   9.434   4.164   9.513  0.7191  1.9027 -0.8339
23104SOL     OW69889   8.895   9.360   9.484  0.2979 -0.0889  0.3663
23104SOL    HW169890   8.821   9.408   9.447 -0.5034 -0.7737  1.0169
23104SOL    HW269891   8.934   9.421   9.547  0.9302  0.6382 -0.6840
23105SOL     OW69892   6.355   9.085   6.364  0.5399 -0.2503  0.1392
23105SOL    HW169893   6.328   9.043   6.282  1.2547  0.2712 -0.3811
23105SOL    HW269894   6.367   9.013   6.425 -1.7421 -0.5440  0.3479
23106SOL     OW69895   6.057   0.992   2.724  0.1220  0.3023  0.0634
23106SOL    HW169896   6.008   0.915   2.696  1.1529 -0.1349 -0.6036
23106SOL    HW269897   6.120   0.960   2.788 -0.9356  0.9904  1.5138
23107SOL     OW69898   2.018   7.553   7.548 -0.2569 -0.0823  0.0908
23107SOL    HW169899   2.069   7.634   7.551 -0.6747  0.1721  0.2841
23107SOL    HW269900   2.042   7.506   7.628 -0.9869  0.4389  0.6235
23108SOL     OW69901   7.085   8.726   3.916  0.5122  0.0871 -0.2504
23108SOL    HW169902   7.007   8.728   3.861  0.7695 -0.5070 -0.6503
23108SOL    HW269903   7.147   8.784   3.873  0.1986  0.7740  0.2166
23109SOL     OW69904   9.666   6.892   2.413  0.1135 -0.1035  0.6217
23109SOL    HW169905   9.757   6.918   2.399  0.3815 -0.9363  0.7322
23109SOL    HW269906   9.615   6.971   2.399  0.7919  0.2033 -0.1699
23110SOL     OW69907   9.262   6.117   8.306 -0.2326 -0.3159 -0.0604
23110SOL    HW169908   9.333   6.169   8.344  0.7816 -1.4107 -0.3628
23110SOL    HW269909   9.188   6.176   8.301  0.6153  0.8213  0.4399
23111SOL     OW69910   4.126   1.003   5.582 -0.5925  0.4311 -0.2944
23111SOL    HW169911   4.154   1.079   5.531 -0.9031  0.0309 -1.0981
23111SOL    HW269912   4.144   0.929   5.525 -0.4747 -0.0813  0.4013
23112SOL     OW69913   7.412   1.791   4.337 -0.0792 -0.5391 -0.1185
23112SOL    HW169914   7.325   1.793   4.376  0.5807 -2.2690  1.5961
23112SOL    HW269915   7.467   1.841   4.398 -0.2725  3.1962 -2.6673
23113SOL     OW69916   0.245   2.686   8.001 -0.4433  0.1524 -0.5423
23113SOL    HW169917   0.186   2.656   8.071 -1.0312  0.3468 -0.9541
23113SOL    HW269918   0.215   2.774   7.981  2.7421  2.1389  2.3305
23114SOL     OW69919   7.039   8.174   7.057 -0.6573  0.4359 -0.1789
23114SOL    HW169920   7.113   8.126   7.095 -1.7698 -1.8363 -0.6554
23114SOL    HW269921   7.003   8.225   7.130  0.7024  0.7161  0.3197
23115SOL     OW69922   2.887   6.147   8.976 -0.2439 -0.0379  0.0255
23115SOL    HW169923   2.805   6.098   8.985 -0.2350 -0.1639 -0.5410
23115SOL    HW269924   2.918   6.160   9.065  0.0785 -1.6008  0.1605
23116SOL     OW69925   7.101   1.164   7.915  0.0992 -0.1439  0.1080
23116SOL    HW169926   7.044   1.212   7.975  2.0803  0.4788  1.5787
23116SOL    HW269927   7.109   1.077   7.955 -0.1855 -0.3804 -0.3459
23117SOL     OW69928   3.937   9.764   1.626 -0.0987 -0.1774  0.5094
23117SOL    HW169929   4.022   9.773   1.671 -0.5482 -1.9668  1.8580
23117SOL    HW269930   3.885   9.709   1.685 -1.7662 -0.1883 -0.8977
23118SOL     OW69931   5.228   1.358   0.725  0.2610 -0.4928 -0.5615
23118SOL    HW169932   5.295   1.410   0.768 -0.5519 -0.3961  0.6464
23118SOL    HW269933   5.231   1.385   0.633 -2.1416  4.0547  0.4146
23119SOL     OW69934   7.209   4.033   5.083 -0.3750 -0.2905  0.5214
23119SOL    HW169935   7.175   3.990   5.161 -0.7965  2.2775  1.8782
23119SOL    HW269936   7.132   4.047   5.028 -0.1448 -1.7033 -0.2110
23120SOL     OW69937   6.736   9.313   8.260  0.2680  0.2793 -0.1661
23120SOL    HW169938   6.778   9.379   8.315  0.1621 -0.7229  1.1698
23120SOL    HW269939   6.800   9.242   8.254 -0.5579 -0.5399  0.4840
23121SOL     OW69940   0.904   6.395   9.259  0.0795  0.1730 -0.4669
23121SOL    HW169941   0.948   6.407   9.175  3.1591  2.0815  1.2376
23121SOL    HW269942   0.959   6.334   9.307 -0.8216  0.2326  0.6925
23122SOL     OW69943   0.838   7.536   2.153  0.6034 -0.0140  0.0779
23122SOL    HW169944   0.818   7.442   2.161 -1.1023  0.2133 -1.0153
23122SOL    HW269945   0.756   7.575   2.122  1.5007  1.7432 -0.1762
23123SOL     OW69946   3.099   3.180   9.355 -0.3064 -0.3829 -0.1189
23123SOL    HW169947   3.156   3.191   9.278 -2.2000  0.4325 -1.4787
23123SOL    HW269948   3.010   3.179   9.319 -1.1777 -2.1953  1.8767
23124SOL     OW69949   9.146   8.233   5.628 -0.0586 -0.1399  0.1393
23124SOL    HW169950   9.060   8.236   5.670 -0.7776  0.3299 -1.3127
23124SOL    HW269951   9.168   8.139   5.626 -1.2203 -0.4145 -0.7936
23125SOL     OW69952   2.848   5.711   2.067 -0.1704  0.5918 -0.3857
23125SOL    HW169953   2.909   5.684   2.135 -1.0498 -1.3412 -0.3104
23125SOL    HW269954   2.841   5.806   2.077  1.9048  0.6992  0.3355
23126SOL     OW69955   4.483   8.451   2.627  0.1019  0.1193  0.0136
23126SOL    HW169956   4.399   8.428   2.667  0.2410 -2.2035 -0.8730
23126SOL    HW269957   4.547   8.395   2.672  1.0199  1.0851 -0.0540
23127SOL     OW69958   6.972   0.454   3.653 -0.1041 -0.2474 -0.0814
23127SOL    HW169959   6.915   0.379   3.673 -0.7427  0.5803  1.4422
23127SOL    HW269960   6.988   0.494   3.738  1.0999  0.7395 -0.7493
23128SOL     OW69961   1.054   2.297   9.159 -0.5708  0.3880 -0.8475
23128SOL    HW169962   1.121   2.270   9.222 -2.3307  0.1527  1.0392
23128SOL    HW269963   1.101   2.350   9.094  1.4573 -0.0200  0.2183
23129SOL     OW69964   8.007   5.396   4.088  0.3401  0.2008  0.0238
23129SOL    HW169965   7.942   5.449   4.133 -0.3297  0.2670 -0.9930
23129SOL    HW269966   8.029   5.446   4.009  0.3649 -0.5953 -0.4882
23130SOL     OW69967   6.530   9.197   3.508  0.5385  0.0579 -0.2688
23130SOL    HW169968   6.444   9.224   3.538  0.9239  1.5327 -0.4142
23130SOL    HW269969   6.518   9.172   3.417  0.3839  0.9698 -0.5068
23131SOL     OW69970   7.148   7.331   8.883  0.1309 -0.0360  0.6411
23131SOL    HW169971   7.105   7.252   8.917  0.2409 -0.2006  0.3986
23131SOL    HW269972   7.225   7.298   8.837 -0.2440  0.1473 -0.1334
23132SOL     OW69973   2.852   2.236   8.731 -0.2764 -0.3345  0.0633
23132SOL    HW169974   2.783   2.264   8.671  0.6616  2.8375  0.2708
23132SOL    HW269975   2.807   2.205   8.808 -1.4607 -1.4886 -1.0486
23133SOL     OW69976   7.799   3.009   8.920 -0.2104  0.5976 -0.2416
23133SOL    HW169977   7.815   3.000   9.014  0.3528  0.2117 -0.3692
23133SOL    HW269978   7.742   2.935   8.898  0.7410 -0.1053 -0.4407
23134SOL     OW69979   8.485   8.580   9.657 -0.4219  0.1426 -0.1451
23134SOL    HW169980   8.563   8.575   9.712 -0.3751 -2.3506 -0.3071
23134SOL    HW269981   8.478   8.672   9.633  0.5823  1.0144  2.5275
23135SOL     OW69982   9.837   4.324   5.969 -0.2940  0.0687  0.2717
23135SOL    HW169983   9.852   4.266   6.044 -2.3638  0.1870  0.8229
23135SOL    HW269984   9.868   4.410   5.999  0.6894 -0.2645  0.2602
23136SOL     OW69985   7.235   5.226   3.846 -0.3878  0.4253  0.2510
23136SOL    HW169986   7.181   5.184   3.912  1.7745 -0.1038  1.7861
23136SOL    HW269987   7.219   5.319   3.856 -1.5144  0.2424  0.1990
23137SOL     OW69988   1.257   1.724   8.565 -0.7762  0.4686 -0.0067
23137SOL    HW169989   1.206   1.797   8.599 -0.5584  1.3457 -1.4584
23137SOL    HW269990   1.192   1.662   8.532 -1.0166 -0.6926  2.4373
23138SOL     OW69991   8.844   8.520   2.863  0.6440  0.4980 -0.0161
23138SOL    HW169992   8.788   8.445   2.881  1.4201 -0.1286 -0.1989
23138SOL    HW269993   8.933   8.487   2.870  1.0034  1.4163 -0.0285
23139SOL     OW69994   4.262   5.944   1.109 -0.2670  0.1870  0.2236
23139SOL    HW169995   4.355   5.948   1.086 -0.4635  0.8468 -0.5460
23139SOL    HW269996   4.243   5.851   1.118  0.0693 -0.0811 -1.4455
23140SOL     OW69997   7.091   3.132   5.976  0.0913 -0.6301 -0.4854
23140SOL    HW169998   7.126   3.096   6.058  1.9054  0.5250 -0.6918
23140SOL    HW269999   7.152   3.202   5.953 -2.1027  1.1809 -1.2036
23141SOL     OW70000   7.092   2.562   1.258 -0.0610  1.0228 -0.1921
23141SOL    HW170001   7.056   2.491   1.205  2.6285 -2.2890  1.9688
23141SOL    HW270002   7.069   2.538   1.348  1.5137  2.5330  0.6648
23142SOL     OW70003   6.075   2.243   9.822 -0.2755  0.2558  0.3544
23142SOL    HW170004   6.169   2.261   9.828  0.1472 -1.7895  0.6527
23142SOL    HW270005   6.046   2.290   9.744  1.3442 -0.4246 -0.6947
23143SOL     OW70006   5.699   1.629   4.553  0.5103 -0.3730 -0.0817
23143SOL    HW170007   5.622   1.661   4.506  1.7230  0.1569 -1.8191
23143SOL    HW270008   5.709   1.688   4.628  0.1530  0.5637 -0.7606
23144SOL     OW70009   7.651   7.569   2.967 -0.0393 -0.0285 -0.6369
23144SOL    HW170010   7.584   7.501   2.967  0.3155 -0.4285 -2.3924
23144SOL    HW270011   7.723   7.532   3.018 -0.4781 -0.2760 -0.1791
23145SOL     OW70012   4.345   2.844   8.794 -0.1403 -0.3565 -0.1032
23145SOL    HW170013   4.259   2.884   8.779  0.3928  0.9477  0.1789
23145SOL    HW270014   4.333   2.792   8.874 -0.4837  0.4411  0.3853
23146SOL     OW70015   5.567   8.737   5.149  0.1680 -0.3793 -0.0839
23146SOL    HW170016   5.615   8.819   5.157 -1.8828  1.0289 -1.2101
23146SOL    HW270017   5.624   8.671   5.189  1.3649  1.7790  2.0276
23147SOL     OW70018   5.330   4.156   0.848  0.1685  0.0273 -0.0921
23147SOL    HW170019   5.234   4.159   0.841  0.0123 -0.8973  1.3042
23147SOL    HW270020   5.358   4.114   0.767 -0.8005 -1.9272  0.5351
23148SOL     OW70021   3.643   8.468   2.109  0.4074 -0.2115  0.0167
23148SOL    HW170022   3.603   8.510   2.185  0.8096  1.1675 -0.5087
23148SOL    HW270023   3.679   8.540   2.058  3.0146 -1.3083  0.1497
23149SOL     OW70024   0.706   7.026   7.584  0.4924  0.3193  0.4472
23149SOL    HW170025   0.745   7.095   7.531 -0.4715  0.8014  0.3607
23149SOL    HW270026   0.615   7.022   7.556  0.7939 -1.8845 -0.5174
23150SOL     OW70027   9.539   0.067   0.522  0.2007  0.1156 -0.3499
23150SOL    HW170028   9.488  -0.011   0.501  1.0087 -0.1825 -1.2816
23150SOL    HW270029   9.497   0.138   0.475 -0.8185  0.3598  0.8730
23151SOL     OW70030   3.384   2.124   5.684  0.1455 -0.5082 -0.0696
23151SOL    HW170031   3.433   2.093   5.760 -1.2737 -1.1505  0.6250
23151SOL    HW270032   3.430   2.086   5.609  1.3552 -0.1608  0.4728
23152SOL     OW70033   4.636   0.833   6.227  0.0656  0.1439  0.2056
23152SOL    HW170034   4.707   0.838   6.292  3.0029  0.8397 -2.7618
23152SOL    HW270035   4.645   0.914   6.177 -2.7174  0.0849 -0.5134
23153SOL     OW70036   9.244   5.490   7.465  0.1812  0.0470  0.0573
23153SOL    HW170037   9.285   5.504   7.550  0.8592 -0.7481 -0.1207
23153SOL    HW270038   9.170   5.433   7.484 -1.5153  2.2609  0.5243
23154SOL     OW70039   5.294   7.615   5.791  0.1087 -0.1681  0.3986
23154SOL    HW170040   5.366   7.600   5.729  0.0810  3.1219 -0.6419
23154SOL    HW270041   5.336   7.659   5.865 -0.5108 -0.2557  0.8020
23155SOL     OW70042   8.636   6.885   1.190  0.0615 -0.1333 -0.1765
23155SOL    HW170043   8.718   6.837   1.176  0.1816  0.8165 -3.5998
23155SOL    HW270044   8.662   6.961   1.243  0.7681 -1.3236  1.2634
23156SOL     OW70045   1.603   2.308   0.440 -0.1090 -0.3935 -0.1633
23156SOL    HW170046   1.681   2.292   0.494  0.2776 -1.3834 -0.9854
23156SOL    HW270047   1.637   2.321   0.352 -0.8588 -0.6150 -0.4939
23157SOL     OW70048   0.375   6.581   2.536  0.0188 -0.3423 -0.6473
23157SOL    HW170049   0.430   6.652   2.506 -1.1306  0.2844 -1.3482
23157SOL    HW270050   0.392   6.575   2.630 -0.3979  1.3520 -0.4334
23158SOL     OW70051   4.265   2.226   2.562 -0.5576 -0.0849 -0.1704
23158SOL    HW170052   4.214   2.256   2.637 -0.5782 -0.9126  0.1564
23158SOL    HW270053   4.353   2.212   2.597  0.4612  3.1538 -1.1242
23159SOL     OW70054   8.173   4.913   5.136  0.0258 -0.3145 -0.0590
23159SOL    HW170055   8.121   4.845   5.179 -0.1922 -0.2407 -0.2039
23159SOL    HW270056   8.110   4.964   5.086  0.0475  0.5852  0.8066
23160SOL     OW70057   7.730   1.419   3.493 -0.0350  0.2003 -0.3197
23160SOL    HW170058   7.785   1.496   3.480  0.9491 -0.5494 -0.7470
23160SOL    HW270059   7.727   1.408   3.589 -0.7250  1.1357 -0.2270
23161SOL     OW70060   8.682   9.812   5.364 -0.4115 -0.2633 -0.2407
23161SOL    HW170061   8.655   9.728   5.400 -1.3687  0.4557  0.7693
23161SOL    HW270062   8.679   9.800   5.269 -2.2440 -0.8618 -0.1451
23162SOL     OW70063   9.494   7.613   5.507  0.1044 -0.0451  0.7371
23162SOL    HW170064   9.477   7.554   5.433 -0.6827  0.7745  0.2468
23162SOL    HW270065   9.584   7.644   5.493  0.0866 -0.1728  0.3137
23163SOL     OW70066   5.266   9.042   3.558  0.6713  0.1741  0.2829
23163SOL    HW170067   5.208   9.108   3.520 -0.4792 -0.6558  0.5540
23163SOL    HW270068   5.244   9.041   3.651  1.9169  0.6274  0.6011
23164SOL     OW70069   8.849   8.577   1.347  0.3536 -0.1390 -0.3599
23164SOL    HW170070   8.813   8.502   1.394  0.1109 -0.0124 -0.3439
23164SOL    HW270071   8.797   8.582   1.267 -0.3620  0.6761  0.1380
23165SOL     OW70072   3.214   2.755   6.781  0.2026  0.2280 -0.3475
23165SOL    HW170073   3.134   2.707   6.758 -2.0707  4.1377 -1.5055
23165SOL    HW270074   3.280   2.718   6.723 -1.0230 -2.2833 -0.2888
23166SOL     OW70075   8.952   1.058   4.921 -0.1163  0.3227 -0.0215
23166SOL    HW170076   8.937   0.971   4.957  0.4749  0.9792  1.9292
23166SOL    HW270077   8.865   1.098   4.915 -0.3840 -0.3593 -0.8916
23167SOL     OW70078   6.316   6.538   5.119 -0.1374 -0.1717  0.4462
23167SOL    HW170079   6.339   6.475   5.050 -2.4159 -0.3229 -0.2805
23167SOL    HW270080   6.374   6.516   5.191 -0.8870 -3.2778  0.2789
23168SOL     OW70081   7.513   2.727   7.844  0.2734 -0.0529 -0.4563
23168SOL    HW170082   7.545   2.813   7.817 -0.4371  0.2444 -0.3993
23168SOL    HW270083   7.433   2.714   7.792  0.6813 -0.9333 -0.8697
23169SOL     OW70084   8.640   2.180   8.871 -0.7052  0.1993  0.1968
23169SOL    HW170085   8.584   2.251   8.902 -0.2676 -0.4423  2.6950
23169SOL    HW270086   8.630   2.182   8.776 -0.6018  3.6465  0.1271
23170SOL     OW70087   9.046   2.220   1.783 -0.2336 -0.1544 -0.0581
23170SOL    HW170088   9.141   2.216   1.782 -0.1967  0.6952 -0.6382
23170SOL    HW270089   9.018   2.152   1.722  0.0197  0.0532 -0.4062
23171SOL     OW70090   4.517   6.643   9.238 -0.1877 -0.4955 -0.1018
23171SOL    HW170091   4.456   6.569   9.239 -1.1431  0.2741  0.4862
23171SOL    HW270092   4.533   6.662   9.330  0.3399 -0.1995 -0.2491
23172SOL     OW70093   8.476   6.095   0.524 -0.6227  0.2123 -0.0764
23172SOL    HW170094   8.404   6.075   0.465  2.2182 -0.1842 -3.7590
23172SOL    HW270095   8.516   6.010   0.544  0.3232  0.6074 -0.2296
23173SOL     OW70096   4.965   0.432   5.164  0.1789  0.5016  0.1278
23173SOL    HW170097   4.902   0.494   5.126  0.5493  2.0040  1.8225
23173SOL    HW270098   4.916   0.388   5.234  0.1268 -0.6705 -0.6154
23174SOL     OW70099   4.390   5.365   7.876  0.1497  0.0612  0.4505
23174SOL    HW170100   4.352   5.305   7.941 -0.0869  0.0900  0.3381
23174SOL    HW270101   4.327   5.365   7.804  0.3076  0.1975  0.3143
23175SOL     OW70102   7.884   5.630   9.606 -0.1438  0.0697  0.0785
23175SOL    HW170103   7.966   5.676   9.622 -0.3123 -0.4662  3.0098
23175SOL    HW270104   7.910   5.545   9.570  0.8182 -0.8009  2.5938
23176SOL     OW70105   7.925   9.498   0.797 -0.3595 -0.0158 -0.5549
23176SOL    HW170106   7.907   9.542   0.880  1.6074  1.2606 -0.7490
23176SOL    HW270107   8.007   9.537   0.766 -0.1374 -1.6929 -2.2573
23177SOL     OW70108   4.797   7.147   8.212  0.1524  0.4891  0.0974
23177SOL    HW170109   4.866   7.182   8.157  1.5647 -0.1793  1.3674
23177SOL    HW270110   4.800   7.052   8.198 -0.7439  0.4791 -0.0941
23178SOL     OW70111   2.418   6.577   4.904  0.1654  0.4183  0.5098
23178SOL    HW170112   2.351   6.569   4.836  0.9105 -2.2924 -0.0581
23178SOL    HW270113   2.431   6.671   4.916 -1.7420  0.9735 -1.3198
23179SOL     OW70114   0.019   2.567   7.088 -0.1078  0.3310 -0.5197
23179SOL    HW170115   0.054   2.499   7.030 -0.0071 -0.6719  0.6732
23179SOL    HW270116   0.097   2.608   7.127 -0.1978  0.2463 -0.2493
23180SOL     OW70117   4.259   9.477   1.018 -0.3967 -0.0991 -0.2855
23180SOL    HW170118   4.170   9.511   1.027 -0.2035  0.7480 -1.4051
23180SOL    HW270119   4.252   9.385   1.045 -1.2756  0.3497  1.1323
23181SOL     OW70120   7.743   6.534   0.661  0.1622 -0.1921  0.0353
23181SOL    HW170121   7.664   6.494   0.699  0.1038 -1.8190 -1.6738
23181SOL    HW270122   7.797   6.460   0.635 -0.1653  0.7212 -3.7785
23182SOL     OW70123   3.709   1.784   8.997 -0.2953 -0.3926  0.1222
23182SOL    HW170124   3.761   1.704   8.993 -0.6583 -0.6605  0.7147
23182SOL    HW270125   3.705   1.814   8.906 -1.3878 -1.8350 -0.3528
23183SOL     OW70126   7.509   9.842   5.016 -0.2384 -0.5536 -0.0376
23183SOL    HW170127   7.580   9.836   4.953  1.0840 -0.0120  1.3574
23183SOL    HW270128   7.544   9.805   5.096 -1.9373 -1.3579  0.3849
23184SOL     OW70129   2.941   0.915   9.109 -0.3085  0.5746  0.4042
23184SOL    HW170130   2.995   0.916   9.029 -0.6924 -0.7096  0.1049
23184SOL    HW270131   2.851   0.922   9.076 -0.5219 -0.8167  0.6506
23185SOL     OW70132   3.281   1.290   4.362  0.0505  0.0736  0.0224
23185SOL    HW170133   3.248   1.355   4.424 -0.5821  0.9893 -1.2313
23185SOL    HW270134   3.228   1.212   4.379 -1.2543  0.8193 -0.4274
23186SOL     OW70135   6.455   4.328   1.500 -0.8517 -0.0436 -1.3768
23186SOL    HW170136   6.464   4.289   1.413 -1.4467 -2.2294 -0.5094
23186SOL    HW270137   6.480   4.258   1.560 -2.7810  0.6291  0.3064
23187SOL     OW70138   3.759   3.187   5.392 -0.2887 -0.5205  0.1730
23187SOL    HW170139   3.711   3.202   5.310 -2.9351  0.0653  1.6954
23187SOL    HW270140   3.778   3.094   5.392  1.4914 -0.2306 -1.9233
23188SOL     OW70141   3.048   8.727   4.572 -0.1681 -0.2333  0.3535
23188SOL    HW170142   3.001   8.749   4.653 -1.0929 -0.1164 -0.2079
23188SOL    HW270143   3.050   8.808   4.522 -1.0908 -0.6954 -0.4765
23189SOL     OW70144   2.805   3.627   2.134  0.1210  0.3048  0.5383
23189SOL    HW170145   2.899   3.640   2.146  0.6315 -1.5704 -0.8443
23189SOL    HW270146   2.775   3.706   2.089  1.2139  0.5541  0.2153
23190SOL     OW70147   8.533   3.904   7.198  0.7857  0.3269  0.4347
23190SOL    HW170148   8.481   3.910   7.118  1.5247 -0.1184 -0.0933
23190SOL    HW270149   8.544   3.995   7.226 -1.7548  0.3640  1.5668
23191SOL     OW70150   3.961   6.666   3.999  0.1819  0.4989  0.5009
23191SOL    HW170151   3.939   6.712   4.080 -0.7082  0.1456  0.4728
23191SOL    HW270152   4.048   6.699   3.976  0.7285  0.1530  1.9252
23192SOL     OW70153   2.379   6.457   8.645  0.0117 -0.3901 -0.8223
23192SOL    HW170154   2.299   6.468   8.593 -2.0600 -1.6037  1.8776
23192SOL    HW270155   2.401   6.364   8.636  1.4841  0.0051 -1.8847
23193SOL     OW70156   2.826   5.721   8.501  0.3759  0.2663 -0.5907
23193SOL    HW170157   2.762   5.763   8.443 -0.9471 -0.2718  0.4015
23193SOL    HW270158   2.794   5.630   8.508  0.8240  0.1803  0.5084
23194SOL     OW70159   5.820   1.035   0.393  0.1950  0.2913  0.1922
23194SOL    HW170160   5.726   1.046   0.379  0.2974  1.1009  0.0494
23194SOL    HW270161   5.853   1.125   0.399  1.0686  0.0294 -0.5386
23195SOL     OW70162   9.645   0.106   6.366 -0.0923 -0.1196 -0.7259
23195SOL    HW170163   9.618   0.197   6.357 -1.3977 -0.0002  2.7772
23195SOL    HW270164   9.572   0.055   6.330  0.1240  0.1945 -1.6227
23196SOL     OW70165   1.894   4.306   8.994  0.4787  0.0353  0.1296
23196SOL    HW170166   1.860   4.380   8.944  0.2132  0.1987  0.5521
23196SOL    HW270167   1.828   4.238   8.984  0.7370 -0.1652 -0.2844
23197SOL     OW70168   2.012   7.271   8.691  0.5580 -0.4162  0.0099
23197SOL    HW170169   2.009   7.360   8.655  1.3501 -0.0401  0.8398
23197SOL    HW270170   1.976   7.279   8.779  1.6386 -0.6996  0.4890
23198SOL     OW70171   4.825   3.487   4.764  0.5233 -0.7082  0.3032
23198SOL    HW170172   4.880   3.415   4.794  1.6980  0.3474  0.8283
23198SOL    HW270173   4.872   3.566   4.793 -1.0175  0.2553  0.3067
23199SOL     OW70174   6.514   1.024   7.790 -0.3433 -0.3110 -0.3843
23199SOL    HW170175   6.462   0.958   7.836 -0.7522  1.7324  2.3322
23199SOL    HW270176   6.605   0.999   7.808 -0.4872 -0.4066  0.2329
23200SOL     OW70177   1.920   9.819   0.978 -0.3638  0.5662  0.5626
23200SOL    HW170178   1.890   9.905   1.007 -2.9393 -0.1794  0.3524
23200SOL    HW270179   1.884   9.808   0.891 -1.1626 -1.2001  1.0656
23201SOL     OW70180   0.953   2.984   8.930  0.0168 -0.0331 -0.0984
23201SOL    HW170181   0.924   3.071   8.900 -0.6105 -0.3550 -0.4423
23201SOL    HW270182   0.875   2.945   8.969  0.5503 -0.0634  0.9593
23202SOL     OW70183   2.483   8.347   7.176  0.3836  0.3202  0.2216
23202SOL    HW170184   2.532   8.428   7.183  0.5224  0.1020  2.1666
23202SOL    HW270185   2.412   8.356   7.239 -0.7962 -0.2694 -0.9774
23203SOL     OW70186   4.638   8.278   1.595  0.2409  0.4503  0.0274
23203SOL    HW170187   4.592   8.221   1.657 -2.8420  0.3036 -2.1884
23203SOL    HW270188   4.634   8.365   1.634 -0.1405  0.0901  0.8078
23204SOL     OW70189   7.741   1.624   7.015  0.5070  0.2017 -0.3632
23204SOL    HW170190   7.686   1.696   7.046 -1.1029 -0.7259 -0.9340
23204SOL    HW270191   7.779   1.587   7.095 -0.1852  0.5053  0.1246
23205SOL     OW70192   1.849   6.879   1.704  0.3270 -0.4263  0.2881
23205SOL    HW170193   1.811   6.933   1.635 -0.5271 -0.8456  0.4218
23205SOL    HW270194   1.801   6.904   1.783  0.8611 -0.4099  0.6150
23206SOL     OW70195   5.238   9.279   0.387 -0.5283  0.1857  0.0435
23206SOL    HW170196   5.151   9.252   0.359  0.0447 -0.1068 -1.5007
23206SOL    HW270197   5.249   9.367   0.350 -1.1784  1.4080  2.4855
23207SOL     OW70198   7.395   7.207   5.530  0.0775 -0.1150 -0.1887
23207SOL    HW170199   7.302   7.215   5.508  0.1735 -0.0078 -0.5485
23207SOL    HW270200   7.397   7.143   5.601 -0.1691 -0.9442 -0.9097
23208SOL     OW70201   8.563   5.420   6.788 -0.6701 -0.1803  0.3808
23208SOL    HW170202   8.524   5.434   6.702  1.1622  0.7927 -0.3622
23208SOL    HW270203   8.490   5.395   6.845 -2.2649  1.2192 -0.9594
23209SOL     OW70204   8.611   5.860   1.653 -0.5200  0.0575 -0.0156
23209SOL    HW170205   8.596   5.767   1.674  3.2140 -1.1854 -1.9159
23209SOL    HW270206   8.605   5.864   1.558  1.9377  1.1290 -0.1902
23210SOL     OW70207   9.088   7.645   8.050  0.2740  0.3510  0.1374
23210SOL    HW170208   9.166   7.645   7.995  0.0344  0.7294 -0.2104
23210SOL    HW270209   9.103   7.575   8.114  0.0345 -0.8974 -1.1405
23211SOL     OW70210   2.781   9.365   6.288  0.3528  0.2079  0.3352
23211SOL    HW170211   2.834   9.318   6.223  1.4464 -0.4158  1.6221
23211SOL    HW270212   2.735   9.432   6.238  1.5253  0.0533 -1.0071
23212SOL     OW70213   5.279   5.761   7.102 -0.4899 -0.5468 -0.1553
23212SOL    HW170214   5.238   5.737   7.185 -0.1868  0.1285  0.1931
23212SOL    HW270215   5.213   5.738   7.036 -1.1020 -0.2532  0.3338
23213SOL     OW70216   2.205   5.634   0.552  0.0351 -0.1074  0.3477
23213SOL    HW170217   2.205   5.728   0.537 -2.1870 -0.1881 -0.4690
23213SOL    HW270218   2.227   5.596   0.467 -0.1893 -0.3482  0.3956
23214SOL     OW70219   7.168   1.866   8.310  0.3012  0.4577 -0.8621
23214SOL    HW170220   7.074   1.850   8.307  0.1417  0.3505  2.0444
23214SOL    HW270221   7.177   1.960   8.321  0.4900  0.3692 -0.2346
23215SOL     OW70222   7.849   8.179   3.483  0.1717 -0.2120 -0.4054
23215SOL    HW170223   7.872   8.153   3.572  0.3375  0.8109 -0.1451
23215SOL    HW270224   7.931   8.172   3.434 -0.0527 -1.3929 -0.6408
23216SOL     OW70225   6.059   4.237   2.370 -1.0418  0.3101  0.2527
23216SOL    HW170226   6.066   4.241   2.466 -1.1653  1.3037  0.2320
23216SOL    HW270227   6.147   4.257   2.339 -1.0239  0.0805  0.1547
23217SOL     OW70228   7.071   6.025   2.303 -0.3909 -0.2968  0.1326
23217SOL    HW170229   7.106   6.080   2.232 -0.8020  0.1006  0.2356
23217SOL    HW270230   6.978   6.045   2.306 -0.3188 -0.0457  1.0198
23218SOL     OW70231   2.249   4.573   2.154 -0.5218 -0.0855  0.6001
23218SOL    HW170232   2.276   4.643   2.095  0.5932 -0.7327  0.3005
23218SOL    HW270233   2.298   4.588   2.234 -2.4404  1.1083  1.6312
23219SOL     OW70234   7.600   5.549   8.983  0.6440  0.5783 -0.5839
23219SOL    HW170235   7.636   5.626   9.027 -0.2093  1.1845 -0.9300
23219SOL    HW270236   7.622   5.562   8.891  1.4496 -0.1361 -0.4976
23220SOL     OW70237   3.088   6.238   0.933 -0.4214 -0.2507  0.4221
23220SOL    HW170238   3.076   6.283   0.850 -1.1144 -2.3403 -0.6838
23220SOL    HW270239   3.173   6.196   0.926 -0.8287 -1.1058  0.3956
23221SOL     OW70240   5.958   4.568   4.184  0.3030 -0.2009  0.7651
23221SOL    HW170241   6.003   4.486   4.165  0.1271 -0.2400  0.5107
23221SOL    HW270242   6.021   4.618   4.235  1.3793  0.5236 -1.1545
23222SOL     OW70243   7.385   0.602   5.962 -0.4261 -0.0399  0.0725
23222SOL    HW170244   7.341   0.687   5.968 -1.6205 -0.7087  1.5086
23222SOL    HW270245   7.467   0.613   6.011  0.5459  0.9030 -1.6916
23223SOL     OW70246   1.496   9.222   6.633 -0.6657 -0.7430 -0.2002
23223SOL    HW170247   1.461   9.143   6.591  1.1139 -0.3013 -2.8249
23223SOL    HW270248   1.591   9.209   6.632 -0.1565  2.0624 -2.3972
23224SOL     OW70249   4.448   7.432   5.101  0.4015  0.2013 -0.1582
23224SOL    HW170250   4.422   7.509   5.151  1.1793 -1.0439  2.3106
23224SOL    HW270251   4.542   7.423   5.118  0.9217  0.1848 -2.6007
23225SOL     OW70252   9.763   6.589   0.215  0.2055 -0.2140  0.0403
23225SOL    HW170253   9.833   6.611   0.153  1.2073  0.4772  1.3776
23225SOL    HW270254   9.686   6.632   0.179  0.9114  0.7392 -0.3861
23226SOL     OW70255   0.158   4.052   5.745 -0.1804  0.1094 -0.0780
23226SOL    HW170256   0.248   4.022   5.751 -1.3001 -3.5199  1.5078
23226SOL    HW270257   0.145   4.104   5.824  0.1487 -0.7071  0.5329
23227SOL     OW70258   0.433   4.870   2.117  0.3971  0.8549 -0.5543
23227SOL    HW170259   0.350   4.908   2.091 -1.1612  0.1230  2.8723
23227SOL    HW270260   0.478   4.940   2.164 -0.7343 -0.2271  2.2891
23228SOL     OW70261   8.193   5.254   7.868 -0.0662  0.2651  0.1855
23228SOL    HW170262   8.263   5.296   7.919  0.4551  1.4321 -1.4016
23228SOL    HW270263   8.148   5.326   7.825 -1.7184 -0.5522  0.4893
23229SOL     OW70264   0.307   2.288   5.690  0.1340 -0.2809 -0.0985
23229SOL    HW170265   0.302   2.205   5.642  1.6570  0.0081 -0.7918
23229SOL    HW270266   0.302   2.262   5.783 -1.2636 -0.9630 -0.3268
23230SOL     OW70267   2.631   5.580   4.982 -0.2849 -0.2236 -0.1467
23230SOL    HW170268   2.639   5.580   5.078 -1.4650  0.1257 -0.0384
23230SOL    HW270269   2.596   5.667   4.961 -0.2153 -0.3716 -0.8912
23231SOL     OW70270   1.147   2.375   7.486 -0.2425  0.0138  0.0009
23231SOL    HW170271   1.221   2.321   7.457 -0.3122  0.6184 -1.3694
23231SOL    HW270272   1.072   2.317   7.479  0.0376 -0.5024  1.0789
23232SOL     OW70273   3.276   0.210   7.687  0.1819 -0.1538  0.0242
23232SOL    HW170274   3.337   0.278   7.716  1.0948  0.0022 -2.0306
23232SOL    HW270275   3.291   0.205   7.592 -2.2452 -0.9070 -0.3671
23233SOL     OW70276   5.227   1.099   7.462  0.2238  0.6105  0.0745
23233SOL    HW170277   5.144   1.079   7.418 -0.3566 -0.5189  1.6033
23233SOL    HW270278   5.217   1.189   7.492 -0.7100  0.2779  0.7866
23234SOL     OW70279   8.727   8.383   6.141 -0.0584  0.2202  0.2900
23234SOL    HW170280   8.688   8.459   6.098  0.3369  0.4311  0.2981
23234SOL    HW270281   8.683   8.308   6.101 -0.8108  0.4649  0.6486
23235SOL     OW70282   2.302   9.105   9.805 -0.0077  0.0303 -0.1173
23235SOL    HW170283   2.250   9.184   9.796 -1.6324 -0.8693  0.8721
23235SOL    HW270284   2.313   9.093   9.900  2.7669  0.6124 -0.2612
23236SOL     OW70285   7.813   6.384   0.289 -0.0942 -1.1695 -0.1267
23236SOL    HW170286   7.723   6.407   0.267  0.4014  0.5846 -0.4781
23236SOL    HW270287   7.805   6.330   0.368 -1.4033  0.0163  0.6014
23237SOL     OW70288   7.866   6.382   9.005 -0.0732  0.0999  0.0780
23237SOL    HW170289   7.783   6.343   8.977  0.2152 -0.1679 -0.4159
23237SOL    HW270290   7.842   6.440   9.077 -0.6283 -0.3317  0.2501
23238SOL     OW70291   8.585   8.817   6.962 -0.6290 -0.0643  0.2276
23238SOL    HW170292   8.635   8.840   6.884 -0.0017  0.5158  0.7980
23238SOL    HW270293   8.649   8.779   7.022 -1.3374 -1.7848 -0.0431
23239SOL     OW70294   9.618   1.643   7.027 -0.2735 -0.0657  0.4582
23239SOL    HW170295   9.614   1.627   7.121  0.9935 -1.1006  0.3613
23239SOL    HW270296   9.702   1.686   7.012 -0.8662  0.9366 -0.1081
23240SOL     OW70297   2.647   0.647   1.102  0.4296 -0.1779 -0.0760
23240SOL    HW170298   2.668   0.596   1.023  1.9179 -1.2083  0.9453
23240SOL    HW270299   2.686   0.598   1.174 -0.0755  1.2428  1.2241
23241SOL     OW70300   5.159   2.253   7.942 -0.1273  0.3272 -0.0011
23241SOL    HW170301   5.071   2.237   7.907 -0.6349 -1.2618  1.8016
23241SOL    HW270302   5.212   2.274   7.865 -1.6644 -0.5908 -1.3879
23242SOL     OW70303   2.121   5.673   0.924 -0.1674 -0.1639  0.2171
23242SOL    HW170304   2.121   5.593   0.976  1.3350 -1.6499 -1.8785
23242SOL    HW270305   2.040   5.668   0.873  0.8672 -1.5080 -1.4141
23243SOL     OW70306   1.621   3.217   1.599  0.3073  0.2100  0.2614
23243SOL    HW170307   1.594   3.288   1.657 -1.4136 -0.3609  0.2107
23243SOL    HW270308   1.569   3.230   1.519 -0.0242 -1.0682  0.2390
23244SOL     OW70309   2.432   9.644   3.023 -0.1295 -0.1681 -0.4377
23244SOL    HW170310   2.472   9.675   2.942 -1.0579  1.0699 -0.4487
23244SOL    HW270311   2.393   9.722   3.062 -0.0667 -0.8192  1.0013
23245SOL     OW70312   7.786   8.194   9.517 -0.2547  0.3216  0.3969
23245SOL    HW170313   7.727   8.255   9.472  0.8095 -1.4751 -3.9395
23245SOL    HW270314   7.862   8.248   9.540 -1.8327  1.8197  2.5251
23246SOL     OW70315   6.871   9.963   8.882  0.1980  0.3281 -0.0490
23246SOL    HW170316   6.927   9.889   8.904 -1.3075 -1.0334 -0.5669
23246SOL    HW270317   6.855  10.007   8.965  0.6482 -0.2892  0.3761
23247SOL     OW70318   5.012   3.644   4.426 -0.1762  0.5801 -0.6297
23247SOL    HW170319   4.975   3.556   4.435 -1.3294  0.9262 -1.7690
23247SOL    HW270320   5.062   3.657   4.507 -0.6418 -0.8079 -0.0889
23248SOL     OW70321   7.662   4.436   5.201  0.4145 -0.3072 -0.0175
23248SOL    HW170322   7.740   4.448   5.256 -0.8510 -2.1174  2.3423
23248SOL    HW270323   7.588   4.447   5.261 -1.0701 -1.4053 -1.5531
23249SOL     OW70324   3.724   0.672   1.350  0.3533 -0.1979 -0.2596
23249SOL    HW170325   3.773   0.600   1.390  2.6705  1.0891 -0.5808
23249SOL    HW270326   3.733   0.744   1.413  2.1589  1.1890 -1.9820
23250SOL     OW70327   5.701   1.876   5.060 -0.3727 -0.8864  0.2885
23250SOL    HW170328   5.634   1.820   5.099 -0.9645 -0.8070 -0.5931
23250SOL    HW270329   5.771   1.815   5.035  0.2648 -0.8890  1.8942
23251SOL     OW70330   7.826   5.283   2.311  0.5638  0.0369 -0.1578
23251SOL    HW170331   7.795   5.305   2.399  1.4774 -1.2097  0.5088
23251SOL    HW270332   7.755   5.231   2.274 -0.0080  0.9223 -0.3410
23252SOL     OW70333   7.637   5.296   4.795 -0.1169 -1.1563  0.3243
23252SOL    HW170334   7.611   5.244   4.719  0.7396 -0.6980 -0.3100
23252SOL    HW270335   7.601   5.383   4.776  0.1717 -1.0209  0.4014
23253SOL     OW70336   5.633   0.994   1.403  0.4640 -0.1018 -0.8935
23253SOL    HW170337   5.645   0.948   1.319 -0.0436 -0.9645 -0.5116
23253SOL    HW270338   5.626   0.923   1.467  0.7620  0.5540 -0.1287
23254SOL     OW70339   9.199   0.067   4.108  0.3195 -0.0082 -0.0816
23254SOL    HW170340   9.241   0.146   4.075 -1.7996  0.6829 -1.3081
23254SOL    HW270341   9.123   0.054   4.050 -1.1543 -1.1691  1.9904
23255SOL     OW70342   1.528   0.478   5.032 -0.0820  0.0267 -0.0389
23255SOL    HW170343   1.615   0.468   4.995  0.2802 -0.4321  0.9027
23255SOL    HW270344   1.543   0.513   5.120 -0.8264 -0.3372  0.2449
23256SOL     OW70345   2.586   3.528   2.252  0.0074  0.1921 -0.8131
23256SOL    HW170346   2.615   3.459   2.312  0.5900 -0.6318 -2.0007
23256SOL    HW270347   2.665   3.580   2.235 -0.3229  0.8750 -0.2978
23257SOL     OW70348   8.018   3.081   0.762 -0.0500 -0.5277 -0.2394
23257SOL    HW170349   8.050   2.996   0.792  0.1435 -0.2990  0.1971
23257SOL    HW270350   8.000   3.130   0.842 -0.1994 -0.1685 -0.4916
23258SOL     OW70351   3.798   1.291   3.405 -0.3625 -0.1148 -0.0089
23258SOL    HW170352   3.868   1.243   3.362 -1.5111 -1.0729 -0.8746
23258SOL    HW270353   3.807   1.381   3.373  0.2432 -0.3054 -0.3870
23259SOL     OW70354   7.994   4.829   2.873  0.3615  0.3511 -1.0687
23259SOL    HW170355   7.964   4.920   2.875 -0.3976  0.1073 -0.8602
23259SOL    HW270356   7.930   4.782   2.928  0.1873 -0.4660 -1.9514
23260SOL     OW70357   0.230   1.227   9.169 -0.3673 -0.2092 -1.0197
23260SOL    HW170358   0.247   1.154   9.110 -1.7660 -0.5224 -1.0513
23260SOL    HW270359   0.284   1.208   9.246  0.8795 -0.1818 -1.8473
23261SOL     OW70360   9.435   4.545   8.428 -0.1293  0.5787 -0.0872
23261SOL    HW170361   9.361   4.570   8.483 -2.1938 -1.9797 -1.4886
23261SOL    HW270362   9.418   4.588   8.344  1.0826  1.5143  0.0999
23262SOL     OW70363   5.214   9.030   1.653 -0.1755  0.1077  0.1737
23262SOL    HW170364   5.212   8.999   1.562 -4.1211 -2.0270  0.7778
23262SOL    HW270365   5.255   8.959   1.702 -0.7312 -0.0567  0.4070
23263SOL     OW70366   8.993   0.098   0.012  0.4042 -0.0789  0.0617
23263SOL    HW170367   8.970   0.062   0.098 -0.7598 -0.2438 -0.2999
23263SOL    HW270368   8.911   0.132  -0.022  0.1074 -2.8630 -2.3714
23264SOL     OW70369   6.904   7.701   0.960 -0.2387 -0.1288  0.1233
23264SOL    HW170370   6.900   7.655   1.043  0.5558 -0.0171  0.2288
23264SOL    HW270371   6.824   7.754   0.958  1.3733  2.6764  2.4739
23265SOL     OW70372   9.028   1.527   3.765 -0.2973 -0.1836 -0.2368
23265SOL    HW170373   9.032   1.511   3.671 -2.5406  1.4004 -0.6861
23265SOL    HW270374   9.030   1.440   3.804  0.3104 -0.8844 -1.7465
23266SOL     OW70375   9.095   2.411   9.544  0.1509 -0.2619 -0.3263
23266SOL    HW170376   9.176   2.360   9.553  0.4286  0.4276  1.5195
23266SOL    HW270377   9.027   2.345   9.531  0.7711 -0.9765 -0.0108
23267SOL     OW70378   5.420   7.681   6.680  0.1583  0.2927 -0.2043
23267SOL    HW170379   5.484   7.714   6.743  0.6330 -0.8374 -0.0779
23267SOL    HW270380   5.336   7.688   6.726  0.4145  0.1147  0.3042
23268SOL     OW70381   7.426   8.454   5.808 -0.0758  0.6226  0.0878
23268SOL    HW170382   7.379   8.537   5.796  0.4005  1.0400  1.0585
23268SOL    HW270383   7.471   8.463   5.891  0.8524 -0.2079 -0.3058
23269SOL     OW70384   0.571   5.857   4.824  0.3098  0.1021  0.0398
23269SOL    HW170385   0.532   5.939   4.793 -0.8147 -0.7317 -0.8657
23269SOL    HW270386   0.665   5.873   4.821  0.1369  1.1277 -0.8230
23270SOL     OW70387   7.036   2.695   9.006  0.4736  0.4625  0.1975
23270SOL    HW170388   7.122   2.664   9.036  1.6996  2.9416 -0.5112
23270SOL    HW270389   7.037   2.789   9.025 -2.6837  0.3418  1.4537
23271SOL     OW70390   8.256   3.799   0.361  0.8972 -0.4765  0.8462
23271SOL    HW170391   8.217   3.839   0.440 -0.1186  1.1299 -0.4045
23271SOL    HW270392   8.187   3.804   0.295  2.4106  0.1740 -0.7654
23272SOL     OW70393   8.054   6.178   0.446 -1.1092 -0.1451  0.6120
23272SOL    HW170394   8.102   6.097   0.465  1.1792  0.8086 -0.7359
23272SOL    HW270395   8.103   6.218   0.374 -3.3566  1.4655 -0.1245
23273SOL     OW70396   9.017   4.317   4.397  0.4353 -0.0691  0.4764
23273SOL    HW170397   8.947   4.261   4.431  2.1154 -0.4937  3.5124
23273SOL    HW270398   8.979   4.356   4.318 -1.6567 -3.5792 -0.4805
23274SOL     OW70399   3.339   4.983   8.986  0.0959  0.0001  0.1056
23274SOL    HW170400   3.296   5.056   9.029  2.2025  2.7131 -1.9800
23274SOL    HW270401   3.277   4.955   8.918 -0.1554  0.9287 -0.0624
23275SOL     OW70402   4.398   9.821   4.649  0.6009 -0.3002 -0.1222
23275SOL    HW170403   4.476   9.804   4.702  0.5615 -0.8397 -0.2298
23275SOL    HW270404   4.419   9.784   4.563 -0.1592 -1.3875  0.1384
23276SOL     OW70405   1.602   9.570   4.246 -0.2857 -0.0132 -0.4079
23276SOL    HW170406   1.525   9.569   4.190 -0.1323 -0.5721 -0.6122
23276SOL    HW270407   1.644   9.485   4.231 -0.1626 -0.1100  0.4416
23277SOL     OW70408   1.990   5.973   7.074  0.0816 -0.3257  0.4716
23277SOL    HW170409   2.043   5.939   7.145 -0.2121 -3.7161 -0.7842
23277SOL    HW270410   1.901   5.976   7.109 -0.2273 -2.9009  0.1062
23278SOL     OW70411   3.247   4.808   5.888  1.2398 -0.6154  0.7667
23278SOL    HW170412   3.233   4.879   5.951 -0.9900 -0.4777  0.2002
23278SOL    HW270413   3.181   4.743   5.911  1.0529 -1.0061 -0.7757
23279SOL     OW70414   5.020   0.156   2.013 -0.0523  0.1164  0.3751
23279SOL    HW170415   5.011   0.204   1.930  0.7601 -3.0991 -1.7758
23279SOL    HW270416   5.110   0.170   2.040  0.4195 -0.7875 -0.6772
23280SOL     OW70417   1.958   3.863   6.830  0.3760 -0.6029  0.3034
23280SOL    HW170418   1.989   3.833   6.744  0.9234 -1.6578  0.8362
23280SOL    HW270419   2.034   3.907   6.868 -0.5079  1.8187 -0.5813
23281SOL     OW70420   3.106   4.962   2.844  0.1563 -0.2566  0.0208
23281SOL    HW170421   3.144   4.993   2.926  0.2540 -3.2029  1.2307
23281SOL    HW270422   3.020   4.926   2.869  0.3290 -1.5241 -1.0504
23282SOL     OW70423   9.307   9.215   7.928 -0.0601  0.5723 -0.3626
23282SOL    HW170424   9.266   9.291   7.886 -2.1432  0.2211  0.8989
23282SOL    HW270425   9.266   9.139   7.886 -0.4577  0.2071  0.6383
23283SOL     OW70426   8.864   2.507   5.562 -0.0005 -0.0287  0.2771
23283SOL    HW170427   8.900   2.443   5.501  1.2769 -0.9613  1.9508
23283SOL    HW270428   8.879   2.592   5.519  2.0849 -0.5575 -0.1129
23284SOL     OW70429   6.203   6.477   7.052 -0.4743 -0.0368  0.3756
23284SOL    HW170430   6.257   6.462   6.974 -0.2644 -1.0105  0.6980
23284SOL    HW270431   6.227   6.406   7.112 -3.3538 -1.5683 -0.1224
23285SOL     OW70432   8.832   5.302   3.033 -0.5038 -0.1746 -0.1274
23285SOL    HW170433   8.771   5.374   3.015 -3.4009 -2.5817 -0.8249
23285SOL    HW270434   8.882   5.293   2.952  0.0986  1.1959  0.0718
23286SOL     OW70435   0.467   9.723   3.272 -0.4055  0.4518  0.2715
23286SOL    HW170436   0.540   9.780   3.247  2.1593 -3.4078 -2.0260
23286SOL    HW270437   0.400   9.739   3.205  0.5733  0.2946 -0.7706
23287SOL     OW70438   6.059   9.379   6.775  0.0956  0.3273  0.3575
23287SOL    HW170439   5.964   9.382   6.770  0.1679  0.7556 -1.0508
23287SOL    HW270440   6.086   9.471   6.785  0.3734  0.2053  0.8068
23288SOL     OW70441   1.217   9.466   0.379 -0.4869 -0.3865 -0.6894
23288SOL    HW170442   1.287   9.423   0.428 -2.0495 -3.0656 -0.5852
23288SOL    HW270443   1.262   9.524   0.318  1.7502 -1.1094  0.1778
23289SOL     OW70444   7.445   6.601   5.251 -0.1050  0.6456  0.1961
23289SOL    HW170445   7.379   6.623   5.317 -0.0512 -0.5105  0.6595
23289SOL    HW270446   7.520   6.656   5.273  0.5692 -0.9535  2.2388
23290SOL     OW70447   1.870   6.500   3.127 -0.0431 -0.1964  0.0400
23290SOL    HW170448   1.816   6.476   3.202  0.7687 -0.6782  0.4830
23290SOL    HW270449   1.883   6.417   3.080  0.7819 -0.1930  0.2550
23291SOL     OW70450   8.278   7.336   4.217 -0.5058 -0.1711 -0.9366
23291SOL    HW170451   8.233   7.419   4.203 -2.7611 -1.1668 -0.0797
23291SOL    HW270452   8.331   7.349   4.295  0.2442  0.8373 -1.5930
23292SOL     OW70453   7.347   2.203   5.324 -0.4894 -0.3657  0.0698
23292SOL    HW170454   7.262   2.246   5.332  0.0868  0.7858  0.2389
23292SOL    HW270455   7.326   2.110   5.315 -1.7609 -0.1012  0.0826
23293SOL     OW70456   9.199   4.583   2.050 -0.1366  0.1777 -0.2611
23293SOL    HW170457   9.196   4.650   1.982  2.1249 -0.5555 -1.1702
23293SOL    HW270458   9.278   4.532   2.030 -2.3932 -3.6294 -0.4311
23294SOL     OW70459   7.031   2.820   4.993  0.8072 -0.1713  0.2104
23294SOL    HW170460   7.061   2.846   5.080  0.9988 -0.0776  0.1196
23294SOL    HW270461   7.103   2.847   4.935  1.3403 -1.5683  0.1926
23295SOL     OW70462   4.257   4.008   1.749 -0.0785 -0.6876 -0.1146
23295SOL    HW170463   4.238   3.988   1.657  0.8090 -1.6804 -0.1042
23295SOL    HW270464   4.352   4.011   1.754 -0.1204 -0.4968  0.7433
23296SOL     OW70465   9.469   3.065   6.570  0.1268 -0.2976 -0.1933
23296SOL    HW170466   9.478   2.977   6.532 -0.4867 -0.1517 -0.6926
23296SOL    HW270467   9.554   3.082   6.610  0.8521 -0.4273 -1.5993
23297SOL     OW70468   0.745   2.006   2.966  0.5467 -0.0999  0.1177
23297SOL    HW170469   0.731   2.009   2.871  1.9974 -2.6409 -0.2564
23297SOL    HW270470   0.837   2.027   2.977  0.6696 -0.9760  0.8422
23298SOL     OW70471   2.173   7.948   7.229  0.4148  0.2478 -0.2930
23298SOL    HW170472   2.179   7.924   7.321  0.5267  0.0024 -0.3649
23298SOL    HW270473   2.087   7.918   7.202  0.6809 -0.3747 -0.4686
23299SOL     OW70474   8.312   6.885   6.035  0.2342  0.5641 -0.0523
23299SOL    HW170475   8.380   6.914   5.973 -0.8921 -0.0698 -1.6718
23299SOL    HW270476   8.259   6.823   5.984 -0.3310 -0.5421  1.8121
23300SOL     OW70477   6.851   2.339   0.266  0.3507 -0.8087 -0.1389
23300SOL    HW170478   6.850   2.420   0.317 -0.2095 -2.2612  2.3514
23300SOL    HW270479   6.761   2.307   0.271  0.1956 -0.8642 -2.4060
23301SOL     OW70480   8.232   6.746   5.520 -0.8689  0.0210  0.2060
23301SOL    HW170481   8.237   6.828   5.569  0.2478 -0.8659  1.6539
23301SOL    HW270482   8.273   6.681   5.577  0.6782 -1.0375 -1.9670
23302SOL     OW70483   8.301   8.800   3.710  0.7974  0.7090  0.0450
23302SOL    HW170484   8.213   8.838   3.707 -0.0351 -1.1293 -1.6205
23302SOL    HW270485   8.359   8.871   3.685 -0.4503  1.4537 -0.8558
23303SOL     OW70486   7.427   6.556   6.391 -0.2469  0.1005  0.0303
23303SOL    HW170487   7.364   6.540   6.462 -0.4564  0.7509 -0.0047
23303SOL    HW270488   7.390   6.509   6.316  1.0332 -2.3781  0.8400
23304SOL     OW70489   9.985   0.592   1.935  0.4242 -0.1642  0.1761
23304SOL    HW170490   9.892   0.597   1.913  0.2560 -0.3195  0.8372
23304SOL    HW270491   9.992   0.640   2.017  1.4137  2.3707 -1.2708
23305SOL     OW70492   6.628   8.248   4.123 -0.1257 -0.0431 -0.5865
23305SOL    HW170493   6.563   8.201   4.174  1.0273 -1.7195 -0.5908
23305SOL    HW270494   6.607   8.228   4.032 -1.3113  1.7831 -0.7671
23306SOL     OW70495   0.763   9.183   7.828  0.4578  0.0856  0.0729
23306SOL    HW170496   0.816   9.237   7.886 -1.0247  0.2012  1.3941
23306SOL    HW270497   0.785   9.213   7.740  1.3777  1.2314  0.6702
23307SOL     OW70498   0.603   7.042   4.346 -0.6244  0.0088  0.2358
23307SOL    HW170499   0.517   7.067   4.313 -0.5048  1.3527  0.8806
23307SOL    HW270500   0.619   7.100   4.420  1.8167  1.4339 -1.2625
23308SOL     OW70501   2.462   7.518   2.034  0.4370  0.1951  0.2769
23308SOL    HW170502   2.430   7.559   1.954 -0.4052 -0.0806  0.4548
23308SOL    HW270503   2.552   7.492   2.014  0.7421  1.4549 -0.0766
23309SOL     OW70504   5.849   7.124   3.116  0.2743  0.0147  0.0254
23309SOL    HW170505   5.839   7.053   3.179  0.0724 -1.5487 -1.6910
23309SOL    HW270506   5.830   7.084   3.031  1.7908  1.7059 -1.2025
23310SOL     OW70507   0.292   8.891   4.371  0.0610 -0.3740  0.0501
23310SOL    HW170508   0.237   8.818   4.398  0.6179 -1.2589 -1.1410
23310SOL    HW270509   0.382   8.860   4.383  0.3429  0.8117  1.3298
23311SOL     OW70510   6.044   9.214   1.418 -0.4652 -0.3410  0.5092
23311SOL    HW170511   5.957   9.223   1.456 -0.8432 -1.3520 -0.0628
23311SOL    HW270512   6.064   9.301   1.384 -1.1647 -0.0431  0.8291
23312SOL     OW70513   9.625   2.400   6.499 -0.1312 -0.0895  0.0656
23312SOL    HW170514   9.693   2.407   6.567 -0.2863 -1.9388  0.4817
23312SOL    HW270515   9.611   2.306   6.490 -1.4907  0.2013 -1.1877
23313SOL     OW70516   6.467   8.720   1.641 -0.1062  0.0982 -0.1294
23313SOL    HW170517   6.432   8.777   1.709  0.5436 -0.7450  0.9451
23313SOL    HW270518   6.548   8.762   1.613 -0.6259  0.7090 -0.7820
23314SOL     OW70519   5.291   3.813   7.012  0.5581 -0.1214 -0.3644
23314SOL    HW170520   5.359   3.767   7.062  0.3954  0.6447  0.5765
23314SOL    HW270521   5.247   3.743   6.963  1.2406 -0.7821 -0.0649
23315SOL     OW70522   5.909   0.889   4.999  0.3819 -0.6706  0.3716
23315SOL    HW170523   5.928   0.843   4.917  0.0026 -0.1420 -0.0159
23315SOL    HW270524   5.829   0.848   5.031  1.1370 -1.6569  1.0770
23316SOL     OW70525   3.251   6.891   5.567  0.2846 -0.2229 -0.1061
23316SOL    HW170526   3.308   6.903   5.643 -0.8353 -0.3693  0.7742
23316SOL    HW270527   3.164   6.879   5.604  0.0151 -2.3567 -1.3114
23317SOL     OW70528   3.133   9.543   0.138  0.2654 -0.1188  0.1808
23317SOL    HW170529   3.088   9.627   0.146 -1.1974 -0.6992 -1.4450
23317SOL    HW270530   3.137   9.526   0.044  2.1577 -1.0460  0.3748
23318SOL     OW70531   3.247   6.587   9.614 -0.2948  0.4122  0.1138
23318SOL    HW170532   3.224   6.542   9.695  0.2355 -1.3020 -0.6283
23318SOL    HW270533   3.328   6.634   9.634 -0.2878  0.1773  0.6429
23319SOL     OW70534   8.956   9.482   9.044 -0.5638 -0.5984 -0.0633
23319SOL    HW170535   8.865   9.451   9.047  0.0087 -2.2891  0.7779
23319SOL    HW270536   8.969   9.508   8.953 -2.2114  0.7352  0.0352
23320SOL     OW70537   6.510   9.597   8.013 -0.0168  0.1363 -0.1898
23320SOL    HW170538   6.451   9.605   8.088 -1.8149 -0.4341 -1.4497
23320SOL    HW270539   6.454   9.560   7.944  1.8296 -0.3339 -1.4940
23321SOL     OW70540   5.319   9.871   1.955  0.1911  0.0048  0.1510
23321SOL    HW170541   5.399   9.839   1.997 -1.1833 -2.0589  1.4515
23321SOL    HW270542   5.255   9.874   2.027 -1.9730 -2.5948 -1.4816
23322SOL     OW70543  -0.000   3.753   9.458  0.3680  0.5219 -0.5014
23322SOL    HW170544  -0.008   3.761   9.553  0.2663 -1.1295 -0.3311
23322SOL    HW270545   0.010   3.659   9.443  0.1872  0.7316 -2.1429
23323SOL     OW70546   3.831   3.259   9.782  0.0949  0.5490 -0.3371
23323SOL    HW170547   3.771   3.320   9.739 -0.7401  0.5093  0.7211
23323SOL    HW270548   3.790   3.173   9.770  1.1972  0.1866 -1.7038
23324SOL     OW70549   4.232   3.195   8.265  0.6436 -0.0577 -0.0056
23324SOL    HW170550   4.321   3.165   8.286  1.1967  0.8045 -1.0068
23324SOL    HW270551   4.242   3.242   8.182 -0.5535  1.0466  0.4459
23325SOL     OW70552   1.745   1.201   9.986  0.0806  0.1378 -0.0040
23325SOL    HW170553   1.770   1.128   9.929 -0.6486  0.5743 -0.9233
23325SOL    HW270554   1.768   1.279   9.935  2.3523  0.6233  1.6094
23326SOL     OW70555   6.579   4.155   5.718 -0.2295 -0.0601  0.7950
23326SOL    HW170556   6.667   4.192   5.730 -0.8310  0.9279  2.5876
23326SOL    HW270557   6.550   4.191   5.634  1.2212 -0.8047 -0.0845
23327SOL     OW70558   3.697   4.001   3.751  0.1278 -0.2527 -0.2081
23327SOL    HW170559   3.643   3.922   3.759  1.0890 -1.1884 -2.3038
23327SOL    HW270560   3.703   4.017   3.657  3.3256 -0.1058 -0.0953
23328SOL     OW70561   5.825   9.448   7.289 -0.0894 -0.0340  0.0969
23328SOL    HW170562   5.875   9.529   7.279  1.0268 -0.6103  0.7785
23328SOL    HW270563   5.847   9.396   7.212  1.2986 -0.7463  0.9352
23329SOL     OW70564   8.342   1.495   9.684 -0.0655  0.0945  0.4529
23329SOL    HW170565   8.401   1.433   9.727  0.2822  0.8130  1.0229
23329SOL    HW270566   8.267   1.441   9.656  0.5599 -0.7075  0.2862
23330SOL     OW70567   9.354   3.236   7.997  0.4131  0.8364  0.5053
23330SOL    HW170568   9.333   3.324   8.030 -2.0828  0.3447  0.4275
23330SOL    HW270569   9.289   3.179   8.038  0.3207 -0.5680 -1.4521
23331SOL     OW70570   0.622   4.793   2.385  0.1821 -0.3692 -0.0490
23331SOL    HW170571   0.619   4.697   2.393  1.2281 -0.3772  0.4970
23331SOL    HW270572   0.680   4.821   2.456 -0.9841  0.7751  0.4883
23332SOL     OW70573   2.546   8.701   8.951 -0.0138 -0.2067 -0.0480
23332SOL    HW170574   2.609   8.766   8.918  0.0315 -0.4987 -0.5433
23332SOL    HW270575   2.573   8.686   9.042 -0.7008  1.2898  0.4366
23333SOL     OW70576   6.661   6.845   8.941  0.2981 -0.1677 -0.1413
23333SOL    HW170577   6.751   6.844   8.908  0.8172  1.0653  1.1336
23333SOL    HW270578   6.670   6.857   9.035 -1.1721 -2.5920  0.3951
23334SOL     OW70579   1.890   3.373   0.119  0.6678  0.5803  0.2997
23334SOL    HW170580   1.912   3.374   0.212  0.0985  0.8420  0.4385
23334SOL    HW270581   1.964   3.329   0.077 -0.0475 -1.5282  1.1248
23335SOL     OW70582   2.187   0.337   8.221 -0.2051  0.8221  0.2813
23335SOL    HW170583   2.228   0.256   8.251 -0.8394  0.5850  0.5116
23335SOL    HW270584   2.194   0.332   8.125 -0.8299  0.1843  0.2621
23336SOL     OW70585   4.655   0.422   4.384 -0.1264  1.1885 -0.0331
23336SOL    HW170586   4.650   0.410   4.289  2.5359 -1.5516  0.0378
23336SOL    HW270587   4.597   0.354   4.420  1.1680  0.2160  0.2764
23337SOL     OW70588   2.797   1.765   8.291 -0.5005  0.0670 -0.5983
23337SOL    HW170589   2.882   1.803   8.273  0.5732 -1.6567  0.4849
23337SOL    HW270590   2.795   1.683   8.241 -1.2500 -0.2141 -0.1480
23338SOL     OW70591   1.837   9.055   6.714  0.0549  0.3676  0.3123
23338SOL    HW170592   1.895   9.064   6.790 -0.4750  2.1173  0.5493
23338SOL    HW270593   1.820   9.145   6.686  1.3980 -0.2226 -2.8193
23339SOL     OW70594   7.759   5.243   8.185  0.2519  0.0625 -0.4939
23339SOL    HW170595   7.667   5.236   8.161  0.4340  0.3195 -1.3126
23339SOL    HW270596   7.778   5.163   8.234 -0.5530  0.2907  0.2208
23340SOL     OW70597   4.615   7.674   5.256  0.1704 -0.2066 -0.3489
23340SOL    HW170598   4.647   7.604   5.200 -1.2792  0.3243 -1.9478
23340SOL    HW270599   4.522   7.653   5.271  0.2711  0.1974  1.0518
23341SOL     OW70600   7.976   8.838   3.372  0.4055  0.8537 -0.1819
23341SOL    HW170601   8.056   8.794   3.342 -0.2358 -0.0627 -0.5503
23341SOL    HW270602   7.905   8.791   3.330 -0.3882  1.0878  0.8717
23342SOL     OW70603   3.203   4.823   7.730  0.5931  0.0627  0.0350
23342SOL    HW170604   3.144   4.850   7.801 -1.3143 -0.5540 -1.2277
23342SOL    HW270605   3.167   4.866   7.652  0.1860 -2.4390 -1.2464
23343SOL     OW70606   8.653   6.088   2.408  0.2394  0.0764 -0.3764
23343SOL    HW170607   8.633   6.022   2.341 -0.4948  0.4183 -0.5141
23343SOL    HW270608   8.572   6.139   2.414  1.1171  1.5917 -0.9882
23344SOL     OW70609   1.051   8.217   9.622 -0.6104  0.3210 -0.4106
23344SOL    HW170610   0.984   8.172   9.570 -1.3119  0.8221  0.0304
23344SOL    HW270611   1.042   8.180   9.710  0.4952 -0.4441 -0.6036
23345SOL     OW70612   7.721   0.154   1.783  0.3548 -0.5309 -0.2263
23345SOL    HW170613   7.656   0.188   1.845 -0.7955 -0.6250 -1.3441
23345SOL    HW270614   7.801   0.145   1.835 -0.6457 -0.8971  1.3333
23346SOL     OW70615   0.540   8.178   8.630 -0.4301  0.6584 -0.5742
23346SOL    HW170616   0.612   8.137   8.582 -1.2250 -1.3195 -0.2068
23346SOL    HW270617   0.582   8.220   8.705  0.4099 -0.0651 -0.6138
23347SOL     OW70618   3.194   2.921   6.542 -0.4819 -0.2890  0.7680
23347SOL    HW170619   3.213   2.972   6.620  0.0391 -0.7599  0.9505
23347SOL    HW270620   3.201   2.830   6.570 -3.4681 -0.5736  1.0034
23348SOL     OW70621   1.849   4.947   2.887 -0.3033 -0.4303 -0.5989
23348SOL    HW170622   1.784   4.991   2.832  0.1328  0.4766 -0.4102
23348SOL    HW270623   1.800   4.879   2.933 -0.9573 -0.2553 -1.0286
23349SOL     OW70624   8.622   7.708   4.313 -0.0416  0.1791 -0.0696
23349SOL    HW170625   8.691   7.756   4.360 -0.2017  0.7177 -0.3763
23349SOL    HW270626   8.543   7.760   4.328 -0.3381 -0.3183  0.0960
23350SOL     OW70627   0.374   2.527   0.379  0.3392 -0.3876  0.4473
23350SOL    HW170628   0.337   2.613   0.359  0.9057  0.1649  1.6788
23350SOL    HW270629   0.368   2.479   0.296 -0.6565  0.5749 -0.0741
23351SOL     OW70630   9.705   0.238   2.361  0.0001  0.0278  0.0635
23351SOL    HW170631   9.674   0.278   2.280  3.1355  0.9764 -0.8180
23351SOL    HW270632   9.769   0.173   2.333 -1.2848 -2.1085  1.7280
23352SOL     OW70633   7.501   8.518   9.214  0.9754 -0.1101 -0.2283
23352SOL    HW170634   7.457   8.454   9.270  0.3431 -0.8282 -1.4842
23352SOL    HW270635   7.511   8.595   9.269  0.0886 -0.6728  0.7654
23353SOL     OW70636   4.275   6.092   7.337  0.1752  0.7765 -0.4914
23353SOL    HW170637   4.310   6.164   7.284 -0.0615  1.2800  0.0286
23353SOL    HW270638   4.184   6.083   7.309  0.2741  0.5102 -0.7316
23354SOL     OW70639   2.588   7.740   3.382  1.1273  0.0589  0.5401
23354SOL    HW170640   2.531   7.808   3.348  1.6074 -0.4933 -1.4798
23354SOL    HW270641   2.549   7.716   3.466 -1.1348  0.2751 -0.3786
23355SOL     OW70642   6.036   2.906   4.166 -0.0264  0.5329 -0.1133
23355SOL    HW170643   6.078   2.846   4.105 -0.7494  1.3278 -1.4637
23355SOL    HW270644   5.995   2.850   4.231  0.1546 -0.3908 -0.7794
23356SOL     OW70645   0.660   7.189   9.590  0.1576 -0.2348  0.3921
23356SOL    HW170646   0.593   7.208   9.656  0.5238 -0.1434  0.7345
23356SOL    HW270647   0.654   7.094   9.577 -0.5744 -0.1295 -0.1565
23357SOL     OW70648   7.864   4.265   6.484  0.0302 -0.2041 -0.5043
23357SOL    HW170649   7.946   4.220   6.506  0.5256  1.3387  1.1057
23357SOL    HW270650   7.888   4.326   6.414  0.5900  1.0363  0.7133
23358SOL     OW70651   8.771   7.671   7.449  0.5787 -0.3402 -0.6181
23358SOL    HW170652   8.809   7.583   7.447 -2.2039 -1.6329 -0.6052
23358SOL    HW270653   8.755   7.689   7.541  1.4745  0.3815 -0.5856
23359SOL     OW70654   6.143   5.658   9.257  0.1386 -0.9747  0.1466
23359SOL    HW170655   6.118   5.593   9.192  0.5583 -1.2207  0.2254
23359SOL    HW270656   6.150   5.609   9.339 -1.0117 -0.5586  0.5256
23360SOL     OW70657   4.035   4.723   7.082  0.7841 -0.7586  0.1189
23360SOL    HW170658   3.987   4.669   7.019  1.7980 -2.2391  0.5655
23360SOL    HW270659   3.969   4.781   7.119 -0.1734 -1.0812 -1.0158
23361SOL     OW70660   6.751   2.159   2.894  0.3657  0.4283  0.3034
23361SOL    HW170661   6.716   2.076   2.926  1.4554 -0.7505 -1.3935
23361SOL    HW270662   6.823   2.180   2.954 -0.5724  0.7118  1.3516
23362SOL     OW70663   5.516   1.792   5.317  0.3015 -0.2893  0.0197
23362SOL    HW170664   5.548   1.708   5.284  0.7604  0.7740 -2.4239
23362SOL    HW270665   5.420   1.786   5.310  0.3711 -0.2850 -1.0824
23363SOL     OW70666   2.434   5.636   5.887  0.0476  0.0256 -0.4245
23363SOL    HW170667   2.439   5.591   5.803 -1.4816 -1.5573  0.2797
23363SOL    HW270668   2.355   5.601   5.929  0.8870  0.5899  1.7665
23364SOL     OW70669   2.744   4.648   2.441 -0.4840 -0.6473 -0.0865
23364SOL    HW170670   2.735   4.569   2.389  0.1292 -1.0116  0.3512
23364SOL    HW270671   2.784   4.619   2.523  0.1630  0.1737 -0.0936
23365SOL     OW70672   0.623   5.744   7.490  0.2029 -0.2726  0.0521
23365SOL    HW170673   0.656   5.796   7.563 -2.1329  0.8122  0.4175
23365SOL    HW270674   0.571   5.805   7.438  0.2590 -1.4637 -1.4923
23366SOL     OW70675   3.522   8.843   4.870 -0.8817  0.5155 -0.4707
23366SOL    HW170676   3.475   8.922   4.896  0.0797  1.3395 -1.1578
23366SOL    HW270677   3.529   8.792   4.951 -0.5470  1.6524  0.2444
23367SOL     OW70678   4.407   5.333   0.137 -0.3584 -0.6565  0.2249
23367SOL    HW170679   4.498   5.318   0.112 -0.9100 -1.2236 -1.5645
23367SOL    HW270680   4.382   5.413   0.090 -1.2766 -1.4696 -0.7084
23368SOL     OW70681   7.446   4.839   2.052  0.3125  0.4573  0.2840
23368SOL    HW170682   7.449   4.910   1.988  2.1833  0.4625  0.3148
23368SOL    HW270683   7.354   4.813   2.055 -0.1963  1.9956 -0.6887
23369SOL     OW70684   6.756   9.852   3.195  0.0259 -0.1700 -0.3024
23369SOL    HW170685   6.702   9.777   3.221  1.2387 -0.8792  0.2782
23369SOL    HW270686   6.844   9.816   3.189  0.3226  0.7809 -2.0267
23370SOL     OW70687   2.963   0.852   2.455  0.5439 -0.2529  0.3246
23370SOL    HW170688   3.008   0.782   2.408 -0.9569 -1.2475  0.3043
23370SOL    HW270689   3.017   0.930   2.440  2.4940 -1.4753  0.7228
23371SOL     OW70690   3.605   5.428   5.128  0.1238 -0.0791 -0.4020
23371SOL    HW170691   3.610   5.466   5.040  1.3622 -1.5394 -0.9951
23371SOL    HW270692   3.693   5.438   5.164 -0.0413 -0.6386  0.1800
23372SOL     OW70693   8.795   8.787   8.403  0.3294 -0.1646  0.2139
23372SOL    HW170694   8.754   8.773   8.318 -0.2937  2.8252 -0.0807
23372SOL    HW270695   8.764   8.715   8.458 -1.0121 -0.9235 -1.4728
23373SOL     OW70696   7.959   0.469   8.847 -0.0765 -0.5779  0.3639
23373SOL    HW170697   7.940   0.489   8.756  0.0880 -0.5681  0.3317
23373SOL    HW270698   7.967   0.554   8.890  3.1692 -0.4422 -0.2784
23374SOL     OW70699   4.834   0.691   5.442  0.0048  0.4982  0.3956
23374SOL    HW170700   4.792   0.754   5.500  0.2054  0.5252  0.5131
23374SOL    HW270701   4.782   0.611   5.450 -0.7438  0.8907 -0.3778
23375SOL     OW70702   5.390   6.072   2.238  0.2494  0.0292 -0.1259
23375SOL    HW170703   5.344   6.087   2.156 -0.3323 -1.3233 -0.0818
23375SOL    HW270704   5.367   5.982   2.262  0.2691  0.4423  1.5987
23376SOL     OW70705   6.879   8.009   6.853 -0.3503  0.4031 -0.1155
23376SOL    HW170706   6.791   7.996   6.888 -0.1992 -0.4348 -0.0223
23376SOL    HW270707   6.936   8.003   6.929 -0.1862  0.6327 -0.2200
23377SOL     OW70708   3.583   3.166   5.147  0.4905  0.4758  0.8282
23377SOL    HW170709   3.552   3.174   5.057  2.5084  1.2380  0.1483
23377SOL    HW270710   3.533   3.231   5.196 -1.0512 -0.3570  0.4136
23378SOL     OW70711   8.456   7.323   3.150  0.6535  0.1579  0.3480
23378SOL    HW170712   8.533   7.351   3.198  0.2845 -0.0163  1.0578
23378SOL    HW270713   8.460   7.227   3.152  0.7288  0.1494 -0.1261
23379SOL     OW70714   6.504   7.122   5.973 -0.3930  0.5487  0.2757
23379SOL    HW170715   6.458   7.047   5.934  0.2256  0.7551 -0.8853
23379SOL    HW270716   6.472   7.125   6.063  0.7067 -2.0708  0.8409
23380SOL     OW70717   6.226   7.630   1.895  0.2113  0.6729 -0.0008
23380SOL    HW170718   6.165   7.626   1.969  1.7600  1.4152  1.3756
23380SOL    HW270719   6.226   7.541   1.860 -1.4976  0.6054  0.0493
23381SOL     OW70720   8.341   9.565   1.133  0.1404  0.0340 -0.2250
23381SOL    HW170721   8.386   9.481   1.136 -1.2311 -0.7109  0.9042
23381SOL    HW270722   8.284   9.564   1.210 -0.1473  1.8692 -0.3754
23382SOL     OW70723   7.757   5.319   9.893 -0.0553 -0.0490  0.2374
23382SOL    HW170724   7.834   5.373   9.871  0.4247 -0.8767 -0.1725
23382SOL    HW270725   7.698   5.379   9.939 -0.3511  1.3193 -1.8202
23383SOL     OW70726   4.552   1.086   1.547 -0.0127  0.7754 -0.2709
23383SOL    HW170727   4.545   0.991   1.534  0.3134  0.8754 -1.2336
23383SOL    HW270728   4.505   1.124   1.473  1.8139  1.3621 -1.1896
23384SOL     OW70729   1.897   2.643   0.919 -0.7702  0.3043  0.5726
23384SOL    HW170730   1.921   2.575   0.982  0.2566 -1.3630 -1.4981
23384SOL    HW270731   1.864   2.595   0.844 -0.9565  2.1663 -0.5991
23385SOL     OW70732   6.497   6.706   7.251 -0.1117 -0.6295  0.2948
23385SOL    HW170733   6.412   6.749   7.237  0.0131 -0.5626 -0.2999
23385SOL    HW270734   6.521   6.673   7.164  1.6760  1.5312 -0.1232
23386SOL     OW70735   2.685   4.821   5.526 -0.1578  0.4417 -0.1843
23386SOL    HW170736   2.651   4.741   5.567  0.8157 -0.5796 -1.2748
23386SOL    HW270737   2.756   4.790   5.469 -2.1736  1.5906 -3.5763
23387SOL     OW70738   0.737   8.004   8.449  0.0873  0.2115  0.1976
23387SOL    HW170739   0.669   7.950   8.490 -0.7699  0.0705 -1.3473
23387SOL    HW270740   0.814   7.947   8.445 -0.7628 -0.8845 -1.2804
23388SOL     OW70741   2.775   8.706   9.884  0.3133  0.3469 -0.4073
23388SOL    HW170742   2.813   8.737   9.802 -1.2769  0.6721 -1.0565
23388SOL    HW270743   2.684   8.684   9.862  0.9049 -3.5094  0.3140
23389SOL     OW70744   9.205   5.908   9.191  0.4728  0.1285 -0.1297
23389SOL    HW170745   9.200   5.837   9.127  1.5073 -0.1507  0.0803
23389SOL    HW270746   9.203   5.988   9.139 -5.0452  0.2778 -0.2431
23390SOL     OW70747   9.192   7.686   9.573  0.2222  0.3188  0.2794
23390SOL    HW170748   9.272   7.639   9.549 -0.1331 -0.4945  0.6799
23390SOL    HW270749   9.206   7.714   9.664  0.0009  0.0624  0.3941
23391SOL     OW70750   5.737   4.748   5.011 -0.4265 -0.4082  0.4644
23391SOL    HW170751   5.691   4.825   4.978  1.1732  0.3514 -0.0879
23391SOL    HW270752   5.776   4.777   5.093  1.3118 -0.1642 -0.4009
23392SOL     OW70753   9.471   9.850   7.087  0.5329 -0.2374  0.0650
23392SOL    HW170754   9.525   9.904   7.144  1.3644  0.1791 -1.0840
23392SOL    HW270755   9.531   9.787   7.048 -0.0695 -0.6881 -0.1613
23393SOL     OW70756   8.633   8.172   3.145  0.0396 -0.0360 -0.6599
23393SOL    HW170757   8.699   8.125   3.194 -1.1729 -2.6663 -1.3764
23393SOL    HW270758   8.659   8.162   3.054  0.0192  1.1744 -0.8154
23394SOL     OW70759   4.816   4.506   4.129 -0.5346 -0.4783  0.1671
23394SOL    HW170760   4.789   4.594   4.153 -0.6227 -0.9614  1.9257
23394SOL    HW270761   4.738   4.468   4.088 -0.6880  0.0500 -0.0390
23395SOL     OW70762   8.596   7.975   0.732  0.4329  0.6017 -0.1661
23395SOL    HW170763   8.549   8.058   0.725  0.0035  0.5669  1.8204
23395SOL    HW270764   8.667   7.993   0.794  0.8824 -0.2967 -0.4077
23396SOL     OW70765   6.492   7.017   0.341 -0.0658  0.4211  0.4509
23396SOL    HW170766   6.482   6.987   0.251 -0.1352  2.3275 -0.2315
23396SOL    HW270767   6.403   7.038   0.370  0.1618  2.1967  0.0228
23397SOL     OW70768   0.176   8.123   9.896  0.6107  0.0528  0.1723
23397SOL    HW170769   0.107   8.143   9.832  1.5214  1.3589 -0.4554
23397SOL    HW270770   0.257   8.128   9.846  1.1945 -1.4013  0.9176
23398SOL     OW70771   0.880   8.422   6.513  0.1688 -0.3517  0.6547
23398SOL    HW170772   0.967   8.442   6.479 -1.0263  0.7734 -2.0040
23398SOL    HW270773   0.877   8.326   6.516  1.6403 -0.4040  1.2830
23399SOL     OW70774   0.395   6.916   5.051 -0.3580 -0.0264 -0.3498
23399SOL    HW170775   0.431   7.002   5.070 -0.8400 -0.0313  0.6035
23399SOL    HW270776   0.338   6.930   4.975 -0.9776  0.6297  0.2299
23400SOL     OW70777   8.062   5.962   0.729  0.5320  0.7689  0.0127
23400SOL    HW170778   8.016   5.893   0.778  1.3120  0.0531 -0.2371
23400SOL    HW270779   8.113   6.009   0.796  0.4188  0.7589  0.1066
23401SOL     OW70780   6.539   7.496   1.732 -0.3300  0.2147 -0.1670
23401SOL    HW170781   6.515   7.413   1.773 -0.6111  0.8339  0.9695
23401SOL    HW270782   6.535   7.560   1.804 -0.3784  1.2531 -1.0742
23402SOL     OW70783   5.654   9.727   0.081 -0.0350  0.0139  0.3713
23402SOL    HW170784   5.691   9.643   0.057 -1.8231 -0.1896 -2.1379
23402SOL    HW270785   5.624   9.716   0.171 -1.1806 -2.4652 -0.2278
23403SOL     OW70786   8.545   0.604   6.803 -0.0926  0.6604 -0.5794
23403SOL    HW170787   8.481   0.669   6.833  0.2538  0.1611  1.3290
23403SOL    HW270788   8.588   0.573   6.882  1.1089 -0.5133 -1.6332
23404SOL     OW70789   7.469   2.923   1.709 -0.1149  0.5632 -0.2566
23404SOL    HW170790   7.390   2.917   1.764  0.2120  1.3556  0.3236
23404SOL    HW270791   7.479   2.836   1.672 -0.4338  0.0376  0.8355
23405SOL     OW70792   1.263   2.141   9.363 -0.2561 -0.3374 -0.2935
23405SOL    HW170793   1.238   2.091   9.442  0.6884 -0.0636  0.1886
23405SOL    HW270794   1.320   2.210   9.396  0.5743 -0.5291 -1.2857
23406SOL     OW70795   5.265   5.529   3.923 -0.3008 -0.6287  0.3774
23406SOL    HW170796   5.230   5.603   3.974 -1.8264 -0.9999 -0.0695
23406SOL    HW270797   5.192   5.467   3.918  0.3358 -1.3153 -0.8803
23407SOL     OW70798   6.887   8.229   4.267 -0.0701 -0.7784 -0.2095
23407SOL    HW170799   6.905   8.150   4.318  1.2370  0.8754  2.1624
23407SOL    HW270800   6.795   8.222   4.242 -0.5316 -2.1715  1.6307
23408SOL     OW70801   1.266   9.730   3.871 -0.0605 -0.1391  0.0047
23408SOL    HW170802   1.216   9.788   3.929  0.7995  1.6984 -1.0248
23408SOL    HW270803   1.205   9.708   3.801 -0.9076 -1.8748  1.2101
23409SOL     OW70804   8.445   1.455   2.356 -0.2470  0.0846 -0.4756
23409SOL    HW170805   8.496   1.535   2.355  0.3911 -0.3167 -1.7992
23409SOL    HW270806   8.470   1.412   2.438 -0.2405  0.9909  0.0158
23410SOL     OW70807   3.613   4.802   0.048 -0.2735 -0.0277 -0.0738
23410SOL    HW170808   3.631   4.820   0.140 -2.3381 -1.7965  0.7636
23410SOL    HW270809   3.546   4.865   0.023  0.0328  0.2203 -0.2835
23411SOL     OW70810   9.703   7.425   6.155 -0.1481 -0.5118  0.2657
23411SOL    HW170811   9.696   7.367   6.079 -0.6800 -1.1027  0.7530
23411SOL    HW270812   9.619   7.470   6.159  0.7376  1.3917 -0.9370
23412SOL     OW70813   5.476   2.034   0.804  0.6049  0.0592  0.0108
23412SOL    HW170814   5.497   2.112   0.752 -0.9005  0.4253 -0.1241
23412SOL    HW270815   5.459   1.966   0.738  0.3959  0.0568  0.0642
23413SOL     OW70816   5.427   3.359   9.305 -0.6255 -0.4892  0.1399
23413SOL    HW170817   5.408   3.436   9.252 -3.4249 -0.5540  0.8678
23413SOL    HW270818   5.364   3.365   9.378  0.3098 -2.5264  1.1879
23414SOL     OW70819   1.675   8.520   5.470  0.1395 -0.0345 -0.1782
23414SOL    HW170820   1.631   8.525   5.555 -2.3893 -0.5786 -1.3324
23414SOL    HW270821   1.616   8.567   5.411  0.3380 -2.1091 -2.1508
23415SOL     OW70822   3.635   0.331   9.136 -0.1012 -0.5002  0.2049
23415SOL    HW170823   3.677   0.245   9.137 -1.1848 -1.1090 -2.0126
23415SOL    HW270824   3.700   0.389   9.097 -0.4267 -0.9669 -1.0809
23416SOL     OW70825   2.441   4.455   3.600 -0.5394  0.2926 -0.2622
23416SOL    HW170826   2.471   4.509   3.526  0.3094 -0.0640 -0.1883
23416SOL    HW270827   2.397   4.380   3.559  0.5516 -0.2690 -0.4415
23417SOL     OW70828   4.399   4.413   5.885 -0.5307  0.1963  0.1307
23417SOL    HW170829   4.442   4.497   5.868  1.8725 -0.3917  2.5984
23417SOL    HW270830   4.457   4.348   5.845  0.1326 -0.5180  2.1259
23418SOL     OW70831   9.296   0.198   3.666  0.3924 -0.1251  0.0580
23418SOL    HW170832   9.314   0.125   3.607 -0.5367 -0.9014  0.7071
23418SOL    HW270833   9.327   0.276   3.619 -1.2368 -0.5859 -1.8696
23419SOL     OW70834   4.096   5.408   0.474  0.3996 -0.1646  0.1196
23419SOL    HW170835   4.154   5.405   0.398  0.8277  0.0256  0.4404
23419SOL    HW270836   4.008   5.408   0.436  0.6134  0.1001 -0.3835
23420SOL     OW70837   2.146   4.164   9.783  0.2839 -0.2579 -0.2683
23420SOL    HW170838   2.143   4.135   9.692 -0.4021 -2.5990  0.4232
23420SOL    HW270839   2.064   4.132   9.821  0.9579 -0.1283  1.3911
23421SOL     OW70840   4.303   5.586   4.069 -0.1214 -0.0737 -0.0486
23421SOL    HW170841   4.260   5.630   3.996  1.1130  1.4517  0.1019
23421SOL    HW270842   4.237   5.525   4.102 -0.4529 -1.4422 -2.9251
23422SOL     OW70843   7.423   2.698   2.712  0.0154 -0.1574 -0.4678
23422SOL    HW170844   7.389   2.704   2.801 -1.2865  3.3891 -1.0196
23422SOL    HW270845   7.518   2.704   2.722  0.1403 -2.9453  0.7456
23423SOL     OW70846   8.638   3.025   3.092  0.2793 -0.6582  0.4360
23423SOL    HW170847   8.543   3.015   3.097  0.1846 -1.4468 -2.0660
23423SOL    HW270848   8.653   3.119   3.107 -0.6236 -0.8667  3.1371
23424SOL     OW70849   2.957   8.055   0.197  0.3767  0.1426  0.5896
23424SOL    HW170850   2.895   7.983   0.189 -1.3956  1.5045  1.2253
23424SOL    HW270851   2.974   8.061   0.291  2.3352 -0.8457  0.3452
23425SOL     OW70852   5.830   9.187   5.000 -0.1198  0.1524  0.1779
23425SOL    HW170853   5.845   9.253   5.067 -0.7423  0.2322  0.2443
23425SOL    HW270854   5.905   9.129   5.006 -0.5361 -0.2819  1.4618
23426SOL     OW70855   6.724   3.761   6.843  0.1585  0.1496  0.8801
23426SOL    HW170856   6.815   3.741   6.862  0.4355 -0.1576 -0.6193
23426SOL    HW270857   6.675   3.691   6.886  0.6718 -0.0369  1.1684
23427SOL     OW70858   7.062   5.208   2.834 -0.7069 -0.9830 -0.1543
23427SOL    HW170859   6.979   5.255   2.846 -0.0598  0.6989 -1.9283
23427SOL    HW270860   7.064   5.187   2.741  0.5487 -1.6722  0.0124
23428SOL     OW70861   2.626   7.916   3.745  0.5201  0.6440 -0.3356
23428SOL    HW170862   2.567   7.858   3.698  1.9581 -0.3349 -0.9889
23428SOL    HW270863   2.656   7.979   3.679  0.0396  1.2943  0.0502
23429SOL     OW70864   5.719   6.579   9.499  0.2071 -0.7840  0.1362
23429SOL    HW170865   5.632   6.603   9.466  0.4911 -0.8259 -0.6763
23429SOL    HW270866   5.705   6.558   9.591 -0.9568 -2.3502 -0.3565
23430SOL     OW70867   4.537   3.273   0.583 -0.2757 -0.1768  0.3449
23430SOL    HW170868   4.496   3.341   0.636 -0.0093 -0.2732  0.6794
23430SOL    HW270869   4.534   3.307   0.494  3.6188  2.2703  0.8839
23431SOL     OW70870   5.489   0.472   5.572 -0.0015 -0.0655  0.3080
23431SOL    HW170871   5.536   0.446   5.493  1.8544  1.7453  0.7351
23431SOL    HW270872   5.397   0.475   5.544  0.5260 -0.0317 -1.6098
23432SOL     OW70873   8.057   2.958   6.669  0.1465 -0.2568  0.0687
23432SOL    HW170874   8.072   2.925   6.758 -0.3313  0.2077  0.3248
23432SOL    HW270875   8.095   2.890   6.612  1.0711 -0.2378  0.6342
23433SOL     OW70876   5.970   3.449   8.260  0.1857 -0.1716 -0.4091
23433SOL    HW170877   6.031   3.448   8.186  0.7511 -0.1899  0.0521
23433SOL    HW270878   5.971   3.359   8.294 -1.4181 -0.6292 -1.4504
23434SOL     OW70879   1.327   1.371   9.527  0.2156 -0.3218  0.3553
23434SOL    HW170880   1.251   1.314   9.517  0.5289 -0.6313 -0.3656
23434SOL    HW270881   1.333   1.388   9.621 -0.2246 -1.0001  0.5111
23435SOL     OW70882   1.892   2.540   4.230  0.1780 -0.2966 -0.4216
23435SOL    HW170883   1.906   2.508   4.141 -1.3823 -1.5939 -0.2507
23435SOL    HW270884   1.802   2.574   4.230  0.5779  0.8197  0.3498
23436SOL     OW70885   1.789   4.448   8.792 -0.0831  0.0751  0.6004
23436SOL    HW170886   1.790   4.503   8.714  1.3405 -1.1999 -0.3232
23436SOL    HW270887   1.701   4.460   8.828 -1.8750 -1.4732 -2.7834
23437SOL     OW70888   7.936   8.616   4.851 -0.0035  0.0959  0.3889
23437SOL    HW170889   7.993   8.689   4.874  1.2503 -1.2893  1.9559
23437SOL    HW270890   7.981   8.539   4.886 -1.1846 -1.4636 -1.3601
23438SOL     OW70891   6.877   7.490   1.527 -0.4432 -0.1390 -0.1741
23438SOL    HW170892   6.903   7.417   1.471  0.5646  1.4472 -1.9167
23438SOL    HW270893   6.941   7.559   1.507 -3.4817  2.5360 -1.4699
23439SOL     OW70894   1.598   1.188   1.532  0.6220  0.2035  0.1021
23439SOL    HW170895   1.540   1.263   1.520 -0.6017 -0.8302 -0.6705
23439SOL    HW270896   1.679   1.226   1.565 -0.3766  1.7268  0.9304
23440SOL     OW70897   5.969   4.381   6.554 -0.6299  0.0466 -0.4256
23440SOL    HW170898   6.021   4.438   6.611  0.0079 -1.2660  0.3451
23440SOL    HW270899   5.959   4.431   6.473  0.3637  1.0306  0.0352
23441SOL     OW70900   9.705   7.284   2.544  0.0616  0.3205 -0.2504
23441SOL    HW170901   9.749   7.264   2.461 -1.0314 -1.7472 -0.3826
23441SOL    HW270902   9.701   7.380   2.546  1.8607  0.4843 -1.6226
23442SOL     OW70903   2.986   5.213   6.353  0.1290  0.1609 -0.3307
23442SOL    HW170904   2.921   5.251   6.413  0.6331 -0.8079  0.8571
23442SOL    HW270905   2.965   5.120   6.350  0.8255  0.0113 -0.7447
23443SOL     OW70906   4.726   5.419   9.087  0.0456 -0.0902 -0.0426
23443SOL    HW170907   4.787   5.474   9.137  1.5817 -1.8869  0.1546
23443SOL    HW270908   4.701   5.350   9.149 -0.5712 -0.5364 -0.7843
23444SOL     OW70909   1.436   0.226   0.401 -0.4433 -0.0782  0.0135
23444SOL    HW170910   1.464   0.178   0.479 -0.2759 -0.0956 -0.0576
23444SOL    HW270911   1.342   0.209   0.396 -0.2612 -1.0215 -0.4339
23445SOL     OW70912   9.179   6.154   4.409 -0.3812 -0.9869 -0.1895
23445SOL    HW170913   9.272   6.173   4.420 -0.2016 -1.9233  0.0197
23445SOL    HW270914   9.157   6.097   4.483 -1.0285 -1.0940 -0.4511
23446SOL     OW70915   4.136   7.835   8.355  0.1419 -0.2524  0.5594
23446SOL    HW170916   4.058   7.829   8.300  0.7703 -0.3394 -0.3554
23446SOL    HW270917   4.126   7.918   8.401 -0.7070 -0.4801  0.8094
23447SOL     OW70918   4.922   8.190   8.708 -0.5335  0.2369  0.0032
23447SOL    HW170919   4.867   8.112   8.707  0.6163 -0.6041 -1.3088
23447SOL    HW270920   5.011   8.156   8.721 -0.3671  1.6508  3.6436
23448SOL     OW70921   1.405   0.996   8.864 -0.1539 -0.4943 -0.1503
23448SOL    HW170922   1.476   1.047   8.904 -0.1139  0.0921 -0.9278
23448SOL    HW270923   1.419   0.907   8.894  0.2209 -0.1739  0.6497
23449SOL     OW70924   7.906   1.597   3.859  0.2296 -0.9461  0.0889
23449SOL    HW170925   7.946   1.608   3.773  1.1837 -2.4637  0.3048
23449SOL    HW270926   7.978   1.609   3.921  0.1006 -2.4222  0.5510
23450SOL     OW70927   9.917   1.101   6.442  1.0437  0.1637 -0.6639
23450SOL    HW170928   9.979   1.047   6.393  1.9601 -0.0757  0.6952
23450SOL    HW270929   9.833   1.088   6.397  1.4997 -1.3839 -1.1374
23451SOL     OW70930   3.631   4.629   9.447 -0.3105 -0.0102  0.1645
23451SOL    HW170931   3.569   4.562   9.416 -0.3691  0.3034 -0.4142
23451SOL    HW270932   3.645   4.608   9.539  0.3838 -1.3771 -0.2179
23452SOL     OW70933   7.843   0.631   6.227  0.0528 -0.1885  0.1283
23452SOL    HW170934   7.849   0.544   6.187  0.2403  0.6950 -1.8949
23452SOL    HW270935   7.903   0.685   6.176 -1.7865  1.6645 -0.2511
23453SOL     OW70936   1.286   1.430   0.902  0.2161  0.0290  0.5997
23453SOL    HW170937   1.243   1.423   0.817 -0.1950 -0.0447  0.8141
23453SOL    HW270938   1.380   1.425   0.882  0.1036 -0.8844  0.2251
23454SOL     OW70939   0.542   6.583   9.286  0.1992 -0.1709  0.3593
23454SOL    HW170940   0.520   6.608   9.376 -2.3564  1.7237 -0.6697
23454SOL    HW270941   0.541   6.487   9.287  0.3028 -0.1999  2.3412
23455SOL     OW70942   8.830   8.082   6.323 -0.1455  0.2638 -0.0000
23455SOL    HW170943   8.757   8.142   6.338  0.7499  0.9740  1.8075
23455SOL    HW270944   8.826   8.020   6.396  0.3769 -0.4090 -0.5249
23456SOL     OW70945   2.722   1.531   8.177  0.4218 -0.0456 -0.4005
23456SOL    HW170946   2.731   1.549   8.084  1.7268  3.1301  0.2157
23456SOL    HW270947   2.805   1.490   8.202  0.3909 -0.1563 -0.4776
23457SOL     OW70948   9.403   8.160   9.123  0.0198  0.8872  0.3376
23457SOL    HW170949   9.457   8.230   9.158  0.0120  0.5837  0.9694
23457SOL    HW270950   9.391   8.100   9.196 -0.2786  0.4102 -0.0949
23458SOL     OW70951   8.954   5.773   7.625  0.3595 -0.3183  0.0658
23458SOL    HW170952   8.944   5.768   7.720 -0.4411  0.8092  0.0598
23458SOL    HW270953   8.890   5.710   7.591  0.2433 -0.3017  0.2553
23459SOL     OW70954   9.355   9.168   5.801  0.2469 -0.1329  0.2068
23459SOL    HW170955   9.413   9.129   5.736  0.6954 -1.2089  1.2351
23459SOL    HW270956   9.280   9.199   5.750  0.9334 -0.2757 -0.9160
23460SOL     OW70957   8.501   1.195   4.599  0.2285 -0.2207 -0.4508
23460SOL    HW170958   8.513   1.290   4.602  0.2863 -0.1932 -1.3412
23460SOL    HW270959   8.476   1.177   4.509  0.4801 -1.0867 -0.3556
23461SOL     OW70960   4.062   8.115   4.620  0.0863  0.4135  0.2431
23461SOL    HW170961   4.000   8.082   4.685  1.1075 -1.8136  0.1807
23461SOL    HW270962   4.148   8.083   4.649  0.8440  1.0575 -1.1470
23462SOL     OW70963   2.227   1.282   5.643 -0.6721  0.0071  0.4117
23462SOL    HW170964   2.144   1.330   5.646 -0.4696  0.3160  1.3614
23462SOL    HW270965   2.257   1.292   5.553 -0.7349  1.4860  0.5441
23463SOL     OW70966   3.580   2.255   0.396 -0.4844  0.2137  0.0085
23463SOL    HW170967   3.637   2.181   0.377 -0.7711 -0.1482  0.5342
23463SOL    HW270968   3.633   2.332   0.374  0.4191 -0.0973  0.9933
23464SOL     OW70969   2.023   8.379   5.631  0.1575 -0.4440  0.5029
23464SOL    HW170970   1.936   8.419   5.626  0.4993  1.0562  3.9054
23464SOL    HW270971   2.046   8.383   5.724  2.8531 -3.1151  0.1042
23465SOL     OW70972   3.084   6.836   9.417  0.2531 -0.0288 -0.6545
23465SOL    HW170973   3.095   6.742   9.402 -1.7785 -0.7589  1.8447
23465SOL    HW270974   3.155   6.860   9.476  0.2536 -0.1767 -0.5964
23466SOL     OW70975   5.374   0.606   9.724  0.0034 -0.2410  0.1461
23466SOL    HW170976   5.287   0.570   9.706  0.3554 -0.8051 -0.4426
23466SOL    HW270977   5.421   0.534   9.767  0.2241  0.0151  0.3340
23467SOL     OW70978   1.499   0.669   1.053  0.1270 -0.3962 -0.0699
23467SOL    HW170979   1.553   0.731   1.103  0.6284 -0.1125 -0.9509
23467SOL    HW270980   1.555   0.639   0.983 -0.7721 -0.2959 -0.8567
23468SOL     OW70981   9.942   3.136   5.359  0.3138  0.6844 -0.3470
23468SOL    HW170982   9.979   3.213   5.403 -0.2540  0.7040  0.1051
23468SOL    HW270983  10.016   3.076   5.350  0.8683  1.4481 -1.0998
23469SOL     OW70984   2.413   3.474   1.446  0.9548  0.5512 -0.4763
23469SOL    HW170985   2.504   3.447   1.447  0.0633 -3.1019  0.9576
23469SOL    HW270986   2.397   3.509   1.534  0.6948 -0.2189 -0.2028
23470SOL     OW70987   7.413   7.467   5.251 -0.3295  0.2433 -0.0898
23470SOL    HW170988   7.413   7.504   5.340 -0.4669  0.4340 -0.1685
23470SOL    HW270989   7.391   7.541   5.195 -0.4751  0.0684 -0.2624
23471SOL     OW70990   8.726   1.210   5.035  0.1468 -0.4001  0.0347
23471SOL    HW170991   8.740   1.172   5.122 -0.8069  0.5792  0.6427
23471SOL    HW270992   8.788   1.283   5.030 -0.7349  0.4115  0.4782
23472SOL     OW70993   1.636   5.309   3.030  0.3262 -0.2491  0.2084
23472SOL    HW170994   1.601   5.261   2.954 -2.1096  1.8357 -0.0996
23472SOL    HW270995   1.730   5.291   3.028  0.2433 -0.8916 -2.8683
23473SOL     OW70996   8.535   5.175   7.394  0.0041  0.2477  0.0888
23473SOL    HW170997   8.461   5.203   7.448  0.0659 -0.3977  0.5265
23473SOL    HW270998   8.572   5.256   7.359  0.4742  0.7820  1.7080
23474SOL     OW70999   5.498   1.507   2.868 -0.2404 -0.3330 -0.0487
23474SOL    HW171000   5.547   1.589   2.875  1.9264 -1.6509  2.1077
23474SOL    HW271001   5.525   1.469   2.785  1.4018 -0.3501  0.4499
23475SOL     OW71002   8.538   1.563   6.452 -0.6434 -0.2355  0.1117
23475SOL    HW171003   8.474   1.545   6.383 -0.0021  0.0342 -0.5692
23475SOL    HW271004   8.584   1.480   6.466 -0.9378 -0.3531  0.3914
23476SOL     OW71005   4.979   3.342   9.557  0.4165 -0.5224  0.2858
23476SOL    HW171006   4.933   3.422   9.531  2.8908  1.2827  1.0723
23476SOL    HW271007   4.988   3.292   9.476  0.2774  0.7948 -0.5758
23477SOL     OW71008   1.542   9.155   6.238  0.3040  0.3018  0.0858
23477SOL    HW171009   1.589   9.072   6.241 -0.4763 -0.1867 -0.6798
23477SOL    HW271010   1.456   9.135   6.274 -0.6263  0.2446 -2.0461
23478SOL     OW71011   7.134   3.912   7.528  0.0400 -0.1241 -0.6573
23478SOL    HW171012   7.063   3.854   7.554  0.4141 -0.5289 -0.5408
23478SOL    HW271013   7.092   3.975   7.469 -0.5303 -0.0121 -0.1438
23479SOL     OW71014   1.857   7.853   3.770  0.2755  0.5021 -0.0373
23479SOL    HW171015   1.824   7.818   3.853  2.0718  1.0544  0.9575
23479SOL    HW271016   1.947   7.822   3.764  0.3891  1.0055 -1.4834
23480SOL     OW71017   0.941   7.559   7.809  0.0369  0.5044  0.4762
23480SOL    HW171018   1.025   7.519   7.789 -1.2241 -0.3509 -4.2700
23480SOL    HW271019   0.953   7.652   7.787 -0.0017  0.5815  0.7730
23481SOL     OW71020   3.532   3.146   1.237  0.1709 -0.4660  0.5723
23481SOL    HW171021   3.489   3.131   1.152 -1.9904 -1.2961  1.7223
23481SOL    HW271022   3.618   3.182   1.215 -0.4439 -0.3652 -1.9484
23482SOL     OW71023   9.117   8.911   2.946  0.3388 -0.1809  0.5928
23482SOL    HW171024   9.122   8.817   2.926  2.4872 -0.0003 -0.0542
23482SOL    HW271025   9.199   8.929   2.993  1.0405  1.7463 -1.2298
23483SOL     OW71026   8.312   3.533   2.252  0.0192 -0.2386 -0.6668
23483SOL    HW171027   8.354   3.519   2.167 -0.1596  0.1135 -0.8157
23483SOL    HW271028   8.334   3.455   2.303  0.4442 -0.2755 -0.9064
23484SOL     OW71029   5.801   1.199   7.809  0.2689 -0.1788 -0.4211
23484SOL    HW171030   5.785   1.247   7.728 -0.5675  0.2381 -0.0236
23484SOL    HW271031   5.856   1.257   7.861  0.0675 -0.0658 -0.3335
23485SOL     OW71032   0.509   0.044   4.342  0.0944  0.4747 -0.4156
23485SOL    HW171033   0.458   0.120   4.311 -1.4308 -0.4929 -0.3521
23485SOL    HW271034   0.566   0.023   4.268  0.5177  1.6571 -0.4476
23486SOL     OW71035   2.283   7.953   8.099 -0.7809  0.4506 -0.3892
23486SOL    HW171036   2.357   7.932   8.155 -0.3512 -0.0949 -1.1415
23486SOL    HW271037   2.230   7.874   8.098 -0.1142 -0.0103 -1.7582
23487SOL     OW71038   2.287   6.659   2.839  0.0029  0.4278 -0.2747
23487SOL    HW171039   2.330   6.576   2.819 -1.9195 -0.8330  0.4815
23487SOL    HW271040   2.259   6.650   2.930  0.3381  2.1982  0.0430
23488SOL     OW71041   0.689   0.872   5.761 -0.1623 -0.0084 -0.5548
23488SOL    HW171042   0.666   0.943   5.820 -0.5810 -0.6202  0.0196
23488SOL    HW271043   0.739   0.915   5.691 -0.9841  0.9594 -0.5771
23489SOL     OW71044   2.003   2.121   6.470  0.2049 -0.3198  0.1212
23489SOL    HW171045   2.094   2.122   6.440 -0.2124  0.8495 -1.2429
23489SOL    HW271046   1.961   2.191   6.420 -1.4160 -0.7475  0.8252
23490SOL     OW71047   5.549   9.719   2.645 -0.4242  0.3236  0.2470
23490SOL    HW171048   5.560   9.806   2.607 -1.1546  0.5401  0.5011
23490SOL    HW271049   5.602   9.720   2.724  0.0991  0.3060 -0.1029
23491SOL     OW71050   0.830   7.448   8.563  0.1870  0.0839 -0.0392
23491SOL    HW171051   0.804   7.437   8.472  1.4912  0.7125 -0.5081
23491SOL    HW271052   0.925   7.435   8.563  0.4091  1.4771  0.9814
23492SOL     OW71053   7.309   2.980   9.523  0.1505  0.1158 -0.1398
23492SOL    HW171054   7.328   2.904   9.469 -1.3582 -1.3766  1.2773
23492SOL    HW271055   7.328   2.950   9.613 -0.4380  1.4058  0.4367
23493SOL     OW71056   5.110   7.308   4.476 -0.2992  0.1626 -0.3479
23493SOL    HW171057   5.150   7.228   4.509 -1.2330 -0.0458  0.3051
23493SOL    HW271058   5.104   7.295   4.381 -1.0662 -0.8315 -0.1765
23494SOL     OW71059   1.338   0.092   4.395 -0.4081 -0.2982 -0.5827
23494SOL    HW171060   1.285   0.030   4.345 -0.6824  0.3769 -1.1354
23494SOL    HW271061   1.275   0.152   4.434 -0.3051 -1.5365  1.6226
23495SOL     OW71062   4.147   9.832   7.297 -0.2056 -0.4878 -0.2745
23495SOL    HW171063   4.085   9.854   7.367  1.8652 -0.3622  1.6263
23495SOL    HW271064   4.123   9.890   7.225 -2.1203 -0.2761  0.4684
23496SOL     OW71065   1.816   4.974   9.814 -0.1971  0.1781 -0.4434
23496SOL    HW171066   1.777   4.993   9.899  0.3814 -0.9085  0.0906
23496SOL    HW271067   1.780   5.040   9.755 -0.8698  0.7368  0.5711
23497SOL     OW71068   1.039   3.772   0.304  0.4491  0.2237  0.1830
23497SOL    HW171069   1.046   3.866   0.322  0.2609  0.2118  0.3150
23497SOL    HW271070   0.995   3.767   0.219  1.5504  0.2867 -0.4058
23498SOL     OW71071   9.627   8.803   7.215  0.7424  0.0382 -0.1829
23498SOL    HW171072   9.711   8.802   7.261  1.8201  1.7170 -1.9662
23498SOL    HW271073   9.628   8.885   7.166 -1.6411 -0.2669 -0.8413
23499SOL     OW71074   7.810   3.151   8.274  0.4628 -0.6850  0.1304
23499SOL    HW171075   7.760   3.223   8.313  0.1662 -0.3242 -0.8746
23499SOL    HW271076   7.888   3.193   8.238  0.2571 -0.8381 -0.5150
23500SOL     OW71077   9.125   5.990   5.169 -0.0013 -0.0236 -0.0162
23500SOL    HW171078   9.077   6.072   5.153  1.5907  1.0901  0.6910
23500SOL    HW271079   9.083   5.953   5.247  0.1080  0.8072  0.4520
23501SOL     OW71080   6.554   9.198   7.544 -0.0822 -0.0692 -0.2879
23501SOL    HW171081   6.590   9.113   7.518  0.2825  0.5450 -1.9377
23501SOL    HW271082   6.530   9.188   7.636  1.6219 -1.4039  0.0436
23502SOL     OW71083   0.070   7.673   8.095  0.4351  0.3749 -0.0516
23502SOL    HW171084   0.120   7.600   8.059  0.8354  0.2247  0.7829
23502SOL    HW271085  -0.014   7.636   8.120  0.4986  0.2883  0.0295
23503SOL     OW71086   2.198   4.796   6.849  0.8029  0.1662  0.6316
23503SOL    HW171087   2.261   4.724   6.849  0.8836  0.2106 -1.2512
23503SOL    HW271088   2.250   4.874   6.832  0.3071  0.2267 -0.7390
23504SOL     OW71089   8.031   8.231   9.230  0.4742  0.0492 -0.0771
23504SOL    HW171090   8.104   8.230   9.168  1.2461 -3.2133  0.6608
23504SOL    HW271091   7.966   8.173   9.191 -0.1816  0.1028  0.9022
23505SOL     OW71092   5.284   0.478   2.417 -0.3132  0.3543 -0.1013
23505SOL    HW171093   5.218   0.511   2.357  0.6088  0.9665 -0.8043
23505SOL    HW271094   5.317   0.556   2.462 -0.3720  0.0074  0.5622
23506SOL     OW71095  -0.008   2.290   6.972  0.1722 -0.5447 -0.2942
23506SOL    HW171096   0.033   2.223   7.027  1.1779  0.4278  0.1852
23506SOL    HW271097   0.050   2.296   6.895  1.7957  1.7452  0.9681
23507SOL     OW71098   9.636   5.206   6.291 -0.5300  0.3757 -0.4594
23507SOL    HW171099   9.690   5.166   6.359 -0.7074  0.0676 -0.4985
23507SOL    HW271100   9.589   5.277   6.336  0.6659  1.3121 -0.6471
23508SOL     OW71101   0.866   1.889   3.424  0.3968 -0.2475 -0.8876
23508SOL    HW171102   0.914   1.903   3.505  1.0592 -0.1738 -1.2910
23508SOL    HW271103   0.879   1.797   3.404 -0.0272 -0.3404 -0.7485
23509SOL     OW71104   2.462   9.466   5.649  0.3699  0.2724 -0.3929
23509SOL    HW171105   2.369   9.449   5.638 -0.0085  1.3431  0.9755
23509SOL    HW271106   2.501   9.379   5.659 -0.2838 -0.2683 -2.0789
23510SOL     OW71107   6.537   6.888   1.894  0.1553 -0.2062 -0.1544
23510SOL    HW171108   6.623   6.847   1.901  1.2508  2.0298  0.2134
23510SOL    HW271109   6.491   6.859   1.973  1.0020 -0.4609  0.2614
23511SOL     OW71110   4.542   0.923   0.005  0.0180  0.7214  0.3652
23511SOL    HW171111   4.508   0.932   0.094  0.6607  0.7450  0.6122
23511SOL    HW271112   4.636   0.914   0.016 -0.0736 -1.5104 -0.1476
23512SOL     OW71113   3.745   4.340   5.925  0.3922 -0.0774  0.7087
23512SOL    HW171114   3.716   4.297   5.845 -1.7045 -0.1785  1.4420
23512SOL    HW271115   3.741   4.434   5.905  0.0401 -0.1087  0.6250
23513SOL     OW71116   1.293   9.582   7.508 -0.0354 -0.4444  0.2821
23513SOL    HW171117   1.282   9.558   7.600 -1.5888 -0.1776  0.1884
23513SOL    HW271118   1.207   9.613   7.481  0.6582  0.4450 -0.9901
23514SOL     OW71119   5.458   1.341   7.272  0.2389  0.3168  0.6821
23514SOL    HW171120   5.510   1.419   7.251  1.4663 -0.5209  0.4289
23514SOL    HW271121   5.517   1.288   7.326 -0.2616 -0.7823  0.1766
23515SOL     OW71122   9.782   0.751   9.257 -0.1610 -0.2203  0.3494
23515SOL    HW171123   9.834   0.820   9.216  1.1045 -1.2347  0.1882
23515SOL    HW271124   9.762   0.690   9.186 -2.2622  0.5053  0.2395
23516SOL     OW71125   6.241   1.976   2.010  0.2480 -0.5606  0.2829
23516SOL    HW171126   6.294   2.049   1.977 -0.3408  0.1970  0.9637
23516SOL    HW271127   6.251   1.980   2.105 -0.6009 -0.7240  0.3914
23517SOL     OW71128   1.395   2.148   1.663 -0.0359  0.4761  0.9240
23517SOL    HW171129   1.316   2.198   1.686 -0.1219 -0.2664  2.3251
23517SOL    HW271130   1.409   2.089   1.737  1.2726 -0.1109  0.2442
23518SOL     OW71131   5.635   3.825   1.353 -0.0196 -0.4097 -0.2813
23518SOL    HW171132   5.549   3.861   1.374 -0.0716 -0.9423  0.4802
23518SOL    HW271133   5.679   3.894   1.303 -0.7943 -0.0410 -0.4703
23519SOL     OW71134   4.851   3.048   7.139 -0.1620 -0.2773  0.0860
23519SOL    HW171135   4.763   3.017   7.120  0.2299 -0.6325 -1.2869
23519SOL    HW271136   4.883   2.988   7.207 -0.5421 -0.9170 -0.2867
23520SOL     OW71137   1.981   5.006   8.884  0.4445  0.3387 -0.1512
23520SOL    HW171138   1.979   5.101   8.872 -0.2833  0.3582  0.0752
23520SOL    HW271139   1.911   4.989   8.947  1.3629 -0.2159  0.7443
23521SOL     OW71140   4.440   5.284   6.264  0.3443  0.4628  0.0743
23521SOL    HW171141   4.379   5.221   6.303 -0.5020  0.8311 -0.6219
23521SOL    HW271142   4.508   5.230   6.224  1.2388  0.0729  2.0099
23522SOL     OW71143   1.553   7.154   2.222 -0.0980 -0.8939 -0.0230
23522SOL    HW171144   1.484   7.192   2.168 -1.2942 -1.1336  1.2482
23522SOL    HW271145   1.587   7.228   2.272 -0.2550 -0.9531  0.1778
23523SOL     OW71146   3.070   0.922   4.729 -0.2809  0.1551 -0.1574
23523SOL    HW171147   3.031   0.873   4.801  0.1209  0.5270  0.3212
23523SOL    HW271148   3.117   0.855   4.678  0.4731  0.0638  0.6310
23524SOL     OW71149   6.116   1.353   1.636  0.1208 -0.2821  0.0796
23524SOL    HW171150   6.022   1.335   1.637  0.1295 -0.3541 -0.2508
23524SOL    HW271151   6.157   1.267   1.631  0.1679 -0.2000 -1.3019
23525SOL     OW71152   3.804   0.883   1.550  0.0428 -0.7585  0.0524
23525SOL    HW171153   3.818   0.936   1.628 -1.1022 -1.3722  0.6994
23525SOL    HW271154   3.885   0.893   1.500  1.6007 -1.7948  2.1784
23526SOL     OW71155   2.514   5.038   7.586  0.1406  0.7618 -0.1978
23526SOL    HW171156   2.569   5.116   7.582  0.9536  0.2556  0.6815
23526SOL    HW271157   2.487   5.022   7.495  1.7684  0.8016 -0.7056
23527SOL     OW71158   4.572   6.357   3.072  0.2804 -0.1500  0.4618
23527SOL    HW171159   4.594   6.347   2.979 -1.7852 -0.3098 -0.0576
23527SOL    HW271160   4.619   6.286   3.116  0.6326 -0.5766 -0.5789
23528SOL     OW71161   0.878   1.258   5.584  0.1660 -0.4588 -0.2528
23528SOL    HW171162   0.945   1.266   5.651  0.5696 -2.4332 -0.3482
23528SOL    HW271163   0.926   1.252   5.502  0.0016 -2.7693 -0.2458
23529SOL     OW71164   4.240   8.027   0.287 -0.2800 -0.9427  0.0714
23529SOL    HW171165   4.294   8.097   0.250 -1.4125 -1.4423 -2.7636
23529SOL    HW271166   4.300   7.952   0.295  0.0834 -0.7084 -0.4199
23530SOL     OW71167   7.372   0.259   6.897  0.6766  0.1312 -0.4721
23530SOL    HW171168   7.429   0.336   6.890  0.8388  0.0533 -0.0414
23530SOL    HW271169   7.316   0.278   6.973 -0.6888  0.7396 -1.5770
23531SOL     OW71170   2.389   5.625   9.687  0.5470  0.4851  0.6375
23531SOL    HW171171   2.377   5.590   9.776 -1.1039 -1.9388 -0.4143
23531SOL    HW271172   2.472   5.589   9.658  0.8732  0.9163  1.0127
23532SOL     OW71173   9.790   0.675   3.574  0.7205 -0.2759  0.4504
23532SOL    HW171174   9.883   0.672   3.597  1.1762  0.4471 -1.1798
23532SOL    HW271175   9.765   0.767   3.584  0.3317 -0.3641  0.3098
23533SOL     OW71176   7.788   9.114   2.095  0.4181 -0.0452  0.0957
23533SOL    HW171177   7.733   9.108   2.017  1.7891 -3.1234 -0.7851
23533SOL    HW271178   7.748   9.054   2.157  0.5149  0.8155  1.0127
23534SOL     OW71179   1.850   4.899   7.916 -0.3016 -0.6554  0.4580
23534SOL    HW171180   1.881   4.886   7.826  0.0416 -0.3455  0.5302
23534SOL    HW271181   1.881   4.986   7.940 -0.6175 -0.6296  0.7892
23535SOL     OW71182   1.508   4.868   6.580 -0.1110 -0.4310 -0.5008
23535SOL    HW171183   1.431   4.851   6.633  0.1002 -0.1341 -0.0933
23535SOL    HW271184   1.582   4.841   6.636  0.0980 -0.3592 -0.7397
23536SOL     OW71185   5.759   2.841   3.987  0.0652  0.2836  0.2587
23536SOL    HW171186   5.694   2.882   3.930  0.9012  1.5739  0.1814
23536SOL    HW271187   5.737   2.874   4.075  0.3772  0.4224  0.2860
23537SOL     OW71188   6.503   8.849   5.359  0.3260 -0.8050  0.1221
23537SOL    HW171189   6.443   8.920   5.382  1.9682  0.1153  1.8455
23537SOL    HW271190   6.554   8.884   5.285  0.7650 -0.3595  0.6211
23538SOL     OW71191   9.647   6.129   1.270 -0.6185 -0.4312 -0.4629
23538SOL    HW171192   9.572   6.088   1.226 -1.9230  0.8393  0.4674
23538SOL    HW271193   9.651   6.217   1.234 -0.6024  0.0368  0.6353
23539SOL     OW71194   3.445   4.244   0.982  0.1146  0.6789  0.0340
23539SOL    HW171195   3.453   4.312   1.049 -3.1689  0.6683  0.6338
23539SOL    HW271196   3.375   4.275   0.925 -0.6587 -1.6148 -0.3848
23540SOL     OW71197   2.106   6.336   1.164  0.0654  0.7532  0.1368
23540SOL    HW171198   2.091   6.392   1.088  2.2520  0.8595 -0.2987
23540SOL    HW271199   2.102   6.247   1.129 -0.9900  0.7158  0.3349
23541SOL     OW71200   1.552   2.252   7.591  0.4651 -0.4635  0.7435
23541SOL    HW171201   1.481   2.248   7.526  1.4904  1.3884 -0.6154
23541SOL    HW271202   1.527   2.325   7.648  2.0796  1.5599 -0.9424
23542SOL     OW71203   4.419   5.139   9.546  0.8488 -0.2048  0.0432
23542SOL    HW171204   4.396   5.066   9.604 -0.5730  0.7099  0.6885
23542SOL    HW271205   4.515   5.142   9.548  0.8693 -0.9541  1.4027
23543SOL     OW71206   1.739   6.211   4.246 -0.0719 -0.5183 -0.2318
23543SOL    HW171207   1.682   6.167   4.309  0.9372 -0.5168  0.7265
23543SOL    HW271208   1.828   6.190   4.276  0.5419 -2.3891 -2.9386
23544SOL     OW71209   8.286   0.100   2.074  1.0271  0.1819 -0.0262
23544SOL    HW171210   8.227   0.174   2.091  1.1467  0.3351 -0.2726
23544SOL    HW271211   8.311   0.110   1.982  0.1796 -0.7763 -0.3901
23545SOL     OW71212   0.344   5.297   0.932 -0.3367  0.2115  0.2636
23545SOL    HW171213   0.398   5.227   0.895 -1.4639 -0.9997  0.8237
23545SOL    HW271214   0.403   5.343   0.992  0.4069 -0.2951 -0.0651
23546SOL     OW71215   7.407   6.703   6.726 -0.2218  0.1021  0.0322
23546SOL    HW171216   7.485   6.698   6.671 -1.6420  1.9782 -2.4016
23546SOL    HW271217   7.401   6.795   6.752 -1.2471 -0.1432  0.7559
23547SOL     OW71218   7.524   4.203   8.361 -0.0706 -0.0154 -0.0929
23547SOL    HW171219   7.519   4.110   8.338 -0.4151 -0.0829  0.2408
23547SOL    HW271220   7.453   4.216   8.424  0.8730  0.1602  0.9626
23548SOL     OW71221   2.049   1.444   6.040  0.6576  0.2323  0.1621
23548SOL    HW171222   1.967   1.433   5.992  1.3854  1.2132 -1.3928
23548SOL    HW271223   2.039   1.529   6.084  0.6189  0.0745  0.4616
23549SOL     OW71224   3.870   9.429   9.493 -0.7854 -0.7031 -0.2054
23549SOL    HW171225   3.932   9.436   9.566  0.2969 -0.4972 -1.1038
23549SOL    HW271226   3.808   9.362   9.520 -1.6397  0.8074  1.7541
23550SOL     OW71227   3.440   2.395   1.176  0.0985 -0.4414 -0.2469
23550SOL    HW171228   3.360   2.378   1.127 -0.7634  0.0413  0.9391
23550SOL    HW271229   3.420   2.473   1.228  1.0732 -0.7604  0.6487
23551SOL     OW71230   6.460   0.243   2.376 -0.3867  0.3570 -0.0745
23551SOL    HW171231   6.550   0.219   2.399 -0.0203  0.2812 -1.5298
23551SOL    HW271232   6.408   0.210   2.449  0.6308 -0.7084  0.2054
23552SOL     OW71233   7.889   8.647   2.326 -0.1984 -0.0736 -0.6465
23552SOL    HW171234   7.834   8.575   2.357 -1.0763  0.1302 -1.6825
23552SOL    HW271235   7.956   8.604   2.272 -0.2170 -0.1768 -0.5880
23553SOL     OW71236   7.062   5.405   3.529 -0.2915 -0.0845  0.3304
23553SOL    HW171237   7.118   5.437   3.459 -0.2320 -0.0834  0.3779
23553SOL    HW271238   7.004   5.479   3.549  0.3909  0.2963  1.0022
23554SOL     OW71239   2.921   0.239   7.362  0.2609 -0.3965 -0.2448
23554SOL    HW171240   2.998   0.293   7.346  0.5780 -0.7110  0.2049
23554SOL    HW271241   2.861   0.296   7.409 -0.2224  0.1820 -1.5167
23555SOL     OW71242   3.868   9.604   1.364  0.5360  0.0117  0.0794
23555SOL    HW171243   3.868   9.666   1.437  1.4818 -1.6641  1.6188
23555SOL    HW271244   3.942   9.546   1.383 -0.4893 -1.7642 -1.0775
23556SOL     OW71245   6.468   2.432   4.920 -0.0644 -0.3697  0.5160
23556SOL    HW171246   6.409   2.503   4.943 -1.6424 -1.1284 -0.9545
23556SOL    HW271247   6.427   2.353   4.956  0.0221 -0.9135 -0.5249
23557SOL     OW71248   5.954   6.886   5.732 -0.1277 -0.8086  0.0564
23557SOL    HW171249   5.959   6.897   5.637  0.1168  1.3033  0.2655
23557SOL    HW271250   5.996   6.801   5.748 -1.4836 -1.9095 -1.8087
23558SOL     OW71251   9.663   3.051   9.892 -0.2793  0.2673 -0.2350
23558SOL    HW171252   9.589   3.099   9.929  0.1583  0.7021  0.0939
23558SOL    HW271253   9.647   3.053   9.797 -0.5974  0.5074 -0.1786
23559SOL     OW71254   1.113   5.280   1.379 -0.5651 -0.2208 -0.0504
23559SOL    HW171255   1.057   5.203   1.393  0.3819 -0.9087  0.0486
23559SOL    HW271256   1.062   5.353   1.414 -1.8630 -0.6545 -0.9501
23560SOL     OW71257   0.981   8.455   3.589  0.6288 -0.7716 -0.5587
23560SOL    HW171258   1.064   8.495   3.565  0.8597 -0.7739  0.2112
23560SOL    HW271259   1.006   8.379   3.642  0.1190  0.5088  1.6370
23561SOL     OW71260   6.059   9.338   3.254 -0.3273  0.1240  0.0366
23561SOL    HW171261   6.151   9.320   3.272 -0.6657 -1.3427  0.4051
23561SOL    HW271262   6.016   9.252   3.256 -1.6856  0.7596 -0.2594
23562SOL     OW71263   6.739   4.022   2.607  0.6557 -0.1365  0.1319
23562SOL    HW171264   6.656   4.023   2.655  1.1725 -0.4457  1.0751
23562SOL    HW271265   6.788   4.096   2.642  1.3745 -0.8682  0.7204
23563SOL     OW71266   7.356   0.803   2.762  0.2471 -0.1994  0.4006
23563SOL    HW171267   7.431   0.753   2.794  1.8297 -0.5976 -3.3161
23563SOL    HW271268   7.382   0.895   2.771  0.1978 -0.2558  1.1551
23564SOL     OW71269   0.829   0.980   7.140 -0.0396  0.4003  0.6409
23564SOL    HW171270   0.785   0.900   7.113 -3.8387  2.9076 -1.5343
23564SOL    HW271271   0.901   0.990   7.078 -0.0616 -0.8843  0.3865
23565SOL     OW71272   1.443   6.742   8.248  0.3500  0.1082  0.1851
23565SOL    HW171273   1.487   6.717   8.330 -1.0929 -0.5754  0.7880
23565SOL    HW271274   1.510   6.789   8.199  1.5569 -0.3282  1.3335
23566SOL     OW71275   1.163   7.139   6.327  0.0697 -0.2781  0.2833
23566SOL    HW171276   1.249   7.173   6.302 -0.3799  0.5453 -0.1886
23566SOL    HW271277   1.181   7.052   6.363  0.9339 -0.7646 -1.2346
23567SOL     OW71278   4.680   3.479   9.335  0.9406  0.4364 -0.1558
23567SOL    HW171279   4.681   3.407   9.273 -0.9632  0.3393 -0.1511
23567SOL    HW271280   4.638   3.551   9.287  0.5543  0.7354  0.6028
23568SOL     OW71281   5.883   8.717   6.873  0.3718 -0.0754 -0.3568
23568SOL    HW171282   5.936   8.672   6.807  0.2460  1.7051 -1.7258
23568SOL    HW271283   5.793   8.696   6.849  0.3142  0.8236 -0.9746
23569SOL     OW71284   0.138   9.150   9.181 -0.3665  0.2454 -0.1317
23569SOL    HW171285   0.067   9.087   9.196 -0.3048  0.6380  2.3285
23569SOL    HW271286   0.103   9.212   9.117 -1.5425 -0.6044 -0.3404
23570SOL     OW71287   9.411   6.989   4.384 -0.0038 -0.0785  0.4891
23570SOL    HW171288   9.431   7.042   4.306  0.8626 -0.3864  0.4922
23570SOL    HW271289   9.321   6.959   4.370  0.2466 -0.3911 -0.5488
23571SOL     OW71290   6.036   1.614   0.812  0.3597 -0.6337  0.4662
23571SOL    HW171291   6.118   1.600   0.765 -1.1530 -2.1442 -1.9487
23571SOL    HW271292   5.989   1.678   0.759 -1.3195 -2.2398 -0.0856
23572SOL     OW71293   2.632   1.274   2.123 -0.4632  0.3730  0.3982
23572SOL    HW171294   2.634   1.363   2.157 -0.3976  0.5997 -0.1889
23572SOL    HW271295   2.722   1.242   2.134 -0.4180  0.4801  0.3350
23573SOL     OW71296   3.706   0.546   7.542 -0.3862 -0.0493 -0.5876
23573SOL    HW171297   3.689   0.571   7.633  1.7487 -1.6877  0.3489
23573SOL    HW271298   3.797   0.516   7.543 -0.3948 -0.3307 -3.2442
23574SOL     OW71299   3.374   0.969   7.477  0.5171 -0.0374  0.1139
23574SOL    HW171300   3.343   0.882   7.503 -1.2091  0.3375 -0.5641
23574SOL    HW271301   3.399   0.959   7.385  0.0058  0.2382 -0.0613
23575SOL     OW71302   2.605   6.586   7.681  0.3700  0.0566  0.2081
23575SOL    HW171303   2.514   6.607   7.659 -0.3979 -1.7040  1.4705
23575SOL    HW271304   2.656   6.653   7.636 -1.6843  2.9312  1.7446
23576SOL     OW71305   5.276   5.445   7.390  0.6562 -0.0515  0.2919
23576SOL    HW171306   5.345   5.418   7.451 -1.4369 -0.2243  2.7611
23576SOL    HW271307   5.269   5.373   7.327  1.3597 -0.9524  1.2168
23577SOL     OW71308   9.748   2.211   3.526  0.0779 -0.1004 -0.5957
23577SOL    HW171309   9.764   2.144   3.460  1.1326  1.6096 -2.1637
23577SOL    HW271310   9.659   2.243   3.508  0.5410  0.6893 -1.5121
23578SOL     OW71311   2.052   6.172   3.287 -0.2682 -0.1488  0.0188
23578SOL    HW171312   2.028   6.094   3.237 -0.4287  0.7825 -1.4038
23578SOL    HW271313   2.065   6.139   3.376 -1.4603 -1.6068 -0.2884
23579SOL     OW71314   2.724   8.600   7.577  0.4044  0.4282  0.2337
23579SOL    HW171315   2.781   8.523   7.582  0.0097 -0.0054 -1.3258
23579SOL    HW271316   2.784   8.674   7.571  0.8847 -0.0540 -1.8277
23580SOL     OW71317   2.512   8.770   0.248  0.7996  0.3893  0.3814
23580SOL    HW171318   2.434   8.787   0.195 -0.1017 -2.0528  0.7931
23580SOL    HW271319   2.534   8.855   0.285  0.1489  1.7344 -2.1191
23581SOL     OW71320   5.758   8.792   2.319  0.3952  0.0192 -0.2785
23581SOL    HW171321   5.753   8.847   2.397 -1.6685 -2.1571  1.2978
23581SOL    HW271322   5.816   8.839   2.260  1.0650  2.4008  2.0590
23582SOL     OW71323   7.870   7.355   1.974 -0.0150  0.1831  0.3044
23582SOL    HW171324   7.862   7.283   1.911  0.7666  0.4550 -0.1293
23582SOL    HW271325   7.835   7.321   2.056 -2.0218  0.1497 -0.5197
23583SOL     OW71326   6.594   9.876   4.949  0.2980 -0.6749  0.1887
23583SOL    HW171327   6.558   9.932   5.017  0.5172 -0.3348  0.0253
23583SOL    HW271328   6.547   9.793   4.959  0.9284 -0.9067  1.2907
23584SOL     OW71329   8.497   3.011   9.721 -0.0787  0.2452 -0.1728
23584SOL    HW171330   8.561   3.071   9.682 -0.3524  0.9828  0.4735
23584SOL    HW271331   8.423   3.012   9.661 -1.0093  2.3346  0.8966
23585SOL     OW71332   1.889   6.503   8.677  0.3324 -0.6324 -0.5065
23585SOL    HW171333   1.973   6.506   8.722  0.2129  0.1210 -0.3191
23585SOL    HW271334   1.830   6.552   8.733  0.0060 -0.3131 -1.1153
23586SOL     OW71335   9.358   9.279   1.692  0.0200 -0.2860 -0.3331
23586SOL    HW171336   9.329   9.257   1.603  0.1624 -0.5400 -0.3185
23586SOL    HW271337   9.308   9.221   1.749  0.7035 -0.8830 -0.3233
23587SOL     OW71338   0.494   8.392   7.044 -0.0076  0.4408  0.1114
23587SOL    HW171339   0.458   8.442   7.117 -0.1123 -1.1999  1.2275
23587SOL    HW271340   0.583   8.425   7.034  0.1548  0.3862  1.2710
23588SOL     OW71341   4.881   8.488   5.366  0.1485  0.1004  0.1258
23588SOL    HW171342   4.911   8.398   5.376  1.3207  0.4528 -0.0830
23588SOL    HW271343   4.794   8.480   5.326 -0.2252 -0.9580  1.0865
23589SOL     OW71344   7.674   5.018   2.632 -0.1407 -0.0377 -0.2007
23589SOL    HW171345   7.758   5.045   2.596  0.1093 -2.0878 -1.3086
23589SOL    HW271346   7.621   4.996   2.555 -2.0457  2.0319  0.4220
23590SOL     OW71347   8.320   3.200   7.796 -0.3011  0.4234 -0.1521
23590SOL    HW171348   8.389   3.266   7.804  0.6687 -0.4275 -1.2257
23590SOL    HW271349   8.298   3.177   7.886  1.6762 -0.1382  0.2296
23591SOL     OW71350   8.840   9.926   0.508  0.1801 -0.7735 -0.3441
23591SOL    HW171351   8.874   9.846   0.549  1.4379 -0.1449 -0.1204
23591SOL    HW271352   8.906   9.993   0.527 -0.6578  0.2346 -0.8713
23592SOL     OW71353   1.846   9.158   3.803 -0.2134  0.0881  0.2542
23592SOL    HW171354   1.868   9.240   3.757 -0.5818  0.8576  1.4053
23592SOL    HW271355   1.806   9.104   3.735  1.3414  0.2735 -0.8844
23593SOL     OW71356   6.799   1.126   3.560 -0.3885 -1.0859 -0.5117
23593SOL    HW171357   6.866   1.185   3.595 -2.3091  2.0304 -1.6840
23593SOL    HW271358   6.749   1.097   3.637  1.7203 -2.9166  0.2952
23594SOL     OW71359   2.217   1.832   0.409  0.0280 -0.6222  0.4734
23594SOL    HW171360   2.264   1.783   0.477  0.0627 -0.6403  0.4369
23594SOL    HW271361   2.206   1.920   0.445  2.3750  0.1632 -0.5199
23595SOL     OW71362   1.234   3.683   4.128 -0.1435 -0.0489 -0.0878
23595SOL    HW171363   1.238   3.762   4.074 -0.5552  0.2255  0.2798
23595SOL    HW271364   1.142   3.676   4.155 -0.5532 -1.7476 -1.7291
23596SOL     OW71365   2.020   8.061   0.708  0.2841 -0.2899  0.4132
23596SOL    HW171366   2.025   8.111   0.789 -0.0085  0.9573 -0.3275
23596SOL    HW271367   1.934   8.080   0.672 -0.0562 -1.7539  0.3626
23597SOL     OW71368   9.064   0.139   0.330  0.2070  0.6699  0.5123
23597SOL    HW171369   9.121   0.207   0.294  0.7374 -0.2644 -0.4853
23597SOL    HW271370   8.975   0.169   0.311  0.4351  1.1394  0.1735
23598SOL     OW71371   5.180   8.612   8.250 -0.3833  0.4626 -0.0057
23598SOL    HW171372   5.115   8.573   8.190  0.4437  0.0758 -0.6721
23598SOL    HW271373   5.152   8.583   8.337 -0.9515  0.0760 -0.3078
23599SOL     OW71374   0.998   5.054   8.464  0.6419 -0.1673  0.1995
23599SOL    HW171375   1.002   5.058   8.368  1.8488  1.1705  0.2672
23599SOL    HW271376   0.991   4.961   8.484  2.5035 -0.6587 -1.1482
23600SOL     OW71377   8.880   3.384   0.841 -0.3272 -0.3275 -0.2883
23600SOL    HW171378   8.934   3.439   0.784 -0.3451  0.5204  0.4886
23600SOL    HW271379   8.790   3.398   0.810 -0.3807  0.4569  0.1952
23601SOL     OW71380   8.002   2.475   0.465 -0.3324  0.7114  0.5636
23601SOL    HW171381   8.040   2.522   0.540 -0.0674 -0.0513  0.9186
23601SOL    HW271382   8.077   2.456   0.408 -0.1669 -0.6689  1.1962
23602SOL     OW71383   8.658   6.627   5.973 -0.1502 -0.0937 -0.3009
23602SOL    HW171384   8.736   6.570   5.967  1.2653  1.7270 -0.1520
23602SOL    HW271385   8.629   6.636   5.882 -1.5643 -2.4885 -0.1686
23603SOL     OW71386   9.600   8.187   4.994 -0.2679 -0.4202 -0.2893
23603SOL    HW171387   9.568   8.272   4.966  0.1897 -0.6067 -1.4446
23603SOL    HW271388   9.586   8.185   5.089 -2.2972  0.0614 -0.5436
23604SOL     OW71389   7.170   4.338   0.169 -0.0579  0.0265 -0.0009
23604SOL    HW171390   7.228   4.404   0.131 -0.8754  0.4989 -0.4556
23604SOL    HW271391   7.087   4.383   0.181 -0.7642 -1.0219 -0.7347
23605SOL     OW71392   7.526   0.778   3.776  0.1853  0.5328 -0.2533
23605SOL    HW171393   7.593   0.744   3.716  0.0789 -1.7009  0.7736
23605SOL    HW271394   7.570   0.784   3.860 -0.0347  2.3523 -0.2280
23606SOL     OW71395   8.493   2.521   0.613 -0.0382 -0.3376  0.0477
23606SOL    HW171396   8.409   2.476   0.607 -0.0851 -0.7119  2.5421
23606SOL    HW271397   8.492   2.584   0.541 -2.3391 -0.5123 -0.1303
23607SOL     OW71398   7.277   7.837   3.838  0.0167 -0.3083 -0.2279
23607SOL    HW171399   7.261   7.815   3.746 -1.6457 -0.0424 -0.0378
23607SOL    HW271400   7.239   7.924   3.848  1.2526  0.1733  0.4454
23608SOL     OW71401   3.520   8.917   4.612  0.3822  0.4390  1.1826
23608SOL    HW171402   3.524   8.868   4.695  1.1249 -0.2057  0.7770
23608SOL    HW271403   3.427   8.939   4.603 -0.4149 -2.7574  0.3539
23609SOL     OW71404   8.693   9.443   5.109  0.6632  0.0835 -0.4676
23609SOL    HW171405   8.694   9.535   5.137  0.9974  0.2549 -1.0331
23609SOL    HW271406   8.783   9.414   5.118  0.7336  0.0744 -1.1308
23610SOL     OW71407   8.341   1.016   2.330 -0.1962  0.8159 -0.2724
23610SOL    HW171408   8.303   1.014   2.417  0.7063  1.0430  0.1337
23610SOL    HW271409   8.277   0.970   2.275  0.4632 -1.8680  1.0123
23611SOL     OW71410   4.326   5.510   6.613  0.0692  0.0662 -0.6214
23611SOL    HW171411   4.381   5.508   6.534  1.4348  0.6619  0.2780
23611SOL    HW271412   4.328   5.419   6.645  0.9669  0.1762 -0.3268
23612SOL     OW71413   5.409   8.559   4.714 -0.0758 -0.0271 -0.5342
23612SOL    HW171414   5.400   8.485   4.654 -0.9032 -0.1341 -0.2906
23612SOL    HW271415   5.419   8.519   4.800  1.2969  0.1220 -0.6004
23613SOL     OW71416   2.144   8.408   5.910 -0.5684  0.5059 -0.2681
23613SOL    HW171417   2.180   8.468   5.974 -1.3537  1.1654 -0.4362
23613SOL    HW271418   2.151   8.321   5.951 -0.6051  0.8609  0.4982
23614SOL     OW71419   2.418   6.727   7.161 -0.1640 -0.2984  0.0799
23614SOL    HW171420   2.512   6.720   7.143 -0.0914 -0.5563  0.5481
23614SOL    HW271421   2.412   6.795   7.229 -0.2774 -0.5955  0.3670
23615SOL     OW71422   7.168   1.993   1.873  0.0894 -0.1441  0.5371
23615SOL    HW171423   7.138   1.912   1.915 -0.2758  0.3381  1.2246
23615SOL    HW271424   7.250   1.968   1.830 -0.3974 -1.0570  0.0986
23616SOL     OW71425   6.218   6.441   1.731 -0.1559  0.4480 -0.1075
23616SOL    HW171426   6.216   6.472   1.640  0.6718 -0.9013 -0.6155
23616SOL    HW271427   6.296   6.386   1.736 -1.9449 -2.2772  0.4679
23617SOL     OW71428   9.546   7.209   2.198  0.3759 -0.5511  0.1768
23617SOL    HW171429   9.641   7.218   2.196  0.5613 -2.1705 -0.6872
23617SOL    HW271430   9.516   7.252   2.118  0.5269 -1.1503 -0.2106
23618SOL     OW71431   7.881   6.756   0.572 -0.0977  0.0122  0.3966
23618SOL    HW171432   7.928   6.692   0.518 -0.0306  1.5822 -1.5040
23618SOL    HW271433   7.811   6.705   0.613 -0.0252 -1.3079 -1.0240
23619SOL     OW71434   9.911   8.265   2.567 -0.2466  0.1744  0.0688
23619SOL    HW171435   9.985   8.208   2.588 -1.1638 -0.5154  1.6641
23619SOL    HW271436   9.836   8.221   2.607 -1.4065  1.1927 -0.9341
23620SOL     OW71437   1.363   8.587   6.330  0.0757  0.1531 -0.0174
23620SOL    HW171438   1.342   8.645   6.403  0.8684 -0.0012  0.3484
23620SOL    HW271439   1.278   8.560   6.295 -0.3200 -0.1232  1.1251
23621SOL     OW71440   6.579   4.747   6.782 -0.1284  0.1356 -0.0069
23621SOL    HW171441   6.585   4.842   6.774 -1.2364  0.3804  1.6247
23621SOL    HW271442   6.634   4.713   6.710  0.6566  1.9820 -0.3312
23622SOL     OW71443   5.531   0.153   4.104  0.2392  0.0904 -0.0103
23622SOL    HW171444   5.446   0.138   4.061  0.0216 -0.1537  0.4945
23622SOL    HW271445   5.583   0.077   4.081 -0.2066 -0.5242  0.9438
23623SOL     OW71446   7.835   8.571   6.778  0.1634 -0.3975 -0.1998
23623SOL    HW171447   7.740   8.569   6.765 -0.0273 -2.0741  1.1302
23623SOL    HW271448   7.852   8.657   6.818 -0.9216 -0.4620  0.4240
23624SOL     OW71449   3.568   6.897   0.287  0.4138 -0.0214 -0.2675
23624SOL    HW171450   3.634   6.879   0.220  0.7119 -0.8689  0.2371
23624SOL    HW271451   3.602   6.854   0.366 -0.4766  0.0035  0.1412
23625SOL     OW71452   0.818   8.495   8.840 -0.3777  0.0268 -0.2712
23625SOL    HW171453   0.853   8.505   8.752 -1.1401  0.3740 -0.5458
23625SOL    HW271454   0.895   8.501   8.897 -0.0730  1.8223 -0.7869
23626SOL     OW71455   4.677   6.385   0.953  0.0438  0.7591  0.0623
23626SOL    HW171456   4.667   6.330   1.030 -0.5477  0.3296 -0.3109
23626SOL    HW271457   4.588   6.392   0.917  0.3029  0.9956 -0.5491
23627SOL     OW71458   8.677   8.148   1.526 -0.3617  0.1936  0.0967
23627SOL    HW171459   8.766   8.125   1.550  0.3820 -0.1108 -2.6032
23627SOL    HW271460   8.646   8.073   1.475 -2.8141 -0.4465  2.3377
23628SOL     OW71461   8.941   9.446   8.444  0.2111 -0.5481 -0.1705
23628SOL    HW171462   8.986   9.407   8.519 -0.0667  0.4170  0.5207
23628SOL    HW271463   8.848   9.441   8.467  0.1730  0.5075 -0.0585
23629SOL     OW71464   9.442   0.551   2.659  0.8894  0.1096 -0.2707
23629SOL    HW171465   9.406   0.639   2.670  1.6551  0.4244 -0.2456
23629SOL    HW271466   9.475   0.528   2.746 -2.2570 -1.5658  0.6300
23630SOL     OW71467   6.971   5.438   5.844 -0.1981 -0.5310 -0.5318
23630SOL    HW171468   7.026   5.471   5.772  1.1212 -0.4144  0.4988
23630SOL    HW271469   6.953   5.515   5.898  0.4079 -0.9347  0.2711
23631SOL     OW71470   6.588   5.043   2.574  0.1541 -0.0704  0.2859
23631SOL    HW171471   6.568   5.092   2.494 -0.1806 -1.1710 -0.3260
23631SOL    HW271472   6.571   5.105   2.645 -0.9651  0.4800 -0.4274
23632SOL     OW71473   0.866   1.186   0.442 -0.6942  0.3721  0.0148
23632SOL    HW171474   0.849   1.264   0.495  1.8206  2.0659 -1.5214
23632SOL    HW271475   0.801   1.190   0.372 -0.6594  1.0134  0.0169
23633SOL     OW71476   0.160   8.587   7.457 -0.3497 -0.3508 -0.0590
23633SOL    HW171477   0.227   8.534   7.413 -1.3531 -1.0221 -0.8295
23633SOL    HW271478   0.188   8.589   7.548 -0.2177 -2.1731 -0.0138
23634SOL     OW71479   8.039   0.822   1.253  0.4725  0.1835  0.9441
23634SOL    HW171480   8.124   0.824   1.209  0.5927  1.2464  1.1802
23634SOL    HW271481   7.985   0.765   1.199  1.0931  0.1642  0.3243
23635SOL     OW71482   7.853   6.881   4.651 -0.4428  0.2495  0.1963
23635SOL    HW171483   7.813   6.799   4.680 -0.8145  0.8477  1.4421
23635SOL    HW271484   7.779   6.934   4.620 -0.6266  1.2067  2.1312
23636SOL     OW71485   8.056   6.528   3.425 -0.0277 -0.0094  0.3828
23636SOL    HW171486   8.145   6.499   3.445  0.7850  2.6414  1.0909
23636SOL    HW271487   8.007   6.513   3.506 -0.1552 -1.0915  0.1237
23637SOL     OW71488   6.851   5.721   2.621 -0.2630  0.5776  0.2691
23637SOL    HW171489   6.787   5.738   2.691 -0.9683 -0.7216 -0.0146
23637SOL    HW271490   6.799   5.686   2.549  0.3833  2.3502 -1.1378
23638SOL     OW71491   9.765   0.424   1.336  0.7379 -0.2436 -0.3727
23638SOL    HW171492   9.782   0.330   1.344  0.0297 -0.3855 -0.4923
23638SOL    HW271493   9.702   0.443   1.405  1.0649  0.1995 -0.1878
23639SOL     OW71494   4.222   7.377   0.575 -0.1816  0.3109  0.0828
23639SOL    HW171495   4.129   7.353   0.583 -0.0790 -0.0272  0.2891
23639SOL    HW271496   4.233   7.400   0.483  0.2038 -2.5928 -0.7005
23640SOL     OW71497   6.280   1.724   8.094  0.1746 -0.1896 -0.0221
23640SOL    HW171498   6.185   1.723   8.083  0.2247  2.2096 -1.6113
23640SOL    HW271499   6.300   1.816   8.111  2.0934 -0.9163  2.0992
23641SOL     OW71500   4.443   2.948   4.213  0.4726 -0.2270  0.1842
23641SOL    HW171501   4.356   2.956   4.252  0.6032  2.4622  0.1355
23641SOL    HW271502   4.467   2.856   4.226 -1.3210 -0.4754  2.4325
23642SOL     OW71503   7.302   5.555   8.501 -0.2946 -0.7518  0.1198
23642SOL    HW171504   7.373   5.542   8.438 -0.5633 -1.9400  0.0256
23642SOL    HW271505   7.338   5.616   8.565 -0.1123  0.7124 -1.3086
23643SOL     OW71506   6.566   3.680   8.228 -0.5881 -0.0536  0.1487
23643SOL    HW171507   6.603   3.637   8.305 -1.5206 -0.9503  0.1133
23643SOL    HW271508   6.585   3.773   8.240  0.6512 -0.3657  0.6807
23644SOL     OW71509   0.771   8.753   0.641  0.5747  0.0146  0.1031
23644SOL    HW171510   0.700   8.814   0.623  0.2047 -0.1177  1.0380
23644SOL    HW271511   0.829   8.800   0.701  0.9806 -0.0886 -0.1989
23645SOL     OW71512   6.723   5.003   3.677  0.9027 -0.0479  0.1822
23645SOL    HW171513   6.741   4.975   3.587 -0.4489  0.5353 -0.2871
23645SOL    HW271514   6.810   5.008   3.718  1.4764 -1.1585 -0.8244
23646SOL     OW71515   0.254   9.439   8.262 -0.5437 -0.4247 -0.1449
23646SOL    HW171516   0.221   9.371   8.320 -0.3310 -0.7469 -0.3983
23646SOL    HW271517   0.346   9.416   8.248  0.3597  1.4786  2.0533
23647SOL     OW71518   0.459   9.718   3.850 -0.3061  0.1427  0.1488
23647SOL    HW171519   0.476   9.624   3.860 -0.9528 -0.1905 -1.5603
23647SOL    HW271520   0.538   9.752   3.808 -0.8869 -0.0373 -1.1151
23648SOL     OW71521   0.853   9.671   9.972 -0.2515  0.2708  0.5112
23648SOL    HW171522   0.785   9.615   9.936  1.0365 -0.8349 -0.2370
23648SOL    HW271523   0.915   9.685   9.901 -0.1101  2.0100  0.9060
23649SOL     OW71524   5.075   7.846   7.673 -0.3061 -0.1376  0.0676
23649SOL    HW171525   5.151   7.876   7.623  0.0527 -1.6731 -0.3879
23649SOL    HW271526   5.054   7.919   7.731  1.3838  0.4251  0.0489
23650SOL     OW71527   7.172   8.236   2.557 -0.1736 -0.0530  0.1481
23650SOL    HW171528   7.220   8.154   2.543 -0.5347 -0.3056  0.3541
23650SOL    HW271529   7.129   8.224   2.642 -0.7017  0.1141 -0.0920
23651SOL     OW71530   1.080   9.860   3.609 -0.6620  0.1899 -0.5792
23651SOL    HW171531   1.004   9.867   3.551 -0.6353  1.6116 -0.4843
23651SOL    HW271532   1.053   9.907   3.689 -0.1692 -0.4725 -0.0134
23652SOL     OW71533   5.716   7.981   7.294  0.0645 -0.2503  0.2182
23652SOL    HW171534   5.774   8.032   7.238 -1.2332 -0.1603 -1.1262
23652SOL    HW271535   5.718   7.893   7.257 -0.0391 -0.4364  0.6477
23653SOL     OW71536   7.996   5.984   4.334 -0.2094  0.4374 -0.4429
23653SOL    HW171537   7.908   5.951   4.321 -0.0950  0.7364 -2.1546
23653SOL    HW271538   8.036   5.984   4.247  1.8276 -0.6024  0.4035
23654SOL     OW71539   2.278   0.915   9.675  0.1090  0.1475 -0.2367
23654SOL    HW171540   2.356   0.864   9.650 -0.1891  0.0503 -0.9878
23654SOL    HW271541   2.311   0.979   9.737  0.9994  0.7914 -1.3313
23655SOL     OW71542   1.821   9.376   5.892  0.7229  0.4089 -0.5160
23655SOL    HW171543   1.799   9.438   5.822 -0.4518  0.2751 -0.2835
23655SOL    HW271544   1.737   9.350   5.928  1.3082  0.2742  0.7892
23656SOL     OW71545   1.593   6.494   4.667 -0.7934  0.5088 -0.2168
23656SOL    HW171546   1.653   6.453   4.605  0.9924  2.4794  0.0707
23656SOL    HW271547   1.598   6.439   4.745  0.9553  0.7840 -0.0906
23657SOL     OW71548   4.401   2.561   6.673  0.0674 -0.6853  0.1064
23657SOL    HW171549   4.474   2.508   6.705  0.6274 -0.1523 -0.2616
23657SOL    HW271550   4.355   2.503   6.612  0.1165 -1.0625  0.4210
23658SOL     OW71551   8.810   3.713   9.030 -0.2721 -0.2476  1.0378
23658SOL    HW171552   8.767   3.629   9.017  1.0556 -0.9191  0.7116
23658SOL    HW271553   8.757   3.759   9.096 -1.6108 -0.8863  0.4206
23659SOL     OW71554   4.381   5.715   5.749  0.2942 -0.4424 -0.0674
23659SOL    HW171555   4.337   5.792   5.785 -0.1824 -0.4559 -0.6091
23659SOL    HW271556   4.327   5.641   5.779 -0.3522 -0.4287 -1.1242
23660SOL     OW71557   1.943   4.783   6.295  0.0722  0.0778 -0.3071
23660SOL    HW171558   2.030   4.814   6.268 -0.7703  2.6918 -0.3565
23660SOL    HW271559   1.903   4.860   6.336 -3.6006  0.2029 -3.6046
23661SOL     OW71560   0.917   0.301   2.793  0.1332 -0.2308  0.1909
23661SOL    HW171561   0.896   0.274   2.882 -1.3495  0.8943  0.2266
23661SOL    HW271562   1.010   0.285   2.784 -0.0422 -2.1374  1.2909
23662SOL     OW71563   1.126   5.510   5.429  0.7870 -0.2849  0.4261
23662SOL    HW171564   1.198   5.540   5.483 -1.4398  2.6064  2.0707
23662SOL    HW271565   1.051   5.506   5.488 -1.3626  1.1414 -1.9934
23663SOL     OW71566   8.597   4.751   8.774 -0.0860 -0.2656 -0.4062
23663SOL    HW171567   8.625   4.672   8.727 -0.0602  0.6870 -2.0795
23663SOL    HW271568   8.514   4.774   8.734 -0.7377 -0.1418  0.9651
23664SOL     OW71569   2.637   4.197   3.458  0.3599  0.1510  0.9979
23664SOL    HW171570   2.666   4.270   3.403  0.4170  0.4947  1.4764
23664SOL    HW271571   2.574   4.150   3.404  2.3807 -1.1038 -0.3923
23665SOL     OW71572   0.225   3.475   6.575  0.1763  0.1988 -0.7678
23665SOL    HW171573   0.232   3.504   6.665 -0.0118  0.4961 -0.8486
23665SOL    HW271574   0.263   3.546   6.523 -1.8987  1.1219 -1.0988
23666SOL     OW71575   8.129   2.241   0.591  0.6894  0.3004 -0.6303
23666SOL    HW171576   8.085   2.284   0.518 -1.5442  1.1251  1.0798
23666SOL    HW271577   8.102   2.149   0.585  2.6884 -0.2441 -2.3046
23667SOL     OW71578   6.820   7.236   5.180 -0.0483 -0.4676 -0.7812
23667SOL    HW171579   6.878   7.248   5.255 -2.2043  0.2687  0.8930
23667SOL    HW271580   6.849   7.300   5.116  0.6632  0.2426  0.2189
23668SOL     OW71581   1.295   3.441   7.664  0.0796 -0.7438 -0.3529
23668SOL    HW171582   1.201   3.445   7.646  0.1263 -0.4143 -0.5374
23668SOL    HW271583   1.324   3.532   7.657  0.0947 -0.5851  1.5092
23669SOL     OW71584   6.939   4.023   5.450  0.0401  0.0386  0.0296
23669SOL    HW171585   7.006   4.060   5.393  0.4560 -0.6647  0.0471
23669SOL    HW271586   6.948   3.928   5.440  0.0967 -0.1026  1.2179
23670SOL     OW71587   5.428   0.445   8.148 -0.1690 -0.8726 -0.5304
23670SOL    HW171588   5.344   0.439   8.103 -0.6770 -1.8401  0.4934
23670SOL    HW271589   5.428   0.371   8.209  0.5221  0.3268  0.9900
23671SOL     OW71590   3.093   8.798   0.500  0.0097  0.0473  0.0491
23671SOL    HW171591   3.036   8.806   0.576  0.5045 -0.3132  0.4670
23671SOL    HW271592   3.178   8.772   0.536 -0.0959 -1.4995 -0.7354
23672SOL     OW71593   1.080   3.565   5.576 -0.2594  0.0689  0.1128
23672SOL    HW171594   1.103   3.657   5.585 -0.4427  0.2187 -0.7882
23672SOL    HW271595   1.037   3.560   5.491 -2.7028 -0.3620  1.2876
23673SOL     OW71596   6.004   7.505   4.363  0.2826 -0.1714  0.4009
23673SOL    HW171597   6.085   7.493   4.314  0.3530 -0.5005  0.5948
23673SOL    HW271598   5.960   7.578   4.320  0.2289 -0.6169 -0.2982
23674SOL     OW71599   1.466   5.329   5.323  0.2417  0.1136  0.2541
23674SOL    HW171600   1.496   5.378   5.246  0.5513 -0.0565  0.2664
23674SOL    HW271601   1.521   5.362   5.394  0.9245 -0.7328  0.1370
23675SOL     OW71602   9.013   8.545   9.548 -0.0542  0.1414 -0.0707
23675SOL    HW171603   9.018   8.626   9.599 -2.3619  0.5186 -0.3706
23675SOL    HW271604   9.026   8.572   9.458 -1.2140  0.2379 -0.2106
23676SOL     OW71605   7.106   1.849   7.283 -0.1353  0.2205  0.0651
23676SOL    HW171606   7.087   1.940   7.303  1.7611  0.7734 -0.4393
23676SOL    HW271607   7.181   1.852   7.223 -0.4210 -1.6464 -0.4752
23677SOL     OW71608   2.728   3.760   8.085 -0.6640 -0.4519 -0.1717
23677SOL    HW171609   2.650   3.809   8.057 -0.8109 -0.3230  0.4464
23677SOL    HW271610   2.769   3.732   8.003 -0.7400  0.4454 -0.5339
23678SOL     OW71611   7.492   4.612   7.024 -0.0775 -0.0318 -0.0083
23678SOL    HW171612   7.516   4.620   7.116 -1.7279 -0.3388  0.4843
23678SOL    HW271613   7.448   4.527   7.017 -3.1579  1.4382 -0.2503
23679SOL     OW71614   6.377   8.745   6.859 -0.3754 -0.2281 -0.4654
23679SOL    HW171615   6.292   8.765   6.900 -0.6200 -2.1491  0.0734
23679SOL    HW271616   6.420   8.831   6.850 -0.7881  0.4796  2.7856
23680SOL     OW71617   5.235   7.548   4.592  0.0396  0.4364 -0.2563
23680SOL    HW171618   5.179   7.494   4.536  0.8782 -0.3613 -0.3431
23680SOL    HW271619   5.322   7.540   4.554  0.7995 -0.7762  1.5986
23681SOL     OW71620   7.326   1.267   1.912  0.1317  0.0629  0.1718
23681SOL    HW171621   7.330   1.355   1.874 -1.0153  0.1349  0.1826
23681SOL    HW271622   7.237   1.237   1.893 -0.0046 -0.4633  1.5543
23682SOL     OW71623   2.957   2.816   4.546 -1.1691  0.0511 -0.2098
23682SOL    HW171624   2.923   2.815   4.635 -0.7029 -1.5574 -0.0177
23682SOL    HW271625   2.918   2.739   4.504  0.5004 -0.6037 -0.6334
23683SOL     OW71626   0.412   8.270   0.136  0.3102  0.0975 -0.0591
23683SOL    HW171627   0.459   8.347   0.105  0.2746  0.4848  0.8148
23683SOL    HW271628   0.349   8.251   0.066  0.1555  1.0045 -0.1749
23684SOL     OW71629   5.014   6.023   5.467 -0.3583 -0.1764 -0.2724
23684SOL    HW171630   5.064   6.104   5.455 -0.1242 -0.4430 -1.1454
23684SOL    HW271631   4.999   5.991   5.378 -2.3340  0.0505 -0.0682
23685SOL     OW71632   9.200   3.350   8.193  0.0529  0.0701 -0.3962
23685SOL    HW171633   9.192   3.432   8.242  2.3942  0.7308 -0.9831
23685SOL    HW271634   9.221   3.285   8.259  0.3493  0.3827 -0.1783
23686SOL     OW71635   3.843   0.183   3.860  0.3247 -0.2150  0.3636
23686SOL    HW171636   3.917   0.231   3.820  1.7499 -0.7816  2.1958
23686SOL    HW271637   3.780   0.251   3.882  1.4317  0.6294  1.0643
23687SOL     OW71638   8.772   0.221   9.416 -0.1254  0.1775 -0.1670
23687SOL    HW171639   8.811   0.229   9.329 -0.0410 -1.3180 -0.2763
23687SOL    HW271640   8.828   0.160   9.463 -0.8826  0.0022  0.5323
23688SOL     OW71641   5.730   9.537   1.620 -0.3247 -0.2945  0.3616
23688SOL    HW171642   5.683   9.519   1.701  0.6870 -1.8868  0.6371
23688SOL    HW271643   5.758   9.451   1.588  2.6304  0.5254  0.4024
23689SOL     OW71644   9.710   4.388   1.670 -0.1180  0.1153 -0.3179
23689SOL    HW171645   9.698   4.309   1.723  0.2319  0.0615 -0.3129
23689SOL    HW271646   9.664   4.370   1.589  1.0641 -0.6444 -0.8565
23690SOL     OW71647   3.669   1.885   8.703 -0.3886 -0.0960  0.6638
23690SOL    HW171648   3.742   1.935   8.667 -0.0951 -1.8750 -1.4277
23690SOL    HW271649   3.599   1.950   8.715  0.1386  0.9624 -1.4666
23691SOL     OW71650   3.999   9.694   5.391 -0.1382  0.2703 -0.0616
23691SOL    HW171651   3.990   9.609   5.434 -0.8487  0.3904  0.0287
23691SOL    HW271652   4.021   9.674   5.300 -3.6980 -0.1396 -0.9699
23692SOL     OW71653   4.422   4.978   6.331  0.2396 -0.4081 -0.3683
23692SOL    HW171654   4.492   5.017   6.383 -1.5377  0.0947  1.7788
23692SOL    HW271655   4.391   4.904   6.383 -2.2377  0.6815 -0.1472
23693SOL     OW71656   8.844   0.998   3.255 -0.1339  0.4702  1.1774
23693SOL    HW171657   8.804   1.015   3.169  2.1551  2.2379  0.3551
23693SOL    HW271658   8.842   0.903   3.263 -1.3889  0.3130 -0.3129
23694SOL     OW71659   0.164   9.129   1.942 -0.3680 -0.1960 -0.5773
23694SOL    HW171660   0.128   9.100   2.026 -0.6846  4.2932  1.1080
23694SOL    HW271661   0.102   9.194   1.910  1.0180  0.0225 -3.0816
23695SOL     OW71662   9.935   3.378   3.812 -0.3061  0.0830 -0.1964
23695SOL    HW171663   9.860   3.383   3.753 -0.7380  1.8506  0.4408
23695SOL    HW271664   9.984   3.301   3.782 -0.9557  0.4224 -2.2894
23696SOL     OW71665   0.973   4.905   2.297  0.4567 -0.5254  0.5515
23696SOL    HW171666   1.042   4.850   2.261  1.3537  1.4739 -0.9480
23696SOL    HW271667   0.952   4.967   2.227 -1.5069  0.1546  1.6597
23697SOL     OW71668   7.323   1.909   1.230 -0.3605 -0.0236 -0.7405
23697SOL    HW171669   7.326   2.004   1.244  1.1916 -0.3996  2.1490
23697SOL    HW271670   7.414   1.885   1.214 -0.1680 -1.3848  1.9812
23698SOL     OW71671   6.768   2.526   3.665 -0.1178  0.1768 -0.1929
23698SOL    HW171672   6.748   2.568   3.749 -1.5034  0.3264 -0.5667
23698SOL    HW271673   6.851   2.566   3.638  0.5884 -0.2078  1.2988
23699SOL     OW71674   2.219   7.221   4.926  0.1395 -0.3978  0.1448
23699SOL    HW171675   2.209   7.288   4.858  1.8719  0.1152  0.3556
23699SOL    HW271676   2.134   7.177   4.928 -0.7032  1.0960 -0.7314
23700SOL     OW71677   4.149   7.705   4.803  0.1845  0.0617 -0.3240
23700SOL    HW171678   4.213   7.635   4.788  1.4778  1.3692 -1.1957
23700SOL    HW271679   4.143   7.713   4.898  0.7819 -0.5586 -0.2319
23701SOL     OW71680   7.308   5.610   7.909 -0.8165  0.4679 -0.3809
23701SOL    HW171681   7.346   5.645   7.989  0.3789  1.1367 -1.2135
23701SOL    HW271682   7.262   5.530   7.937  0.8627 -0.1497  0.7427
23702SOL     OW71683   8.027   3.768   0.789  0.2141 -0.4614  0.1171
23702SOL    HW171684   7.998   3.767   0.880 -1.0976  0.1724 -0.2618
23702SOL    HW271685   7.973   3.702   0.746  1.9122 -1.8862  0.0636
23703SOL     OW71686   7.739   6.859   8.950 -0.5758  0.0331 -0.9438
23703SOL    HW171687   7.737   6.943   8.905 -1.1843  1.8028  2.1058
23703SOL    HW271688   7.829   6.829   8.942 -0.0371  1.6185 -0.9914
23704SOL     OW71689   1.486   2.248   2.172 -0.1446 -0.5569  0.1424
23704SOL    HW171690   1.548   2.176   2.168 -0.6446 -1.0254  0.6349
23704SOL    HW271691   1.540   2.327   2.174  0.4867 -0.9959  1.9193
23705SOL     OW71692   0.784   9.240   6.205 -0.4995  0.3879  0.0809
23705SOL    HW171693   0.724   9.309   6.175 -2.0591  0.0076  2.0794
23705SOL    HW271694   0.740   9.159   6.182  0.3087  0.0745 -0.3667
23706SOL     OW71695   8.538   0.477   1.851 -0.0324  0.8961  0.4942
23706SOL    HW171696   8.624   0.499   1.888  0.2062 -1.1608  1.3063
23706SOL    HW271697   8.559   0.435   1.767 -0.3055  1.1576  0.2938
23707SOL     OW71698   7.409   2.101   2.518  0.0354 -0.2880  0.5033
23707SOL    HW171699   7.389   2.187   2.483  1.0141 -0.5935 -0.8804
23707SOL    HW271700   7.349   2.041   2.474 -0.0282 -0.4397  0.7882
23708SOL     OW71701   6.778   9.160   1.448  0.0993  0.9106 -0.5143
23708SOL    HW171702   6.813   9.221   1.384 -1.6089 -0.6192 -3.0676
23708SOL    HW271703   6.701   9.205   1.485 -1.0644  0.4554 -2.2756
23709SOL     OW71704   5.521   2.454   0.886  0.2782 -0.1601 -0.1883
23709SOL    HW171705   5.510   2.410   0.971 -0.9115  1.5898  0.6326
23709SOL    HW271706   5.434   2.451   0.846  0.5158  0.1872 -0.7437
23710SOL     OW71707   3.411   3.212   1.648 -0.1980 -0.1069 -0.1401
23710SOL    HW171708   3.425   3.143   1.712 -0.0519  0.7796  0.8168
23710SOL    HW271709   3.485   3.272   1.661 -0.7603  0.6507 -0.3752
23711SOL     OW71710   5.528   8.412   7.998 -0.0991  0.6988 -0.1437
23711SOL    HW171711   5.607   8.467   7.995 -0.5066  1.2757 -0.4923
23711SOL    HW271712   5.559   8.325   7.974  0.6018  0.7139  0.6364
23712SOL     OW71713   6.827   2.849   0.109 -0.0850  0.6460 -0.7472
23712SOL    HW171714   6.879   2.859   0.189  0.9076 -1.2571 -1.1045
23712SOL    HW271715   6.881   2.889   0.041  0.5558 -0.5796 -0.9770
23713SOL     OW71716   4.406   8.543   7.864  0.1706  0.7576  0.0498
23713SOL    HW171717   4.433   8.619   7.812 -0.0065  0.3742 -0.6080
23713SOL    HW271718   4.484   8.521   7.916  0.9117  0.1213 -1.2885
23714SOL     OW71719   6.851   3.029   2.801 -0.6252  0.5043 -0.0841
23714SOL    HW171720   6.757   3.028   2.820 -0.7033  0.9753 -0.4142
23714SOL    HW271721   6.889   3.079   2.873 -0.6316  0.3488  0.0280
23715SOL     OW71722   5.511   4.188   4.286 -0.5044  0.0661  0.1488
23715SOL    HW171723   5.499   4.238   4.205  2.4866 -0.6564 -0.8657
23715SOL    HW271724   5.483   4.099   4.264  0.4479 -0.1633 -0.1593
23716SOL     OW71725   7.780   3.511   5.099  0.0947  0.0693  0.3327
23716SOL    HW171726   7.692   3.549   5.100  0.0251 -0.0477  1.8564
23716SOL    HW271727   7.837   3.583   5.073 -0.5681 -0.2370 -2.1675
23717SOL     OW71728   0.051   2.357   2.116 -0.4777  0.2384 -0.1633
23717SOL    HW171729   0.130   2.365   2.062 -0.4257  0.6250 -0.0370
23717SOL    HW271730   0.014   2.272   2.093  0.0997 -0.0460 -0.0592
23718SOL     OW71731   3.964   8.057   7.281  0.1921  0.7246  0.2680
23718SOL    HW171732   3.998   8.126   7.338 -0.5214  1.6806 -0.4307
23718SOL    HW271733   3.892   8.099   7.234  0.0457 -0.3736 -0.5077
23719SOL     OW71734   1.167   3.140   0.696 -0.4765  0.8478 -0.5310
23719SOL    HW171735   1.262   3.153   0.701 -0.2587 -1.0220  1.1331
23719SOL    HW271736   1.148   3.139   0.602  1.6004 -1.3495 -1.0271
23720SOL     OW71737   1.297   0.679   0.172  0.2613  0.2195 -0.6735
23720SOL    HW171738   1.236   0.605   0.169  0.3058  0.1508 -0.0246
23720SOL    HW271739   1.306   0.706   0.081 -3.1192  2.2226 -0.5757
23721SOL     OW71740   6.442   0.314   8.118  0.1700  0.3672 -0.1754
23721SOL    HW171741   6.420   0.328   8.026  0.3726 -1.0051 -0.4611
23721SOL    HW271742   6.371   0.357   8.167 -0.6693 -0.0443 -0.9986
23722SOL     OW71743   9.711   2.692   9.086 -0.0940 -0.2858 -0.3198
23722SOL    HW171744   9.764   2.760   9.128  0.8720 -0.0646 -1.7949
23722SOL    HW271745   9.702   2.722   8.995 -0.3461 -1.7127 -0.7896
23723SOL     OW71746   8.444   9.141   4.505 -0.1333 -0.3029  0.0829
23723SOL    HW171747   8.349   9.157   4.509 -0.2159 -0.7641  0.0399
23723SOL    HW271748   8.457   9.064   4.560  0.0726 -0.8550 -0.7267
23724SOL     OW71749   1.047   2.657   0.206  0.2050  0.2403 -0.1145
23724SOL    HW171750   1.003   2.573   0.197 -1.4791  0.9650  0.9764
23724SOL    HW271751   1.053   2.672   0.300  2.1276  0.5342 -0.2468
23725SOL     OW71752   7.437   7.319   7.045 -0.2618  0.3370 -0.2593
23725SOL    HW171753   7.491   7.316   6.966  0.5744 -0.4775  0.3208
23725SOL    HW271754   7.351   7.350   7.015  0.2536  0.7316 -1.3543
23726SOL     OW71755   3.967   6.467   1.100 -0.2279 -0.1513  0.4900
23726SOL    HW171756   4.004   6.379   1.094 -0.6851 -0.3044 -0.3155
23726SOL    HW271757   3.874   6.452   1.116 -0.4425  0.1639 -0.4341
23727SOL     OW71758   6.105   1.325   9.754 -0.4059  0.2016 -0.2353
23727SOL    HW171759   6.056   1.403   9.728 -0.6619  0.3357  0.6064
23727SOL    HW271760   6.053   1.251   9.723 -0.9836  0.3475  0.3627
23728SOL     OW71761   0.426   9.732   1.442  0.6957 -0.4031  0.0035
23728SOL    HW171762   0.400   9.813   1.486 -0.1169 -0.1558 -0.8926
23728SOL    HW271763   0.503   9.702   1.491  0.3181  0.2852  1.0711
23729SOL     OW71764   2.507   8.753   2.527  0.3339  0.0306 -0.0095
23729SOL    HW171765   2.481   8.729   2.438  1.8762 -0.8094 -0.2705
23729SOL    HW271766   2.577   8.691   2.549  0.7321  0.9305  1.3748
23730SOL     OW71767   1.246   0.409   8.493  1.0312  0.0866 -0.1645
23730SOL    HW171768   1.336   0.434   8.475  0.6360  1.4738 -0.3154
23730SOL    HW271769   1.193   0.462   8.433  0.0536  0.2288  0.7803
23731SOL     OW71770   8.101   9.236   1.787 -0.2984  0.4327  0.1090
23731SOL    HW171771   8.066   9.239   1.698 -1.6011  0.5581  0.6079
23731SOL    HW271772   8.163   9.163   1.785  0.1056  0.7881 -1.0400
23732SOL     OW71773   7.318   6.654   1.137 -0.7346 -0.8044 -0.0392
23732SOL    HW171774   7.316   6.559   1.140 -0.0669 -0.8090  2.2849
23732SOL    HW271775   7.405   6.676   1.106 -0.7596 -0.9481 -0.2117
23733SOL     OW71776   9.031   5.005   8.653 -0.3242 -0.0880 -0.1343
23733SOL    HW171777   8.936   4.992   8.642 -0.2695 -0.5675 -0.0475
23733SOL    HW271778   9.057   5.053   8.575 -0.8233  1.0036  0.3480
23734SOL     OW71779   5.687   7.301   6.812  0.4144  0.9063  0.3182
23734SOL    HW171780   5.602   7.264   6.836  0.4691  1.2056  1.0178
23734SOL    HW271781   5.668   7.392   6.790  0.7202  1.3698  1.8193
23735SOL     OW71782   4.649   1.133   8.996  1.0753  0.0851  0.1074
23735SOL    HW171783   4.740   1.117   9.022  0.8666 -1.1607  0.1660
23735SOL    HW271784   4.597   1.095   9.066  0.5198 -1.4928 -1.0925
23736SOL     OW71785   5.455   3.797   4.545 -0.3546  0.4643 -0.0911
23736SOL    HW171786   5.384   3.762   4.492 -0.5339  0.4586  0.1555
23736SOL    HW271787   5.417   3.874   4.588  0.4988  2.0667 -1.9993
23737SOL     OW71788   8.143   4.751   4.424  0.0152  0.4004  0.3161
23737SOL    HW171789   8.173   4.838   4.397  0.9870  0.3828  1.2863
23737SOL    HW271790   8.127   4.705   4.341  5.2904 -0.4914 -0.5696
23738SOL     OW71791   0.823   4.167   6.812  0.0451 -0.1590 -0.4159
23738SOL    HW171792   0.875   4.126   6.743  1.5706  0.9598  0.0006
23738SOL    HW271793   0.856   4.128   6.893 -0.0119  0.2852 -0.1747
23739SOL     OW71794   2.160   5.960   9.214 -0.0512 -0.4951  0.2118
23739SOL    HW171795   2.076   6.001   9.233  0.1998  0.5671 -0.8278
23739SOL    HW271796   2.225   6.024   9.244  0.3525  0.0594 -1.7193
23740SOL     OW71797   9.520   1.173   4.811  0.0215 -0.1393 -0.4496
23740SOL    HW171798   9.426   1.166   4.830  0.1346 -1.2360 -0.2131
23740SOL    HW271799   9.561   1.112   4.872  0.7035 -1.1877 -1.8925
23741SOL     OW71800   7.986   2.055   3.115 -0.1700  0.0089 -0.5906
23741SOL    HW171801   7.970   2.021   3.203 -0.6386 -0.3595 -0.8154
23741SOL    HW271802   7.944   2.141   3.115 -0.4741 -0.1384 -0.5632
23742SOL     OW71803   7.613   2.582   7.043 -0.4751  0.9409  0.1652
23742SOL    HW171804   7.537   2.538   7.003  0.4230  0.4037 -0.9976
23742SOL    HW271805   7.684   2.568   6.981  0.6830  1.1203  1.4131
23743SOL     OW71806   4.667   6.727   2.257  0.1174 -0.4111  0.5636
23743SOL    HW171807   4.647   6.633   2.258  1.8856 -0.8337  1.0753
23743SOL    HW271808   4.703   6.742   2.169 -0.5712 -0.1039  0.3303
23744SOL     OW71809   5.754   3.204   0.901  0.3672  0.1874 -0.0508
23744SOL    HW171810   5.761   3.169   0.812 -0.5496  0.0525 -0.0814
23744SOL    HW271811   5.843   3.198   0.935  0.2605 -2.4131  0.0200
23745SOL     OW71812   9.499   6.667   1.735  0.0334  0.1024  0.0617
23745SOL    HW171813   9.438   6.628   1.672 -0.2890 -0.0847  0.4821
23745SOL    HW271814   9.563   6.714   1.681 -1.3481  1.6015 -0.3341
23746SOL     OW71815   2.115   3.405   1.805 -0.3134  0.1186 -0.1177
23746SOL    HW171816   2.019   3.405   1.800 -0.3150  0.0256 -0.0816
23746SOL    HW271817   2.141   3.325   1.760 -0.3083 -0.5281  1.0067
23747SOL     OW71818   9.233   9.941   7.418 -0.2178  0.2724 -0.7087
23747SOL    HW171819   9.217   9.900   7.503  0.4773  0.6236 -0.3992
23747SOL    HW271820   9.243  10.034   7.437  1.3234  0.1878 -0.9644
23748SOL     OW71821   2.965   8.452   8.291 -0.6503 -0.0722  0.1132
23748SOL    HW171822   2.884   8.409   8.263 -0.7312  0.3160 -0.2598
23748SOL    HW271823   2.965   8.536   8.244 -0.1322  0.0160  0.2661
23749SOL     OW71824   2.864   2.780   3.088 -0.3050  0.2873 -0.0536
23749SOL    HW171825   2.783   2.797   3.136  0.1175  1.1386  0.3795
23749SOL    HW271826   2.835   2.755   3.000 -1.1196 -2.1382  0.8413
23750SOL     OW71827   5.776   7.138   1.745 -0.3390 -0.5552 -0.5467
23750SOL    HW171828   5.822   7.187   1.678  1.1543 -1.6924 -0.4076
23750SOL    HW271829   5.726   7.072   1.696  0.8525 -1.4696 -0.5857
23751SOL     OW71830   0.524   6.363   0.624  0.3830  0.1160  0.3871
23751SOL    HW171831   0.472   6.283   0.616 -0.3835  0.7194 -1.0696
23751SOL    HW271832   0.599   6.337   0.677  0.0955 -1.5472  0.0571
23752SOL     OW71833   4.466   0.880   9.730  0.1635 -0.1895  0.3708
23752SOL    HW171834   4.482   0.895   9.824 -0.2657  0.8062  0.3033
23752SOL    HW271835   4.456   0.968   9.694 -0.6008 -0.6007 -0.4461
23753SOL     OW71836   2.639   5.297   7.687 -0.3067 -0.0393 -0.8705
23753SOL    HW171837   2.593   5.367   7.732 -3.0571 -2.3374  0.1748
23753SOL    HW271838   2.700   5.262   7.752  0.1704  0.5209 -1.0010
23754SOL     OW71839   7.479   3.060   9.857  0.0411  1.0823 -0.0258
23754SOL    HW171840   7.565   3.041   9.818  0.1633  0.6927  0.4272
23754SOL    HW271841   7.498   3.125   9.925 -0.0956  1.3696 -0.2630
23755SOL     OW71842   0.845   0.219   6.606  0.2566  0.4590  0.7669
23755SOL    HW171843   0.915   0.162   6.575 -0.1587 -0.6172  1.6865
23755SOL    HW271844   0.842   0.291   6.544  0.2623 -0.9509 -0.9562
23756SOL     OW71845   4.521   9.092   7.902 -0.7250 -0.5135 -0.5649
23756SOL    HW171846   4.591   9.029   7.885  0.8774  0.9638  0.2801
23756SOL    HW271847   4.441   9.040   7.899  0.4840 -2.4733 -0.4738
23757SOL     OW71848   2.693   3.278   9.534  0.3652 -0.0919  0.2432
23757SOL    HW171849   2.622   3.255   9.593  1.4182  0.6175  1.8657
23757SOL    HW271850   2.765   3.305   9.592  0.9118  2.2804 -1.3636
23758SOL     OW71851   8.985   3.500   0.267 -0.0922  0.3088  0.0535
23758SOL    HW171852   8.896   3.498   0.233 -0.2317 -0.0326  0.4253
23758SOL    HW271853   9.008   3.593   0.272 -0.9449  0.4808  1.2817
23759SOL     OW71854   2.378   2.871   8.548 -0.4465 -0.5104 -0.0969
23759SOL    HW171855   2.357   2.948   8.494 -1.6012 -0.8885 -0.2086
23759SOL    HW271856   2.347   2.894   8.635 -2.2720 -1.4293 -0.4557
23760SOL     OW71857   0.624   5.206   1.257  0.0831  0.8363 -0.1960
23760SOL    HW171858   0.651   5.135   1.200 -0.0078  0.6184  0.0314
23760SOL    HW271859   0.653   5.179   1.344  1.8464  1.9821 -0.3784
23761SOL     OW71860   9.085   2.455   6.800  0.0317 -0.1526  0.3506
23761SOL    HW171861   9.100   2.394   6.727 -0.5648 -1.0415  0.9464
23761SOL    HW271862   9.170   2.497   6.813  0.3340 -0.5033 -0.3950
23762SOL     OW71863   8.475   6.965   2.780 -0.0046  0.3887  0.0860
23762SOL    HW171864   8.404   6.922   2.828  0.5737 -0.6849  0.0039
23762SOL    HW271865   8.431   7.031   2.727 -1.1255 -1.1468 -0.9800
23763SOL     OW71866   0.389   6.049   5.069  0.0294  0.2772 -0.0912
23763SOL    HW171867   0.404   6.104   4.992 -0.8733  0.9198  0.1832
23763SOL    HW271868   0.423   6.100   5.142 -3.3354  1.8366  0.5698
23764SOL     OW71869   5.506   9.255   6.833  0.1728  0.3939  0.0710
23764SOL    HW171870   5.461   9.316   6.891  0.1681  0.2464  0.2216
23764SOL    HW271871   5.453   9.254   6.753  1.6059  2.6715 -1.0278
23765SOL     OW71872   8.021   3.015   2.145  0.1584  0.1292  0.1373
23765SOL    HW171873   8.064   3.101   2.138  0.8182 -0.2576 -0.5987
23765SOL    HW271874   8.092   2.952   2.138 -0.3305 -0.4881  0.6644
23766SOL     OW71875   6.654   4.568   8.837 -0.3502  0.0662  0.0050
23766SOL    HW171876   6.607   4.493   8.800  2.0715 -1.7348  0.3297
23766SOL    HW271877   6.648   4.555   8.932 -0.7901  0.8794  0.0952
23767SOL     OW71878   0.317   0.348   1.134 -0.5571 -0.6175 -0.3325
23767SOL    HW171879   0.365   0.333   1.215 -0.8582  0.8929  0.1545
23767SOL    HW271880   0.332   0.440   1.113  0.0964 -1.1288 -2.3989
23768SOL     OW71881   6.460   5.897   1.877 -0.4209  0.4071 -0.2470
23768SOL    HW171882   6.419   5.810   1.875 -1.3141  0.8297 -1.9921
23768SOL    HW271883   6.396   5.955   1.835  1.2641  1.4007 -1.5702
23769SOL     OW71884   6.473   8.445   1.680  0.1397 -0.2588  0.0299
23769SOL    HW171885   6.471   8.528   1.633 -1.5155  0.0523  0.6051
23769SOL    HW271886   6.436   8.464   1.766  0.5063 -1.4263  0.4737
23770SOL     OW71887   4.229   2.248   0.926 -0.2124 -0.3471  0.0198
23770SOL    HW171888   4.251   2.207   1.009  0.8643  0.1049 -0.0310
23770SOL    HW271889   4.269   2.334   0.929 -1.6491  0.3705 -0.2695
23771SOL     OW71890   2.889   0.115   8.212  0.1996  0.0779  0.0403
23771SOL    HW171891   2.841   0.036   8.236 -0.1579  0.3334  0.1794
23771SOL    HW271892   2.864   0.133   8.122  1.0432 -0.5164 -0.3269
23772SOL     OW71893   2.281   3.482   9.397 -0.3023  0.5139  0.2093
23772SOL    HW171894   2.306   3.561   9.350  1.1471 -0.2284 -0.3423
23772SOL    HW271895   2.325   3.489   9.482  0.2877  0.0622 -0.0516
23773SOL     OW71896   0.507   3.561   9.030  0.1354  0.2412 -0.1398
23773SOL    HW171897   0.486   3.650   9.058 -2.2226 -0.0799 -0.6365
23773SOL    HW271898   0.558   3.572   8.950  0.3962  1.1482  0.1362
23774SOL     OW71899   2.200   5.120   0.277 -0.3849 -0.1981  0.5408
23774SOL    HW171900   2.242   5.109   0.362 -1.8197 -1.2243  1.1476
23774SOL    HW271901   2.106   5.109   0.294 -0.8720  1.2683 -0.8918
23775SOL     OW71902   3.255   2.954   3.450 -0.2221 -0.2007 -0.3489
23775SOL    HW171903   3.345   2.922   3.449 -0.4734 -0.9572  0.0814
23775SOL    HW271904   3.222   2.935   3.362  0.5027  1.5064 -1.0186
23776SOL     OW71905   1.154   1.230   7.909  0.4712 -0.0109  0.1500
23776SOL    HW171906   1.140   1.322   7.886  1.3473  0.4983  1.4906
23776SOL    HW271907   1.181   1.189   7.827 -2.0489  0.4060 -0.9771
23777SOL     OW71908   7.701   4.656   3.083  0.4424  0.0864  0.9328
23777SOL    HW171909   7.678   4.567   3.058 -0.1117 -0.0036  1.7283
23777SOL    HW271910   7.618   4.703   3.083  0.6651  0.4782  1.0082
23778SOL     OW71911   0.245   6.015   8.966  0.4657 -0.0690 -0.6744
23778SOL    HW171912   0.270   5.988   9.054  0.1122 -0.1032 -0.5838
23778SOL    HW271913   0.193   6.094   8.979 -0.6443 -0.7698 -0.7623
23779SOL     OW71914   9.968   3.909   4.559  0.6996 -0.5091  0.0337
23779SOL    HW171915   9.906   3.949   4.620  1.5023 -0.9921  1.2161
23779SOL    HW271916   9.950   3.815   4.566  0.0251 -0.5152 -1.3788
23780SOL     OW71917   9.932   9.019   4.341 -0.7964  0.0591 -0.4289
23780SOL    HW171918   9.927   8.999   4.247 -1.3600 -1.8249 -0.0474
23780SOL    HW271919  10.013   9.068   4.351 -1.3265  1.3759 -2.0621
23781SOL     OW71920   3.662   6.180   3.371  0.7739  0.2767  0.1276
23781SOL    HW171921   3.696   6.091   3.383  2.3281  0.5369 -1.8833
23781SOL    HW271922   3.589   6.170   3.311 -1.3960  0.0226  2.6075
23782SOL     OW71923   9.526   3.721   1.468 -0.1059 -0.2346  0.6064
23782SOL    HW171924   9.598   3.758   1.520  0.1599 -0.5066  0.4360
23782SOL    HW271925   9.534   3.762   1.382 -2.6725  2.9641  1.7045
23783SOL     OW71926   1.120   7.373   8.188 -0.6854 -0.4266  0.3638
23783SOL    HW171927   1.103   7.308   8.120 -0.9262 -0.1366  0.1416
23783SOL    HW271928   1.198   7.342   8.233 -0.1349 -0.2870 -0.4739
23784SOL     OW71929   5.596   6.416   5.746 -0.0674 -0.3458 -0.2232
23784SOL    HW171930   5.566   6.475   5.815 -0.8418 -0.3514 -0.5528
23784SOL    HW271931   5.516   6.383   5.706  0.3351 -1.8615  0.1444
23785SOL     OW71932   8.489   5.747   3.857 -0.1035  0.2855  0.3585
23785SOL    HW171933   8.499   5.841   3.869 -1.9781  0.6339 -0.5433
23785SOL    HW271934   8.477   5.736   3.763 -0.5819 -0.7907  0.5317
23786SOL     OW71935   6.534   0.738   6.394 -0.1663 -0.3140 -0.0690
23786SOL    HW171936   6.583   0.820   6.395  0.1465 -0.4923  0.7154
23786SOL    HW271937   6.599   0.672   6.370 -0.3823 -0.3551 -0.5492
23787SOL     OW71938   7.836   6.939   6.733  0.5861  0.3808  0.4965
23787SOL    HW171939   7.758   6.914   6.782 -0.1625 -0.7894 -1.1737
23787SOL    HW271940   7.807   7.013   6.678  0.3396 -0.6501 -0.8087
23788SOL     OW71941   7.235   5.225   7.759 -0.4218 -0.4770 -0.3513
23788SOL    HW171942   7.195   5.214   7.673  0.1184 -0.5245 -0.5985
23788SOL    HW271943   7.162   5.248   7.816 -0.9288 -1.3223 -0.6397
23789SOL     OW71944   6.255   3.993   5.172 -0.7885 -0.4543 -0.2899
23789SOL    HW171945   6.302   3.922   5.216  1.4177  0.5186 -0.9420
23789SOL    HW271946   6.280   3.985   5.080  1.6082  2.5378 -0.0703
23790SOL     OW71947   8.684   7.740   9.418 -0.6892 -0.1262 -0.4247
23790SOL    HW171948   8.763   7.687   9.429  0.0757  0.6660 -1.8778
23790SOL    HW271949   8.669   7.742   9.324 -2.6041 -0.4605 -0.1559
23791SOL     OW71950   5.767   2.927   1.092  0.1347  0.2373  0.1249
23791SOL    HW171951   5.793   2.867   1.021  0.9395  1.0546 -0.2972
23791SOL    HW271952   5.679   2.955   1.068  0.0617 -0.1642 -0.0910
23792SOL     OW71953   2.484   2.535   4.405 -0.1578  0.5626  0.2539
23792SOL    HW171954   2.546   2.536   4.478  1.4057  1.4803 -1.0063
23792SOL    HW271955   2.418   2.470   4.430  0.7439  0.3044  2.1213
23793SOL     OW71956   6.621   6.309   7.794 -0.4755  0.1743  0.6519
23793SOL    HW171957   6.677   6.294   7.718 -1.1691  0.9231 -0.0231
23793SOL    HW271958   6.587   6.397   7.782 -2.2695 -0.4636  0.7127
23794SOL     OW71959   9.866   3.875   5.266  0.0036  0.1539  0.0824
23794SOL    HW171960   9.815   3.955   5.256 -1.0303 -0.4384  0.4537
23794SOL    HW271961   9.906   3.882   5.352  0.4971  0.5902 -0.1804
23795SOL     OW71962   2.140   2.419   3.376 -0.2405 -0.0300 -0.2573
23795SOL    HW171963   2.221   2.471   3.376  0.6199 -1.3310  0.0821
23795SOL    HW271964   2.142   2.372   3.293  1.1620 -2.7277  1.1911
23796SOL     OW71965   3.797   2.075   6.341 -0.0211 -0.2193 -0.4186
23796SOL    HW171966   3.748   2.103   6.418 -0.4487 -0.1063 -0.7249
23796SOL    HW271967   3.763   2.129   6.270 -0.0481 -0.7248 -0.7987
23797SOL     OW71968   5.599   8.972   6.223  0.4529 -0.9416 -0.2802
23797SOL    HW171969   5.505   8.954   6.221 -0.1521  1.7066 -0.9044
23797SOL    HW271970   5.631   8.930   6.302 -0.6665 -4.2004 -1.4193
23798SOL     OW71971   2.751   9.875   8.295 -0.0701  0.4164 -1.1838
23798SOL    HW171972   2.666   9.851   8.333  0.8038 -1.4824 -0.2904
23798SOL    HW271973   2.748   9.838   8.206 -0.8435  1.9941 -1.8663
23799SOL     OW71974   2.277   5.438   7.694 -0.0645 -0.2780 -0.1792
23799SOL    HW171975   2.343   5.481   7.748  1.9310 -1.4258 -1.5226
23799SOL    HW271976   2.228   5.509   7.654  1.9412  0.7605 -0.9436
23800SOL     OW71977   1.212   7.589   7.108  0.1360  0.1936  0.0682
23800SOL    HW171978   1.284   7.578   7.169  0.3603  0.7424 -0.0945
23800SOL    HW271979   1.154   7.515   7.125  0.9850 -0.5334 -0.1419
23801SOL     OW71980   1.986   8.166   0.202  0.7615 -0.0745 -0.0445
23801SOL    HW171981   2.079   8.154   0.222  0.9707 -2.2733 -1.8879
23801SOL    HW271982   1.968   8.101   0.135 -2.2509 -0.0344  0.5912
23802SOL     OW71983   6.837   4.741   3.550  0.1579 -0.3018 -0.0600
23802SOL    HW171984   6.860   4.651   3.573  0.5082 -0.2481 -0.1945
23802SOL    HW271985   6.755   4.733   3.502  0.5003 -0.6173 -0.6134
23803SOL     OW71986   6.895   9.425   4.153 -0.1864 -0.4331 -0.3132
23803SOL    HW171987   6.929   9.342   4.120 -0.5864 -1.3562  1.4568
23803SOL    HW271988   6.865   9.472   4.075  0.8969 -1.5450 -1.4363
23804SOL     OW71989   7.197   6.370   2.979  0.1369  0.3682  0.6482
23804SOL    HW171990   7.163   6.313   2.909  1.2750 -0.5990  0.8476
23804SOL    HW271991   7.291   6.372   2.965  0.4481 -0.2073  2.3972
23805SOL     OW71992   7.007   6.531   5.434 -0.2723 -0.2591 -0.2066
23805SOL    HW171993   6.992   6.573   5.518  1.1021 -0.5821  0.2208
23805SOL    HW271994   6.972   6.443   5.444  2.6152 -1.3856  1.1593
23806SOL     OW71995   6.616   0.863   4.890  0.2130  0.0961  0.3427
23806SOL    HW171996   6.598   0.952   4.860  1.1968 -0.1467 -1.0928
23806SOL    HW271997   6.651   0.875   4.978  0.4627  1.1577  0.1225
23807SOL     OW71998   3.916   2.370   2.252  0.1568 -0.1732 -0.2409
23807SOL    HW171999   3.982   2.397   2.316  0.2779 -0.9763 -0.0186
23807SOL    HW272000   3.916   2.275   2.255  1.7463 -0.3730 -3.0335
23808SOL     OW72001   8.905   0.204   1.143  0.8291 -0.3294 -0.4070
23808SOL    HW172002   8.849   0.130   1.121  0.5132  0.2192 -1.5017
23808SOL    HW272003   8.982   0.165   1.183 -0.1634 -1.1193  0.8355
23809SOL     OW72004   2.281   2.588   2.822 -0.0547 -0.2792 -0.5387
23809SOL    HW172005   2.226   2.667   2.820  0.5009  0.1794  0.8372
23809SOL    HW272006   2.352   2.607   2.762  0.4201  0.5542  0.2677
23810SOL     OW72007   0.609   6.772   4.239  0.5248  0.2829  0.1017
23810SOL    HW172008   0.646   6.717   4.308  0.5940  0.8363  0.5120
23810SOL    HW272009   0.592   6.856   4.282  0.4395  0.5871 -0.5208
23811SOL     OW72010   1.078   4.363   7.609  0.2878  0.5555  0.6520
23811SOL    HW172011   1.070   4.407   7.524  1.2899  0.6254  0.5739
23811SOL    HW272012   1.117   4.278   7.588  0.9794  0.7589  1.0818
23812SOL     OW72013   5.254   9.371   3.191 -0.6375 -0.4093 -0.3200
23812SOL    HW172014   5.259   9.317   3.270 -0.0138  0.4396  0.2428
23812SOL    HW272015   5.160   9.373   3.170 -1.0659  0.8256  1.4686
23813SOL     OW72016   8.506   1.200   2.803 -0.4501  0.5558  0.4406
23813SOL    HW172017   8.456   1.260   2.859  0.6844  1.9716 -0.0152
23813SOL    HW272018   8.515   1.246   2.720 -0.2689 -0.6202 -0.2125
23814SOL     OW72019   5.289   9.603   6.350  0.6516  0.9310  1.2205
23814SOL    HW172020   5.244   9.583   6.268 -0.0176 -2.0878  2.2053
23814SOL    HW272021   5.233   9.668   6.392 -0.3156  0.6884  0.3615
23815SOL     OW72022   7.595   7.968   4.450  0.0935 -0.0480 -0.2890
23815SOL    HW172023   7.608   8.025   4.375 -0.2736 -0.6417 -0.8197
23815SOL    HW272024   7.500   7.966   4.463 -0.0512 -1.6740 -1.2241
23816SOL     OW72025   6.458   7.181   1.896 -1.1048 -0.2040 -0.0404
23816SOL    HW172026   6.481   7.091   1.874 -0.2284  0.4875 -2.1339
23816SOL    HW272027   6.531   7.212   1.949 -0.3058 -0.0391 -1.2157
23817SOL     OW72028   0.769   6.018   9.916  0.1137 -0.4028 -0.0069
23817SOL    HW172029   0.749   6.018  10.009  1.5859  1.5576  0.3768
23817SOL    HW272030   0.755   6.109   9.889 -1.2991 -1.1322 -1.9623
23818SOL     OW72031   0.391   2.688   9.335 -0.1516 -0.2149 -0.0642
23818SOL    HW172032   0.399   2.624   9.406 -3.4056 -1.2105 -0.4076
23818SOL    HW272033   0.357   2.637   9.261 -0.9993  1.5544 -0.9487
23819SOL     OW72034   9.889   3.245   7.402  0.4227 -0.2603 -0.0189
23819SOL    HW172035   9.863   3.260   7.493 -0.1490 -0.4822 -0.1407
23819SOL    HW272036   9.976   3.284   7.395  0.3851 -0.0615  0.5693
23820SOL     OW72037   0.290   6.021   0.914  0.2504 -0.0573 -1.0021
23820SOL    HW172038   0.267   5.944   0.967  1.9690  0.6185  0.8585
23820SOL    HW272039   0.285   6.095   0.975  0.6163  1.0200 -2.2262
23821SOL     OW72040   6.538   1.600   2.761 -0.0069 -0.0153 -0.4196
23821SOL    HW172041   6.515   1.542   2.835 -0.4936 -0.3914 -0.8553
23821SOL    HW272042   6.510   1.551   2.683 -0.9178  1.0294 -0.7678
23822SOL     OW72043   6.131   4.736   9.463  0.3949  0.0200 -0.1539
23822SOL    HW172044   6.067   4.677   9.503  1.5923 -0.3716  1.2603
23822SOL    HW272045   6.204   4.679   9.437  1.4559  0.7989  0.9923
23823SOL     OW72046   5.172   0.955   8.001 -0.3475  0.5278 -0.6310
23823SOL    HW172047   5.148   0.907   7.922  1.8161  1.5084 -1.9540
23823SOL    HW272048   5.190   0.887   8.066 -2.8632 -0.2854 -0.6737
23824SOL     OW72049   4.894   8.969   5.468 -0.0923 -0.3882 -0.1337
23824SOL    HW172050   4.834   8.897   5.484  0.0773 -0.7088 -0.8928
23824SOL    HW272051   4.977   8.927   5.447  0.0609  0.0271 -0.3753
23825SOL     OW72052   2.144   8.073   4.199  0.5006 -0.2000  0.4472
23825SOL    HW172053   2.228   8.040   4.169  0.4241  0.5900 -0.6711
23825SOL    HW272054   2.165   8.157   4.240  0.3042 -0.1737  0.4946
23826SOL     OW72055   0.090   6.643   4.347 -0.2495  0.4424 -0.0793
23826SOL    HW172056   0.143   6.594   4.284 -1.0576 -0.1926 -0.2851
23826SOL    HW272057   0.052   6.714   4.296  0.2392  0.7900  0.0280
23827SOL     OW72058   6.206   7.099   6.688  0.0450  0.2465 -0.5768
23827SOL    HW172059   6.178   7.095   6.596 -0.3850 -1.1319 -0.4050
23827SOL    HW272060   6.166   7.022   6.728 -0.3100  1.1785  0.9277
23828SOL     OW72061   1.139   0.410   6.078 -0.4317 -0.7645 -0.4525
23828SOL    HW172062   1.217   0.362   6.106 -0.3554  0.2165  1.1522
23828SOL    HW272063   1.145   0.494   6.123 -1.2410  0.2532 -2.1430
23829SOL     OW72064   4.540   4.200   9.050 -0.2020  0.2661 -0.4626
23829SOL    HW172065   4.466   4.257   9.070  0.1532  0.8111 -0.6876
23829SOL    HW272066   4.534   4.184   8.956  0.1211  0.5399 -0.5329
23830SOL     OW72067   8.654   0.343   6.203 -0.2000 -0.1728  0.1246
23830SOL    HW172068   8.718   0.302   6.262  1.4479  0.4678 -1.1593
23830SOL    HW272069   8.702   0.357   6.121 -2.0027  0.3315 -0.8885
23831SOL     OW72070   2.465   9.274   9.503  0.1077 -0.3790  0.4011
23831SOL    HW172071   2.500   9.200   9.552 -0.8450 -1.8112 -0.9722
23831SOL    HW272072   2.517   9.278   9.423 -1.3436 -1.1567 -0.6468
23832SOL     OW72073   9.024   9.307   4.322  0.0503  0.0685 -0.2888
23832SOL    HW172074   8.962   9.309   4.249 -1.2021  2.0891  0.7155
23832SOL    HW272075   8.991   9.374   4.382  0.4318 -2.1522  2.6097
23833SOL     OW72076   4.045   5.353   3.614 -0.3548 -0.3795  0.1519
23833SOL    HW172077   3.960   5.312   3.628 -0.5699  0.5065  1.7196
23833SOL    HW272078   4.094   5.336   3.695 -0.2982  1.9693  0.6837
23834SOL     OW72079   9.138   6.855   8.334 -0.3894 -0.3670  0.0996
23834SOL    HW172080   9.196   6.923   8.368 -1.3086 -0.1090  1.2265
23834SOL    HW272081   9.079   6.835   8.407 -1.2221 -1.1658 -0.7612
23835SOL     OW72082   8.614   4.954   3.965 -0.2269 -0.1038 -0.2017
23835SOL    HW172083   8.553   4.956   4.038 -1.7889 -0.0086 -1.4516
23835SOL    HW272084   8.656   4.868   3.971 -2.4507 -1.3224 -0.7952
23836SOL     OW72085   1.871   5.433   2.852 -0.4679  0.2496 -0.3085
23836SOL    HW172086   1.936   5.474   2.796 -0.6514 -2.0989 -2.4051
23836SOL    HW272087   1.803   5.403   2.791 -2.2448  0.3263  1.5354
23837SOL     OW72088   1.342   2.200   7.398 -0.3511  0.1536  0.2700
23837SOL    HW172089   1.289   2.123   7.420 -0.6974 -0.3280 -1.9569
23837SOL    HW272090   1.391   2.173   7.320 -1.6601  2.6632 -1.5407
23838SOL     OW72091   9.972   6.507   6.229  0.2369  0.3222 -0.6280
23838SOL    HW172092   9.934   6.588   6.262 -0.2873 -0.2240  0.1506
23838SOL    HW272093   9.908   6.439   6.252  0.4226 -0.2450 -1.7295
23839SOL     OW72094   8.660   6.150   9.578 -0.1077 -0.4980 -0.7211
23839SOL    HW172095   8.647   6.139   9.672  0.3654 -0.2671 -0.6242
23839SOL    HW272096   8.731   6.214   9.571 -0.6964  0.1118 -1.2459
23840SOL     OW72097   2.739   5.524   0.099  0.4764 -1.0260 -0.6315
23840SOL    HW172098   2.759   5.485   0.184  0.5751 -3.0312 -1.5265
23840SOL    HW272099   2.821   5.518   0.049  0.4732  0.2856 -0.8473
23841SOL     OW72100   0.468   3.965   2.202 -0.6040 -0.1399 -0.9264
23841SOL    HW172101   0.449   3.951   2.295 -0.0872 -2.1840 -1.0720
23841SOL    HW272102   0.518   3.887   2.177  0.3961  0.9946 -2.6146
23842SOL     OW72103   4.132   1.322   1.437 -0.4471  1.1582  0.6353
23842SOL    HW172104   4.199   1.387   1.460  1.7994 -0.8687  0.1942
23842SOL    HW272105   4.116   1.274   1.519  1.6149 -0.8693 -0.0640
23843SOL     OW72106   9.725   2.753   3.686 -0.2554  0.5905  0.0359
23843SOL    HW172107   9.646   2.790   3.726  0.4069  0.7520  1.2442
23843SOL    HW272108   9.770   2.709   3.758  1.0475  0.9984 -0.5035
23844SOL     OW72109   5.958   8.795   0.832 -0.2508  0.3024 -0.7477
23844SOL    HW172110   5.995   8.759   0.751  2.6079  1.0903  0.0803
23844SOL    HW272111   5.966   8.890   0.821  1.3762  0.4138  0.8773
23845SOL     OW72112   6.138   9.161   8.610 -0.0130 -0.4584  0.5484
23845SOL    HW172113   6.118   9.247   8.572 -0.5075 -0.7272  0.1911
23845SOL    HW272114   6.232   9.163   8.626  0.1589 -0.2286 -0.4243
23846SOL     OW72115   3.289   0.917   5.481 -1.0647  0.2551 -0.3697
23846SOL    HW172116   3.242   0.921   5.398 -1.7413  0.5307  0.0108
23846SOL    HW272117   3.258   0.837   5.522  0.8751 -1.0314 -1.2853
23847SOL     OW72118   9.667   5.383   0.592  0.3956 -0.1133  0.1138
23847SOL    HW172119   9.696   5.434   0.517 -1.6775  0.2162 -0.5382
23847SOL    HW272120   9.693   5.435   0.668 -1.2248  1.7688 -0.5173
23848SOL     OW72121   2.876   5.058   0.163 -0.3663  0.0706  0.3551
23848SOL    HW172122   2.799   5.084   0.112 -0.8186 -0.0236  0.9829
23848SOL    HW272123   2.913   5.140   0.195  0.7228  0.2530 -1.2295
23849SOL     OW72124   6.099   4.659   6.543  0.3502 -1.0487  0.0052
23849SOL    HW172125   6.147   4.713   6.480  0.9914 -1.4853  0.1148
23849SOL    HW272126   6.006   4.675   6.522  0.4939  0.6821  0.5231
23850SOL     OW72127   0.840   2.643   5.140 -0.3232 -0.1290 -0.1296
23850SOL    HW172128   0.891   2.641   5.059  1.8629 -0.0923  1.1766
23850SOL    HW272129   0.893   2.694   5.201 -2.6192  1.1550  0.9178
23851SOL     OW72130   8.342   7.081   1.122  0.2124  0.3991  0.0824
23851SOL    HW172131   8.419   7.101   1.175  0.3479 -0.1262  0.0909
23851SOL    HW272132   8.377   7.068   1.033  0.2327 -0.5424  0.2212
23852SOL     OW72133   3.547   0.679   5.113  0.0192  0.0211  0.5504
23852SOL    HW172134   3.639   0.691   5.137 -0.1702 -2.2196  2.7330
23852SOL    HW272135   3.532   0.585   5.123 -2.6426  0.4116  0.7334
23853SOL     OW72136   8.837   1.983   4.597  0.2986  0.2479 -0.0446
23853SOL    HW172137   8.774   1.915   4.618 -0.0677  0.5410 -0.1847
23853SOL    HW272138   8.784   2.062   4.584  0.7159  0.5575  0.1079
23854SOL     OW72139   6.394   0.308   7.858  0.6562 -0.4760 -0.2145
23854SOL    HW172140   6.414   0.217   7.835  0.6979 -0.4381 -0.3281
23854SOL    HW272141   6.325   0.333   7.796  0.2726 -0.5980  0.1565
23855SOL     OW72142   2.688   9.450   7.667 -0.2301  0.0998  0.0449
23855SOL    HW172143   2.637   9.457   7.748 -0.5965 -0.1079 -0.1663
23855SOL    HW272144   2.698   9.356   7.653 -1.7720  0.0895 -1.1458
23856SOL     OW72145   3.457   7.091   3.107  0.0560  0.1880  0.1372
23856SOL    HW172146   3.410   7.056   3.182  1.2504  0.4907  1.0596
23856SOL    HW272147   3.544   7.051   3.111  0.6083  1.2800 -0.2427
23857SOL     OW72148   7.408   3.714   5.494  0.3477 -0.0722 -0.7072
23857SOL    HW172149   7.489   3.714   5.544 -0.4616  1.0231  0.6663
23857SOL    HW272150   7.385   3.806   5.485 -1.4676 -0.3935  0.1586
23858SOL     OW72151   0.569   4.986   9.471  0.1792 -0.3013 -0.4607
23858SOL    HW172152   0.635   5.054   9.484  0.7414 -0.6270 -1.4562
23858SOL    HW272153   0.596   4.914   9.528  1.3341 -0.8500 -1.6277
23859SOL     OW72154   5.691   0.113   4.994 -0.2911  0.0552  0.3939
23859SOL    HW172155   5.607   0.124   5.037 -0.5648 -0.4158 -0.0131
23859SOL    HW272156   5.680   0.156   4.909  0.0003  0.3190  0.4886
23860SOL     OW72157   2.824   9.452   5.478  0.2144  0.8530 -0.0665
23860SOL    HW172158   2.896   9.395   5.451 -0.1281 -0.3234  1.3754
23860SOL    HW272159   2.867   9.530   5.515  0.9888 -1.0687  3.5623
23861SOL     OW72160   6.945   1.157   6.871  0.1819  0.0659 -0.5559
23861SOL    HW172161   6.946   1.215   6.948  2.4633  1.8117 -1.7820
23861SOL    HW272162   6.853   1.134   6.860 -0.2380 -0.2494  2.6699
23862SOL     OW72163   7.976   3.992   7.236 -0.4123 -0.1036 -0.3101
23862SOL    HW172164   7.994   4.027   7.149 -1.8217 -0.5574 -0.8049
23862SOL    HW272165   7.966   4.070   7.291 -1.2683  0.2473 -0.9341
23863SOL     OW72166   0.622   7.759   0.644 -0.3704 -0.6377 -0.0170
23863SOL    HW172167   0.701   7.773   0.697 -0.4210 -2.4538  0.5957
23863SOL    HW272168   0.632   7.671   0.608 -0.0251  0.7110 -3.6698
23864SOL     OW72169   7.030   1.764   5.277  0.1359 -0.1113 -0.2198
23864SOL    HW172170   6.967   1.693   5.289  0.1483 -0.4269 -1.8633
23864SOL    HW272171   7.023   1.788   5.185  0.3712  1.8186  0.2195
23865SOL     OW72172   2.307   7.340   9.619  0.0628  0.0631 -0.1246
23865SOL    HW172173   2.266   7.273   9.565  0.1078 -0.4948  0.5232
23865SOL    HW272174   2.256   7.340   9.700  2.1611 -1.6738  1.3077
23866SOL     OW72175   4.868   5.479   2.888  0.0740 -0.1996  0.2116
23866SOL    HW172176   4.872   5.403   2.831 -0.5245  1.0382 -1.5783
23866SOL    HW272177   4.858   5.443   2.976  0.1291 -2.1702 -0.5418
23867SOL     OW72178   6.866   4.490   8.018 -0.2862  0.6151 -0.0279
23867SOL    HW172179   6.868   4.550   8.093  1.7167  0.6544 -0.0770
23867SOL    HW272180   6.841   4.545   7.944  0.2984  1.1299  0.1514
23868SOL     OW72181   4.545   9.303   5.459  0.0933  0.7072 -0.1285
23868SOL    HW172182   4.567   9.375   5.519  0.7083 -0.0691  0.5932
23868SOL    HW272183   4.630   9.268   5.432 -0.2076 -0.1220 -0.0240
23869SOL     OW72184   1.256   4.947   5.926 -0.4388 -0.1278 -0.0389
23869SOL    HW172185   1.227   4.987   6.008 -0.0406 -0.4587  0.2671
23869SOL    HW272186   1.329   4.890   5.952  1.1324  1.4064 -0.9208
23870SOL     OW72187   8.661   1.510   1.677  0.4307  0.2282 -0.2907
23870SOL    HW172188   8.567   1.491   1.680  0.4298  0.2878  1.1508
23870SOL    HW272189   8.696   1.468   1.756  1.7049 -0.1729 -1.0288
23871SOL     OW72190   6.014   8.058   0.072 -0.9879  0.0517  0.4063
23871SOL    HW172191   5.988   8.149   0.088  1.3498  1.0852 -1.0712
23871SOL    HW272192   6.073   8.036   0.144 -0.5949  0.1389  0.1120
23872SOL     OW72193   3.776   8.921   6.660 -0.1786  0.2886 -0.1786
23872SOL    HW172194   3.816   8.891   6.741  0.9158 -0.2346 -0.8859
23872SOL    HW272195   3.841   8.900   6.592 -1.8919 -1.1025 -1.4512
23873SOL     OW72196   6.476   0.191   0.134 -0.1944 -0.3429 -0.0333
23873SOL    HW172197   6.447   0.101   0.119  1.3166 -0.7939 -0.4361
23873SOL    HW272198   6.395   0.239   0.153 -1.1495 -1.5714 -0.7889
23874SOL     OW72199   4.624   3.870   1.924  0.1723 -0.0458  0.4070
23874SOL    HW172200   4.707   3.903   1.958  0.6963  0.5642 -1.3760
23874SOL    HW272201   4.629   3.775   1.938  0.4817  0.1483  1.7153
23875SOL     OW72202   7.165   5.811   1.793  0.5436  0.1448  0.2260
23875SOL    HW172203   7.115   5.881   1.750  0.1683 -0.6219 -0.6190
23875SOL    HW272204   7.161   5.738   1.732 -1.0191 -1.3976  2.0606
23876SOL     OW72205   8.022   3.518   7.231 -0.3179 -0.1299 -0.0848
23876SOL    HW172206   7.981   3.598   7.198  0.8373  0.0540 -1.1167
23876SOL    HW272207   8.053   3.542   7.318  1.0701  0.9264 -0.8463
23877SOL     OW72208   1.956   4.334   0.121 -0.2645 -0.3291 -0.5790
23877SOL    HW172209   1.967   4.239   0.122 -3.3146 -0.8678 -2.4660
23877SOL    HW272210   1.906   4.353   0.201  1.2296 -0.0839  0.3387
23878SOL     OW72211   9.739   8.339   6.925  0.1743  0.8624  0.0327
23878SOL    HW172212   9.726   8.413   6.984 -0.0105  1.2049 -0.4285
23878SOL    HW272213   9.738   8.262   6.982  0.9576  1.2544  0.5814
23879SOL     OW72214   7.566   3.739   9.121  0.4551  0.2376  0.1063
23879SOL    HW172215   7.521   3.785   9.192 -0.4610  1.1311 -1.0121
23879SOL    HW272216   7.658   3.762   9.133  0.3509  0.1461  1.1605
23880SOL     OW72217   0.509   0.618   7.325  0.2879  0.2644  0.5272
23880SOL    HW172218   0.452   0.695   7.316  0.8124  0.7238  1.1023
23880SOL    HW272219   0.462   0.561   7.386 -0.3604 -0.1280 -0.3149
23881SOL     OW72220   3.421   2.496   5.725 -0.5641 -0.3227  0.3178
23881SOL    HW172221   3.508   2.478   5.761 -0.5834  0.2306  0.6440
23881SOL    HW272222   3.414   2.591   5.724 -0.3364 -0.2824 -1.7206
23882SOL     OW72223   3.744   3.705   6.893 -0.0804 -0.2122  0.2143
23882SOL    HW172224   3.677   3.666   6.837  1.0268  0.8208 -1.9257
23882SOL    HW272225   3.694   3.743   6.966 -2.2284  2.5722 -2.4251
23883SOL     OW72226   5.126   6.706   3.227 -0.4800  0.4286  0.0506
23883SOL    HW172227   5.155   6.644   3.160 -0.1769  1.9053 -1.2531
23883SOL    HW272228   5.193   6.700   3.295 -0.3368 -0.4974 -0.1523
23884SOL     OW72229   1.771   8.882   9.471 -0.6269  0.1295 -0.4244
23884SOL    HW172230   1.852   8.861   9.425 -0.2317  0.7610 -0.0193
23884SOL    HW272231   1.798   8.935   9.546 -1.0967 -1.9585  1.3383
23885SOL     OW72232   2.275   2.407   1.057 -0.2797 -0.6381  0.5019
23885SOL    HW172233   2.361   2.441   1.032 -0.3143 -0.0408  1.1620
23885SOL    HW272234   2.282   2.391   1.151 -1.7096  2.0378  1.1660
23886SOL     OW72235   9.415   4.034   8.084 -0.0394  0.2490  0.2224
23886SOL    HW172236   9.371   3.988   8.012 -1.5996 -0.3131  1.4759
23886SOL    HW272237   9.506   4.006   8.078 -0.1748  0.0378 -1.3800
23887SOL     OW72238   1.827   3.727   7.646 -0.1467 -0.1259  0.2721
23887SOL    HW172239   1.880   3.679   7.583 -1.7891 -1.1830 -0.3624
23887SOL    HW272240   1.739   3.729   7.608 -0.7514  0.9268  1.6209
23888SOL     OW72241   9.238   9.266   3.372 -0.3600  0.0643  0.0621
23888SOL    HW172242   9.210   9.191   3.319  1.1554 -0.0670 -0.6199
23888SOL    HW272243   9.197   9.342   3.329 -0.9633 -0.2504  0.0643
23889SOL     OW72244   7.504   2.593   5.961  0.8583 -0.3059 -0.0960
23889SOL    HW172245   7.452   2.537   6.017 -0.5832  0.0308 -1.0405
23889SOL    HW272246   7.558   2.533   5.910 -0.1765 -0.8218 -0.6179
23890SOL     OW72247   0.243   0.362   7.737 -0.7512  0.2876  0.2887
23890SOL    HW172248   0.310   0.314   7.787 -0.8411 -0.2493 -0.1003
23890SOL    HW272249   0.162   0.346   7.785 -0.8367 -0.2241 -0.0145
23891SOL     OW72250   9.521   1.561   5.600  0.2349  0.4624  0.0370
23891SOL    HW172251   9.498   1.469   5.586  0.8278  0.1899  0.7687
23891SOL    HW272252   9.438   1.604   5.620 -0.3341  0.4642 -2.0617
23892SOL     OW72253   6.678   6.346   0.375 -0.2957  0.6591 -0.0515
23892SOL    HW172254   6.700   6.430   0.416 -0.4694 -0.4191  2.4300
23892SOL    HW272255   6.585   6.334   0.393 -0.1614 -0.2891  0.0553
23893SOL     OW72256   0.591   5.570   3.161  0.2714 -0.2562 -0.2453
23893SOL    HW172257   0.603   5.645   3.220 -1.1170 -0.7088  0.6675
23893SOL    HW272258   0.496   5.557   3.158  0.4568 -1.6214 -0.8367
23894SOL     OW72259   0.144   5.205   5.609  0.1459 -0.0991  0.0563
23894SOL    HW172260   0.095   5.259   5.670 -1.3200 -0.6865 -0.5370
23894SOL    HW272261   0.218   5.259   5.583 -0.2640  0.8953  0.8817
23895SOL     OW72262   0.656   0.575   4.211  0.0994 -0.7127 -0.1239
23895SOL    HW172263   0.581   0.566   4.270  0.5700  0.6378  0.7360
23895SOL    HW272264   0.629   0.531   4.131 -2.5441  1.6124 -0.6690
23896SOL     OW72265   2.253   7.991   9.142 -0.1635 -0.0558 -0.4884
23896SOL    HW172266   2.168   7.963   9.174  1.1235 -1.9389  1.6001
23896SOL    HW272267   2.305   8.007   9.221  1.3584  1.3372 -1.6794
23897SOL     OW72268   9.883   2.772   4.220 -0.3664  0.3865  0.2775
23897SOL    HW172269   9.882   2.742   4.129 -0.4874  1.9908 -0.2811
23897SOL    HW272270   9.823   2.713   4.265 -1.0749  0.1701 -0.9026
23898SOL     OW72271   5.373   9.137   9.169 -0.3595 -0.3813  0.1700
23898SOL    HW172272   5.405   9.223   9.143  0.9646 -0.7249  0.5607
23898SOL    HW272273   5.419   9.075   9.112  0.3783 -0.9461  1.3260
23899SOL     OW72274   4.906   6.255   0.357 -0.0650 -0.2839  0.1942
23899SOL    HW172275   4.952   6.324   0.310  0.1701 -0.8976 -0.5128
23899SOL    HW272276   4.850   6.300   0.420  0.5694  0.5146  0.1926
23900SOL     OW72277   6.358   2.623   6.322 -0.3576  0.1081 -0.2303
23900SOL    HW172278   6.298   2.553   6.349 -1.0075  0.5025 -0.6405
23900SOL    HW272279   6.312   2.704   6.341  1.8139  0.6654  3.8038
23901SOL     OW72280   4.380   9.386   9.405  0.5391 -0.7660 -0.5076
23901SOL    HW172281   4.322   9.361   9.333  1.5872 -1.2088 -1.2179
23901SOL    HW272282   4.377   9.311   9.465 -0.6774 -0.2160  0.1604
23902SOL     OW72283   7.046   3.857   1.488  0.2401 -0.7756  0.4424
23902SOL    HW172284   6.995   3.831   1.412 -1.1595 -1.5939  1.6047
23902SOL    HW272285   7.080   3.775   1.524  0.5611 -0.4375  0.9306
23903SOL     OW72286   8.612   9.520   6.248 -0.0237  0.4377  0.2290
23903SOL    HW172287   8.563   9.516   6.165 -0.7709 -0.3155  0.6913
23903SOL    HW272288   8.547   9.499   6.315  1.1835 -1.9442  0.7586
23904SOL     OW72289   1.685   3.570   5.388  0.1953 -0.0868 -0.6708
23904SOL    HW172290   1.596   3.562   5.423  0.7865  0.1134  0.9156
23904SOL    HW272291   1.701   3.486   5.345 -0.3152 -0.5818  0.0889
23905SOL     OW72292   5.658   3.835   0.981 -0.1140 -0.5274  0.0305
23905SOL    HW172293   5.678   3.926   1.001  0.4319 -0.7911  0.7039
23905SOL    HW272294   5.716   3.784   1.037 -0.2895 -1.2939 -0.4657
23906SOL     OW72295   4.660   5.522   1.163  0.8601 -0.9542 -0.2358
23906SOL    HW172296   4.703   5.437   1.169 -0.3630 -1.6267 -0.7166
23906SOL    HW272297   4.586   5.508   1.104  0.2798  0.2983  0.1523
23907SOL     OW72298   6.419   0.999   2.386 -0.0689 -0.3722 -0.2417
23907SOL    HW172299   6.440   0.935   2.453  0.7071 -1.2477 -1.2910
23907SOL    HW272300   6.325   1.015   2.396  0.2516  0.4610  1.8303
23908SOL     OW72301   8.437   1.899   0.434  0.4253 -0.1047 -0.1362
23908SOL    HW172302   8.410   1.863   0.350 -1.4955 -0.6001  0.6321
23908SOL    HW272303   8.523   1.861   0.450  1.3457  0.8683 -2.3388
23909SOL     OW72304   3.878   1.635   6.903  0.5256 -0.0766 -0.1089
23909SOL    HW172305   3.953   1.639   6.844 -0.3678 -0.5481 -1.3454
23909SOL    HW272306   3.860   1.542   6.912  1.4360 -0.0947  2.0221
23910SOL     OW72307   8.909   3.665   7.371 -0.0243  0.1011 -0.7473
23910SOL    HW172308   8.957   3.738   7.332 -0.1956 -0.8044 -2.8007
23910SOL    HW272309   8.940   3.662   7.462  0.8226  1.9870 -0.9115
23911SOL     OW72310   3.674   1.249   8.099 -0.4628 -0.0939 -0.1388
23911SOL    HW172311   3.604   1.230   8.161 -0.2900 -0.1537  0.0406
23911SOL    HW272312   3.727   1.316   8.143  0.3986 -1.0628  0.3394
23912SOL     OW72313   3.795   5.121   6.426 -0.0469 -0.3078  0.5850
23912SOL    HW172314   3.714   5.069   6.425 -0.5514  0.4728 -0.0565
23912SOL    HW272315   3.807   5.148   6.335  1.2039 -0.7957  0.5801
23913SOL     OW72316   7.914   6.647   9.968  0.1657  0.0096  0.5273
23913SOL    HW172317   7.834   6.638   9.917  0.5106 -0.2610  0.0181
23913SOL    HW272318   7.893   6.712  10.035 -0.6971 -0.5704  0.8414
23914SOL     OW72319   5.987   1.461   6.567  0.1380  0.4466  0.6419
23914SOL    HW172320   5.947   1.421   6.644  2.5241 -0.5552  1.4609
23914SOL    HW272321   5.963   1.554   6.572 -2.1831 -0.1230  0.9123
23915SOL     OW72322   8.941   4.086   5.493 -0.4541  0.6768  0.7199
23915SOL    HW172323   9.019   4.122   5.452  0.4236 -2.4747 -0.6310
23915SOL    HW272324   8.868   4.129   5.448  0.5240  0.8790 -0.7288
23916SOL     OW72325   6.992   0.799   5.192 -0.6172  0.1950  0.1151
23916SOL    HW172326   7.016   0.883   5.151  0.6592 -0.4096 -0.4384
23916SOL    HW272327   7.073   0.768   5.232 -1.0164 -0.8985  0.1086
23917SOL     OW72328   6.046   6.749   1.449  0.5044 -0.4706  0.4873
23917SOL    HW172329   5.998   6.763   1.531  1.3535 -2.6419  1.4128
23917SOL    HW272330   6.033   6.657   1.429  0.3785 -0.0101 -1.8448
23918SOL     OW72331   6.690   6.120   1.834 -0.1374 -0.3680  0.0553
23918SOL    HW172332   6.767   6.107   1.889 -0.4267 -1.5461  0.2241
23918SOL    HW272333   6.672   6.033   1.798 -2.6236 -0.6352  1.6899
23919SOL     OW72334   7.614   4.426   7.530 -0.0062 -0.1338  0.4508
23919SOL    HW172335   7.662   4.502   7.565  1.1935  0.5182 -2.3805
23919SOL    HW272336   7.530   4.428   7.577 -0.1989  3.2251  0.2270
23920SOL     OW72337   4.651   6.748   0.376  0.1640  0.0408  0.1269
23920SOL    HW172338   4.742   6.774   0.361 -0.2872  0.6765 -1.9364
23920SOL    HW272339   4.632   6.686   0.305 -1.0048 -0.0944  0.5304
23921SOL     OW72340   9.945   6.965   9.910  0.4710 -0.1665  0.6593
23921SOL    HW172341   9.854   6.949   9.937 -0.6296 -0.2484 -2.6235
23921SOL    HW272342   9.975   7.034   9.969 -1.8063  0.0145  1.7286
23922SOL     OW72343   9.455   4.701   1.007 -0.3438 -0.5145  0.0117
23922SOL    HW172344   9.383   4.739   1.057  0.2677 -1.8349  2.0283
23922SOL    HW272345   9.424   4.614   0.982 -0.3392 -0.1660 -1.2898
23923SOL     OW72346   6.700   4.858   6.004 -0.1940 -0.9615  0.0820
23923SOL    HW172347   6.636   4.845   5.934  1.4451 -2.0352 -1.2852
23923SOL    HW272348   6.751   4.934   5.976 -1.0895  0.1878  1.3958
23924SOL     OW72349   1.744   3.568   9.696  0.4560 -0.5396  0.1182
23924SOL    HW172350   1.797   3.628   9.749  0.0217  0.4524 -0.5440
23924SOL    HW272351   1.796   3.552   9.618  0.3913 -0.7055  0.1078
23925SOL     OW72352   6.366   9.793   9.845 -0.4567 -0.0361  0.1092
23925SOL    HW172353   6.292   9.734   9.857  0.9665 -1.8160  0.5576
23925SOL    HW272354   6.407   9.763   9.764 -0.1380  0.8509 -0.0669
23926SOL     OW72355   1.965   4.990   8.500 -0.5518  0.2498  0.0089
23926SOL    HW172356   2.034   5.057   8.499  0.6308 -0.9036  1.0149
23926SOL    HW272357   1.999   4.922   8.558 -2.5887 -0.3359  0.5703
23927SOL     OW72358   7.743   8.864   0.095  0.2089 -0.4825 -0.2695
23927SOL    HW172359   7.659   8.853   0.050  0.6690 -1.6364 -0.8853
23927SOL    HW272360   7.805   8.885   0.026  0.2976  1.3339  0.2918
23928SOL     OW72361   4.603   2.527   0.189  0.0767 -0.3744 -0.0835
23928SOL    HW172362   4.622   2.441   0.151  0.6353  0.1292 -0.9882
23928SOL    HW272363   4.688   2.567   0.202 -0.2139  0.5708 -0.9658
23929SOL     OW72364   9.234   9.321   6.909  0.0312 -0.3704  0.0340
23929SOL    HW172365   9.309   9.265   6.891  1.1576  0.7968  0.9368
23929SOL    HW272366   9.172   9.302   6.839  1.9206 -0.0371 -1.7983
23930SOL     OW72367   7.326   5.853   5.814 -0.3248 -0.3379 -0.3724
23930SOL    HW172368   7.313   5.897   5.898  0.2627  1.2128 -1.0429
23930SOL    HW272369   7.401   5.795   5.829 -0.8651 -0.8539  0.4299
23931SOL     OW72370   3.154   1.890   9.101  0.5366 -0.1202  0.0218
23931SOL    HW172371   3.178   1.808   9.058 -1.3863 -0.7892  0.1112
23931SOL    HW272372   3.195   1.959   9.048 -1.4244 -0.9184 -2.7661
23932SOL     OW72373   6.031   2.667   5.757 -0.5145  0.1495  0.5465
23932SOL    HW172374   6.111   2.638   5.800 -0.4951  0.3128  0.6207
23932SOL    HW272375   5.966   2.602   5.782 -0.0261 -0.9170 -0.8671
23933SOL     OW72376   5.656   2.372   6.897 -0.0174 -0.2107  0.1245
23933SOL    HW172377   5.613   2.417   6.970  0.2115 -1.3966  1.0311
23933SOL    HW272378   5.592   2.374   6.826 -0.7769 -0.1832  0.7970
23934SOL     OW72379   7.820   4.703   5.857  0.4616 -0.1914 -0.6551
23934SOL    HW172380   7.757   4.680   5.788  0.6019 -1.4715 -0.3813
23934SOL    HW272381   7.850   4.791   5.833  1.1535 -0.9271 -2.7077
23935SOL     OW72382   0.806   6.728   5.201 -0.1074  0.3982 -0.2303
23935SOL    HW172383   0.760   6.647   5.178  0.5684 -1.1753  3.2646
23935SOL    HW272384   0.894   6.716   5.166 -0.9432  1.3196 -2.8365
23936SOL     OW72385   7.206   5.430   4.554  0.3128  0.1905  0.0717
23936SOL    HW172386   7.177   5.520   4.565 -0.7346 -0.0985 -0.1773
23936SOL    HW272387   7.168   5.383   4.629  0.8944 -0.0354  0.2300
23937SOL     OW72388   0.347   0.906   3.931  0.5702  0.2728 -0.0281
23937SOL    HW172389   0.427   0.883   3.978  0.1039  1.4438  1.3720
23937SOL    HW272390   0.304   0.972   3.985 -0.5513  0.8578 -1.5468
23938SOL     OW72391   6.512   8.980   5.963 -0.4617 -0.4440  0.8629
23938SOL    HW172392   6.594   8.933   5.952  0.8102  1.2817  2.3278
23938SOL    HW272393   6.480   8.994   5.873 -1.0789 -4.1868  0.3639
23939SOL     OW72394   9.608   1.185   1.759 -0.6371  0.1394  0.4550
23939SOL    HW172395   9.663   1.214   1.832 -1.3311  1.5159  0.4657
23939SOL    HW272396   9.660   1.206   1.680 -1.3118  1.9367  0.4417
23940SOL     OW72397   1.268   6.917   3.673 -0.2283  0.4273 -0.4054
23940SOL    HW172398   1.201   6.935   3.738  1.2877  1.1319  1.0379
23940SOL    HW272399   1.249   6.976   3.600 -2.8337 -1.4168 -1.3696
23941SOL     OW72400   9.349   7.494   8.957 -0.6482 -0.1225  0.8381
23941SOL    HW172401   9.283   7.556   8.926  0.8801  1.3541  0.4103
23941SOL    HW272402   9.374   7.525   9.044  1.1894  0.8285  0.0349
23942SOL     OW72403   2.154   2.234   2.584  0.3855 -0.8725  0.3055
23942SOL    HW172404   2.234   2.196   2.547  0.3354 -0.5019 -0.1938
23942SOL    HW272405   2.128   2.173   2.653  1.3428 -0.7791  0.7656
23943SOL     OW72406   4.854   9.287   9.689 -0.1059  0.2320 -0.3951
23943SOL    HW172407   4.885   9.353   9.628 -0.2564 -0.1422 -0.8804
23943SOL    HW272408   4.835   9.335   9.770 -0.1425  0.7655 -0.7235
23944SOL     OW72409   6.850   4.583   0.783  0.2080  0.1265  0.0991
23944SOL    HW172410   6.904   4.651   0.824  0.2308 -0.4501  1.0464
23944SOL    HW272411   6.787   4.558   0.850  1.0641 -1.7435  0.2931
23945SOL     OW72412   2.655   0.577   9.219  0.4521  0.2485 -0.0614
23945SOL    HW172413   2.701   0.581   9.303  0.0316 -1.5426  0.2953
23945SOL    HW272414   2.723   0.595   9.154  1.2795 -0.5441  0.5569
23946SOL     OW72415   1.860   6.153   8.051 -0.2438 -0.3531  0.1447
23946SOL    HW172416   1.868   6.184   7.960  0.9866 -2.3852 -0.5212
23946SOL    HW272417   1.777   6.187   8.081  1.2730  4.2236 -0.1526
23947SOL     OW72418   9.799   4.956   5.075  1.1542 -0.6704  0.4953
23947SOL    HW172419   9.843   5.023   5.022 -1.4611  0.2211 -0.6978
23947SOL    HW272420   9.760   5.004   5.148  0.5823 -1.1361  0.5048
23948SOL     OW72421   2.817   9.246   8.486 -0.0029 -0.1729 -0.9565
23948SOL    HW172422   2.800   9.185   8.558 -2.3704 -0.2441 -1.4776
23948SOL    HW272423   2.818   9.332   8.528  0.0730 -0.3238 -0.6411
23949SOL     OW72424   5.687   4.139   4.031  0.0642  0.1839  0.3697
23949SOL    HW172425   5.683   4.226   4.069  1.1305  0.0931  0.7130
23949SOL    HW272426   5.745   4.147   3.955 -0.8313  0.0307 -0.3601
23950SOL     OW72427   1.969   3.084   0.443 -0.3236 -0.1445 -0.2410
23950SOL    HW172428   1.973   3.053   0.533 -0.9483 -0.3526 -0.2807
23950SOL    HW272429   2.013   3.017   0.392  0.8801  0.4270  0.0140
23951SOL     OW72430   1.398   3.015   2.855  0.6891 -0.3255 -0.2028
23951SOL    HW172431   1.479   2.994   2.809 -1.0996 -1.4076 -3.1997
23951SOL    HW272432   1.410   3.105   2.885  2.4956  0.0426 -1.8002
23952SOL     OW72433   4.488   2.188   7.388  0.6047 -0.5582  0.1289
23952SOL    HW172434   4.476   2.277   7.355 -0.0839  0.2202  2.3221
23952SOL    HW272435   4.570   2.193   7.438 -1.1074 -0.1648  3.1111
23953SOL     OW72436   7.677   6.113   7.071  0.1421  0.4468  0.2113
23953SOL    HW172437   7.683   6.038   7.131 -0.1510 -0.0493 -0.3699
23953SOL    HW272438   7.716   6.185   7.120 -1.2143  0.3561  1.4933
23954SOL     OW72439   1.631   5.476   9.337 -0.2797 -0.6607 -0.1208
23954SOL    HW172440   1.698   5.408   9.335  0.1896 -0.2239  0.3242
23954SOL    HW272441   1.643   5.524   9.255  0.6557  0.0565  0.4048
23955SOL     OW72442   1.754   2.858   8.756 -0.0109  0.1205  0.1292
23955SOL    HW172443   1.813   2.839   8.829  0.5876 -2.1969 -0.8431
23955SOL    HW272444   1.680   2.798   8.769 -1.2979  1.6904  0.3256
23956SOL     OW72445   9.069   2.604   1.188  0.8902  0.6356  0.5848
23956SOL    HW172446   9.025   2.548   1.125  2.2782 -0.7427  0.7485
23956SOL    HW272447   9.000   2.635   1.247 -0.1785  0.6500 -0.6504
23957SOL     OW72448   7.859  -0.016   1.523 -0.5391  0.0890  0.5581
23957SOL    HW172449   7.790   0.013   1.463  1.6416  0.7565 -1.8408
23957SOL    HW272450   7.870   0.056   1.585 -1.7648  0.0845  0.8058
23958SOL     OW72451   5.820   0.794   1.923 -0.3014 -0.0604 -0.0664
23958SOL    HW172452   5.736   0.805   1.879 -0.2516 -0.7067 -0.3333
23958SOL    HW272453   5.820   0.703   1.951  0.5636 -0.2334 -0.6068
23959SOL     OW72454   5.786   0.152   6.706 -0.3838  0.2304  0.2169
23959SOL    HW172455   5.857   0.094   6.733  0.1595  0.1422 -1.3089
23959SOL    HW272456   5.707   0.112   6.743  0.0126 -1.3474 -0.5824
23960SOL     OW72457   9.321   2.131   8.459  0.4640 -0.3817  0.2339
23960SOL    HW172458   9.291   2.082   8.536  1.1552 -0.7453  0.2816
23960SOL    HW272459   9.299   2.222   8.479  2.1872 -0.2130  1.6874
23961SOL     OW72460   7.079   6.488   3.770  0.2204 -0.1488 -0.0357
23961SOL    HW172461   7.163   6.471   3.812 -0.3574 -0.0193  1.2383
23961SOL    HW272462   7.015   6.446   3.828 -0.6320  0.1947 -0.7076
23962SOL     OW72463   6.206   5.594   2.056 -0.0495  0.0998 -0.4778
23962SOL    HW172464   6.227   5.511   2.012  0.1225 -0.5421  0.7695
23962SOL    HW272465   6.283   5.649   2.042  0.2888 -0.3489 -0.4018
23963SOL     OW72466   6.889   3.645   0.827 -0.3130 -0.2444  0.1942
23963SOL    HW172467   6.844   3.561   0.814  2.5660 -2.0286  0.8869
23963SOL    HW272468   6.949   3.652   0.752  0.5490  0.4172  0.9243
23964SOL     OW72469   3.823   5.941   1.921  0.5201 -0.3751 -0.1431
23964SOL    HW172470   3.779   6.023   1.944 -0.4258 -1.3172  1.6951
23964SOL    HW272471   3.823   5.939   1.825 -0.5231  1.2011 -0.2140
23965SOL     OW72472   4.135   1.765   0.303 -0.4645  0.7030  0.1743
23965SOL    HW172473   4.042   1.761   0.281 -0.1598  1.5270 -1.3759
23965SOL    HW272474   4.180   1.726   0.228  0.5065  1.5227  0.3027
23966SOL     OW72475   9.773   9.245   6.315 -0.1762 -0.3178 -0.3977
23966SOL    HW172476   9.808   9.333   6.297  0.8576 -0.6052  0.1042
23966SOL    HW272477   9.836   9.186   6.274  0.2540 -0.8731  1.0108
23967SOL     OW72478   3.917   1.649   9.662  0.0954 -1.0983 -0.2913
23967SOL    HW172479   3.877   1.660   9.748 -1.4154  0.0250 -1.0972
23967SOL    HW272480   4.010   1.663   9.677  0.0363 -2.1834  1.3657
23968SOL     OW72481   6.575   5.956   7.919 -0.0325  0.0258  0.2177
23968SOL    HW172482   6.652   5.998   7.882 -0.2914  0.5272  0.2404
23968SOL    HW272483   6.605   5.922   8.003  1.4105 -3.8010 -1.6053
23969SOL     OW72484   0.354   3.174   3.839  0.5862 -0.1462  0.1231
23969SOL    HW172485   0.326   3.174   3.930  0.8857  0.7718  0.2311
23969SOL    HW272486   0.399   3.090   3.827  0.6341 -0.2256  0.8462
23970SOL     OW72487   3.435   7.368   8.830  0.6335 -0.0263  0.3506
23970SOL    HW172488   3.388   7.380   8.748 -0.9796 -1.1498  1.0652
23970SOL    HW272489   3.515   7.421   8.820  0.3468  0.0682 -1.8007
23971SOL     OW72490   7.826   8.810   0.796  0.0532 -0.6213  0.4297
23971SOL    HW172491   7.884   8.734   0.788  1.4143  0.1981  1.8001
23971SOL    HW272492   7.846   8.864   0.719 -0.4362 -1.3236 -0.1973
23972SOL     OW72493   0.937   6.987   9.174 -0.0420 -0.0434 -0.0569
23972SOL    HW172494   0.917   7.002   9.082 -2.5589  2.2868  0.7201
23972SOL    HW272495   0.864   7.028   9.221  1.4912 -0.5286  3.0032
23973SOL     OW72496   4.905   8.537   2.568 -0.5651  0.1287 -0.1044
23973SOL    HW172497   4.871   8.481   2.498  2.8101 -0.7374 -1.2455
23973SOL    HW272498   4.939   8.614   2.523  0.8630 -0.0297  0.6607
23974SOL     OW72499   8.005   5.283   6.026 -0.7003  0.1767 -0.1160
23974SOL    HW172500   8.012   5.206   6.083 -1.0534  0.9908  1.0815
23974SOL    HW272501   7.927   5.267   5.973 -1.1616  0.0012  0.6010
23975SOL     OW72502   2.295   8.414   7.377  0.1437 -0.3505 -0.6905
23975SOL    HW172503   2.241   8.483   7.340  1.5090  0.3249 -1.4697
23975SOL    HW272504   2.354   8.459   7.438  0.2342 -1.0003 -0.2817
23976SOL     OW72505   6.977   0.916   7.678 -0.3327 -0.3375 -0.0589
23976SOL    HW172506   6.978   0.912   7.583 -0.4000 -0.2621 -0.0627
23976SOL    HW272507   6.952   0.828   7.706 -2.3001  0.1405 -0.1532
23977SOL     OW72508   4.433   3.834   2.310 -0.3207  0.4600 -0.3197
23977SOL    HW172509   4.526   3.824   2.329 -0.3946  0.9644  0.3458
23977SOL    HW272510   4.397   3.746   2.321 -0.0517  0.4066  0.1749
23978SOL     OW72511   0.717   6.821   3.632  0.5989  0.7130 -0.0820
23978SOL    HW172512   0.719   6.725   3.631 -0.7768  0.6626 -0.2388
23978SOL    HW272513   0.805   6.847   3.603  1.3186 -0.4861  0.9268
23979SOL     OW72514   7.576   3.609   4.648  0.3645 -0.1918  0.3241
23979SOL    HW172515   7.652   3.657   4.616  0.7626  0.6158  2.3572
23979SOL    HW272516   7.573   3.628   4.741 -1.8476 -0.9113  0.4481
23980SOL     OW72517   3.784   9.196   3.964 -0.4570  0.0632  0.0909
23980SOL    HW172518   3.761   9.258   3.895  0.9709 -2.2357 -2.6281
23980SOL    HW272519   3.854   9.240   4.013  0.3761  0.7284 -1.6247
23981SOL     OW72520   3.391   7.350   4.856 -0.5624  0.2936  0.8552
23981SOL    HW172521   3.461   7.297   4.894  0.2029  0.0987 -0.7101
23981SOL    HW272522   3.429   7.383   4.774 -1.6617  1.7545  0.8949
23982SOL     OW72523   6.494   9.434   6.367  0.7862 -0.6709  0.5309
23982SOL    HW172524   6.444   9.474   6.296  1.0139 -0.4181  0.5124
23982SOL    HW272525   6.554   9.374   6.324  0.1552 -1.3580  0.5850
23983SOL     OW72526   3.781   2.839   8.338  0.3864  0.4014  0.2656
23983SOL    HW172527   3.692   2.831   8.305 -0.2481  2.1149  1.4666
23983SOL    HW272528   3.813   2.921   8.301  0.4412  1.2300  2.0485
23984SOL     OW72529   0.336   1.386   0.796 -0.5206 -0.0141  0.0985
23984SOL    HW172530   0.386   1.310   0.765 -1.2149 -0.6249  0.4260
23984SOL    HW272531   0.275   1.349   0.861  0.2218  1.0721  1.4711
23985SOL     OW72532   6.689   4.867   6.500 -0.1743  0.8003  0.1575
23985SOL    HW172533   6.662   4.893   6.412  3.7514  2.9291 -0.6380
23985SOL    HW272534   6.695   4.771   6.497 -0.6046  0.8081 -1.7278
23986SOL     OW72535   4.728   3.885   6.935  0.1116  0.7981 -0.2490
23986SOL    HW172536   4.721   3.980   6.946 -0.0879  0.4855  4.0239
23986SOL    HW272537   4.813   3.863   6.975 -1.0809 -0.9911  1.4976
23987SOL     OW72538   1.167   1.946   8.715 -0.4640  0.7219 -0.3079
23987SOL    HW172539   1.120   1.898   8.783  1.5140 -0.4249  0.3330
23987SOL    HW272540   1.233   1.997   8.762 -1.0684  2.3899 -1.1643
23988SOL     OW72541   6.880   0.173   3.721 -0.0121  0.2664  0.2527
23988SOL    HW172542   6.844   0.227   3.792 -2.0009  2.2372 -2.0779
23988SOL    HW272543   6.808   0.115   3.695  0.9468 -0.9992  0.2979
23989SOL     OW72544   7.807   3.279   8.882 -0.1725  0.5667 -0.2510
23989SOL    HW172545   7.811   3.306   8.974 -1.3813 -0.8710  0.2749
23989SOL    HW272546   7.772   3.190   8.885  0.5500  0.1777 -2.0702
23990SOL     OW72547   1.089   6.375   8.251  0.3262  0.5253  0.6112
23990SOL    HW172548   0.994   6.366   8.245  0.3224  0.8862  0.0266
23990SOL    HW272549   1.103   6.470   8.262  0.6577  0.5937 -0.3362
23991SOL     OW72550   3.881  -0.029   8.430  0.1001  0.2895 -0.2449
23991SOL    HW172551   3.838   0.053   8.453  0.1471  0.2919 -0.1673
23991SOL    HW272552   3.974  -0.012   8.443  0.0517 -0.0389  0.5868
23992SOL     OW72553   4.343   7.998   8.574  0.2838 -0.0890  0.0507
23992SOL    HW172554   4.347   7.912   8.616 -1.9749 -0.7687 -0.9693
23992SOL    HW272555   4.406   7.993   8.502 -0.3496 -1.1800 -0.4470
23993SOL     OW72556   2.433   8.995   8.607  0.4006  1.0551  0.1980
23993SOL    HW172557   2.349   8.997   8.654  0.1756  1.1358 -0.1987
23993SOL    HW272558   2.426   8.920   8.549  0.9124  0.6008  0.7065
23994SOL     OW72559   2.952   8.290   5.785  0.0101  0.4764 -0.4511
23994SOL    HW172560   3.030   8.338   5.812  0.4691  0.1243 -1.1036
23994SOL    HW272561   2.985   8.223   5.724 -0.2281 -2.2023  2.1107
23995SOL     OW72562   9.868   0.306   1.739  0.0232  0.1349 -0.1523
23995SOL    HW172563   9.821   0.389   1.751 -0.9079 -0.4462  0.3922
23995SOL    HW272564   9.826   0.265   1.663 -1.0589 -0.8286  0.9198
23996SOL     OW72565   8.687   1.718   3.495  0.0802 -0.5525 -0.5772
23996SOL    HW172566   8.649   1.674   3.571 -1.6342 -0.6110 -1.4042
23996SOL    HW272567   8.779   1.691   3.495  0.2096 -0.3044  1.6081
23997SOL     OW72568   7.493   1.120   8.806  0.2775  0.5559  0.0090
23997SOL    HW172569   7.468   1.029   8.790  0.9555  0.6715 -1.9549
23997SOL    HW272570   7.427   1.152   8.868 -0.4069 -1.0416  0.1733
23998SOL     OW72571   8.908   7.929   9.733 -0.0937 -0.1347 -0.5348
23998SOL    HW172572   8.890   7.964   9.820 -0.9837 -1.4512 -0.1452
23998SOL    HW272573   8.829   7.949   9.683  0.6899  1.2402 -1.2823
23999SOL     OW72574   7.965   1.023   7.729 -0.7293 -0.2940 -0.1144
23999SOL    HW172575   8.037   1.083   7.748 -1.1180  0.1077  0.1150
23999SOL    HW272576   8.004   0.956   7.674 -0.6664  1.1307 -1.9096
24000SOL     OW72577   5.870   5.219   3.379 -0.1103 -0.5979 -0.2364
24000SOL    HW172578   5.795   5.241   3.436  0.1496 -0.9525  0.2493
24000SOL    HW272579   5.940   5.278   3.409 -0.5998  0.7609 -1.6487
24001SOL     OW72580   8.751   1.331   3.091 -0.2146  0.0742 -0.1231
24001SOL    HW172581   8.705   1.265   3.039  0.3800  1.1714 -2.2001
24001SOL    HW272582   8.844   1.314   3.074 -0.0074  0.5403  0.5035
24002SOL     OW72583   2.953   8.679   2.250 -0.4915 -0.1304  0.4792
24002SOL    HW172584   2.995   8.678   2.336  1.3248  0.8444 -0.3336
24002SOL    HW272585   2.904   8.761   2.249 -1.3317 -0.6101  0.9147
24003SOL     OW72586   5.575   3.106   0.603  0.1192 -0.1174  0.6365
24003SOL    HW172587   5.500   3.066   0.649  0.0243 -0.1731  0.4329
24003SOL    HW272588   5.547   3.112   0.512  0.2656  0.0977  0.6049
24004SOL     OW72589   4.422   1.332   8.393 -0.4132 -0.3787 -0.2098
24004SOL    HW172590   4.477   1.409   8.402  2.8376 -2.7068  1.6873
24004SOL    HW272591   4.332   1.367   8.392  0.8862  3.5137 -1.9595
24005SOL     OW72592   2.563   4.116   9.938 -0.6801  0.4191  0.2671
24005SOL    HW172593   2.545   4.106   9.844 -0.9014  2.0262  0.1026
24005SOL    HW272594   2.509   4.050   9.980 -2.2502  1.0628 -0.6295
24006SOL     OW72595   7.893   7.686   5.926  0.2303 -0.8613 -0.2860
24006SOL    HW172596   7.883   7.715   6.017  0.3726  1.2793 -0.9090
24006SOL    HW272597   7.806   7.695   5.888 -0.0643 -2.7180 -0.1454
24007SOL     OW72598   0.265   2.335   4.867  0.1994  0.0758 -0.3575
24007SOL    HW172599   0.317   2.323   4.947 -0.5818  0.0218  0.1567
24007SOL    HW272600   0.310   2.404   4.819 -0.1870  1.2549  0.9027
24008SOL     OW72601   2.882   7.257   2.632 -0.5039 -0.0346 -0.2782
24008SOL    HW172602   2.877   7.227   2.542  1.2235 -1.2570 -0.0204
24008SOL    HW272603   2.896   7.177   2.683 -1.9372  0.5650  1.1599
24009SOL     OW72604   3.637   1.730   4.141 -0.7526  0.6346 -0.2480
24009SOL    HW172605   3.701   1.797   4.117 -1.1743  0.2408 -2.6777
24009SOL    HW272606   3.690   1.651   4.155 -0.5831  0.5755 -1.1575
24010SOL     OW72607   7.822   6.626   2.278  0.1599  0.1600 -0.4058
24010SOL    HW172608   7.785   6.710   2.250  0.2042  0.0486 -0.8110
24010SOL    HW272609   7.851   6.584   2.197 -0.7143 -0.6547 -0.3202
24011SOL     OW72610   3.055   4.059   1.956  0.0773  0.0167  0.2553
24011SOL    HW172611   3.027   4.057   2.047  1.2014  0.8606  0.6453
24011SOL    HW272612   3.053   3.968   1.928  1.9645 -0.5931  1.8533
24012SOL     OW72613   3.823   8.992   9.631  0.0240 -0.1480 -0.1159
24012SOL    HW172614   3.910   8.995   9.589 -0.5694 -0.2523 -1.4172
24012SOL    HW272615   3.838   8.945   9.713  1.1595 -0.4089 -0.4426
24013SOL     OW72616   2.109   4.862   0.512  0.2247  0.1278  0.6877
24013SOL    HW172617   2.028   4.812   0.508  1.0718 -1.2474 -0.0732
24013SOL    HW272618   2.174   4.800   0.545  1.5112  0.3765 -1.1881
24014SOL     OW72619   6.196   1.365   0.034 -0.0343  0.3759 -0.0982
24014SOL    HW172620   6.115   1.375   0.084  0.5970  0.6431  0.8927
24014SOL    HW272621   6.167   1.336  -0.053 -1.2093  0.8219  0.1312
24015SOL     OW72622   0.698   6.895   1.775 -0.3993 -0.1919 -0.1027
24015SOL    HW172623   0.637   6.893   1.848 -1.6528  0.9946 -1.0646
24015SOL    HW272624   0.676   6.975   1.727 -0.3835 -1.4709 -2.3934
24016SOL     OW72625   4.026   1.218   4.720 -0.0473 -0.4200  0.0776
24016SOL    HW172626   3.991   1.286   4.662 -2.0513 -2.5030 -1.3472
24016SOL    HW272627   4.117   1.244   4.736 -0.0267  1.3120 -2.3185
24017SOL     OW72628   3.845   1.525   8.916 -0.2657  0.0547 -0.1809
24017SOL    HW172629   3.929   1.489   8.941 -0.1896  1.0345  1.0861
24017SOL    HW272630   3.849   1.533   8.821  1.4802  1.0654 -0.0505
24018SOL     OW72631   2.830   0.715   3.092 -0.2271  0.3007  0.0164
24018SOL    HW172632   2.862   0.790   3.142 -0.0992 -1.1944  2.3140
24018SOL    HW272633   2.743   0.742   3.063  0.4018  1.8765 -0.5005
24019SOL     OW72634   6.404   6.632   9.773  0.1756  0.0604  0.2851
24019SOL    HW172635   6.341   6.618   9.702 -0.8629  3.2422  0.4325
24019SOL    HW272636   6.389   6.560   9.833 -0.3018 -1.6218 -1.7204
24020SOL     OW72637   1.236   1.228   0.057 -0.5742  0.1467  0.5718
24020SOL    HW172638   1.158   1.231   0.113 -0.4970  1.6454  0.6271
24020SOL    HW272639   1.309   1.222   0.118 -0.5784  0.0696  0.5692
24021SOL     OW72640   5.247   7.902   2.690  0.2665 -0.0317 -0.3949
24021SOL    HW172641   5.284   7.846   2.759 -1.2810 -1.1978 -0.4578
24021SOL    HW272642   5.313   7.971   2.677  0.8990 -0.1653  1.7556
24022SOL     OW72643   4.763   1.385   4.418  0.5311 -0.1523 -0.0565
24022SOL    HW172644   4.846   1.366   4.374  0.5387 -0.2155 -0.0160
24022SOL    HW272645   4.748   1.308   4.473  0.0716 -0.4705 -0.6161
24023SOL     OW72646   5.590   4.487   1.566 -0.4880 -0.0643 -0.1464
24023SOL    HW172647   5.626   4.421   1.626 -0.0462 -0.1842 -0.5299
24023SOL    HW272648   5.567   4.437   1.488  0.1219  0.2747 -0.5527
24024SOL     OW72649   0.345   4.157   3.276 -0.0929  0.2756 -0.0855
24024SOL    HW172650   0.334   4.251   3.284  0.1584  0.1794  2.1316
24024SOL    HW272651   0.273   4.129   3.219 -1.0670  1.6237  0.4259
24025SOL     OW72652   7.135   5.383   7.993 -0.1685 -0.3474  0.1040
24025SOL    HW172653   7.055   5.412   7.951 -0.8036  0.6777  1.9174
24025SOL    HW272654   7.123   5.288   8.004  0.5199 -0.8685 -2.9285
24026SOL     OW72655   3.185   6.164   5.204 -0.1526  0.1791  0.3055
24026SOL    HW172656   3.238   6.160   5.283  0.0836 -0.5950  0.1204
24026SOL    HW272657   3.142   6.250   5.208  1.1829  0.8799  0.4129
24027SOL     OW72658   6.030   7.920   1.182 -0.4994 -0.1491  0.2411
24027SOL    HW172659   6.020   7.825   1.178 -0.9145 -0.1168  0.4781
24027SOL    HW272660   5.941   7.954   1.183 -0.3854  0.1714  1.8574
24028SOL     OW72661   5.806   8.350   3.507 -0.6418 -0.3450  0.2704
24028SOL    HW172662   5.815   8.395   3.423 -1.3485 -1.3138 -0.3512
24028SOL    HW272663   5.824   8.258   3.487  0.3785 -0.4208  1.4324
24029SOL     OW72664   8.576   4.125   4.029 -0.3124 -0.3544 -0.3814
24029SOL    HW172665   8.491   4.169   4.040  0.3745  0.9467 -0.0496
24029SOL    HW272666   8.556   4.032   4.034 -1.7593 -0.0776 -0.5606
24030SOL     OW72667   1.426   9.678   6.943  0.1514  0.1065 -0.3252
24030SOL    HW172668   1.476   9.680   7.025 -1.8354 -0.5651  0.9678
24030SOL    HW272669   1.456   9.599   6.898 -0.2066 -0.6752  0.7608
24031SOL     OW72670   2.455   4.803   9.420  0.4761  0.2977  0.2277
24031SOL    HW172671   2.471   4.710   9.407  3.4797  0.8805 -1.3010
24031SOL    HW272672   2.543   4.842   9.423 -0.6765  3.1406  0.3258
24032SOL     OW72673   0.209   8.815   3.466  0.4163 -0.1448 -0.7296
24032SOL    HW172674   0.242   8.894   3.509  0.9233 -0.7443  0.0096
24032SOL    HW272675   0.165   8.767   3.536 -1.1021  0.1292 -1.4746
24033SOL     OW72676   8.408   8.722   6.523  0.2726 -0.4334 -0.5558
24033SOL    HW172677   8.380   8.688   6.438  2.2031 -0.1785 -1.3469
24033SOL    HW272678   8.442   8.645   6.570  0.3969 -0.3705 -0.5402
24034SOL     OW72679   1.625   3.901   9.069 -0.3345  0.0482 -0.1828
24034SOL    HW172680   1.589   3.871   9.152 -0.8904 -2.8593 -1.3660
24034SOL    HW272681   1.694   3.838   9.049 -1.2319 -0.2402 -2.6174
24035SOL     OW72682   5.691   4.155   2.333 -0.1118 -0.1483 -0.2290
24035SOL    HW172683   5.656   4.111   2.256 -0.9886  1.1037 -0.5810
24035SOL    HW272684   5.701   4.086   2.398 -0.6163 -0.9997 -1.0335
24036SOL     OW72685   1.254   2.597   8.649  0.2479  0.5698  0.9110
24036SOL    HW172686   1.256   2.687   8.679  0.6860  0.9405 -0.1655
24036SOL    HW272687   1.187   2.596   8.580 -1.3357 -0.4354  2.3836
24037SOL     OW72688   2.232   9.573   3.759  0.0500 -0.1933 -0.1147
24037SOL    HW172689   2.184   9.495   3.785  0.2026 -0.6353 -1.1157
24037SOL    HW272690   2.322   9.543   3.746  0.0601  0.0966 -0.7406
24038SOL     OW72691   9.118   2.599   2.677 -0.5306 -0.0409 -0.1156
24038SOL    HW172692   9.137   2.506   2.662  1.6555  0.3292 -0.0179
24038SOL    HW272693   9.049   2.620   2.615  0.5551 -1.2097 -1.8019
24039SOL     OW72694   5.102   7.216   4.219  0.1201  0.1090  0.5396
24039SOL    HW172695   5.078   7.155   4.150 -0.3769  1.0097 -0.1144
24039SOL    HW272696   5.113   7.300   4.173  1.3302  0.4056  1.3155
24040SOL     OW72697   4.994   4.674   6.331  0.1969 -0.4031 -0.4150
24040SOL    HW172698   5.044   4.609   6.379  1.7467  0.1881 -1.1535
24040SOL    HW272699   5.059   4.739   6.304 -1.1386  0.9301 -0.5526
24041SOL     OW72700   8.366   7.749   8.821  0.3788 -0.2250  0.3528
24041SOL    HW172701   8.348   7.722   8.911  2.1187  0.3317  0.8847
24041SOL    HW272702   8.454   7.717   8.803 -0.0321 -0.5620 -1.2687
24042SOL     OW72703   9.476   7.854   8.178 -0.0591 -0.3574 -0.0960
24042SOL    HW172704   9.389   7.880   8.147 -0.1857 -0.4216  0.1984
24042SOL    HW272705   9.477   7.880   8.270 -0.2291 -1.4949  0.2441
24043SOL     OW72706   3.219   5.183   2.975  0.4013 -0.0034 -0.1598
24043SOL    HW172707   3.138   5.169   3.025  0.5135 -0.8726 -0.2001
24043SOL    HW272708   3.272   5.241   3.030 -0.3611  0.8062 -0.2655
24044SOL     OW72709   8.133   4.893   8.147  0.1142 -0.1138 -0.1510
24044SOL    HW172710   8.167   4.816   8.102  1.8572  0.5624 -0.0577
24044SOL    HW272711   8.064   4.859   8.203  0.9302 -1.6388 -0.0139
24045SOL     OW72712   0.463   7.920   5.368  0.6156  0.5620 -0.0958
24045SOL    HW172713   0.534   7.984   5.377 -0.1954  1.5310 -0.4929
24045SOL    HW272714   0.384   7.972   5.361 -0.0642 -0.4885 -0.4504
24046SOL     OW72715   8.660   7.272   4.801  0.5377 -0.3720  0.0109
24046SOL    HW172716   8.662   7.183   4.836  0.9179 -0.7234 -0.8733
24046SOL    HW272717   8.684   7.262   4.709 -0.9895  0.4457 -0.5109
24047SOL     OW72718   2.795   4.772   9.672  0.3626 -0.4373  0.7861
24047SOL    HW172719   2.825   4.689   9.636  0.6639  0.3894 -0.9365
24047SOL    HW272720   2.714   4.750   9.718  0.2192 -1.6264  0.0041
24048SOL     OW72721   0.860   0.856   1.450 -0.1259 -0.2198 -0.0084
24048SOL    HW172722   0.889   0.881   1.362  2.9875 -0.2039  0.9082
24048SOL    HW272723   0.885   0.929   1.506 -3.0794  0.2831  0.8312
24049SOL     OW72724   6.266   2.621   1.938  0.3412 -0.3365 -0.3030
24049SOL    HW172725   6.329   2.549   1.944  1.0298  0.1953 -0.8872
24049SOL    HW272726   6.181   2.581   1.956  1.0104 -0.7601  2.1838
24050SOL     OW72727   3.902   7.524   6.272 -0.4246 -0.0269  0.2037
24050SOL    HW172728   3.829   7.502   6.213  1.1403 -1.2758 -1.3643
24050SOL    HW272729   3.935   7.439   6.301  1.2002  0.4652 -0.1480
24051SOL     OW72730   9.166   7.490   3.862  0.1436  0.1997  0.1784
24051SOL    HW172731   9.230   7.488   3.934 -1.1431  0.4743  1.3782
24051SOL    HW272732   9.117   7.571   3.876 -1.3890 -0.6879  0.1248
24052SOL     OW72733   9.427   6.322   1.956 -0.5882 -0.4664  0.1064
24052SOL    HW172734   9.435   6.401   2.010  0.1097 -1.1111  0.9735
24052SOL    HW272735   9.362   6.269   2.002  0.5094 -1.3205  0.7229
24053SOL     OW72736   0.237   8.485   6.892  0.4027  0.0779 -0.2710
24053SOL    HW172737   0.315   8.436   6.918 -0.6545 -1.4215  0.2200
24053SOL    HW272738   0.186   8.422   6.841 -0.7826  0.8231 -0.0329
24054SOL     OW72739   7.093   2.324   7.666 -0.2754  0.2111  0.3644
24054SOL    HW172740   7.082   2.235   7.701  0.4054  0.0505  0.1760
24054SOL    HW272741   7.003   2.357   7.659 -0.4632  0.0663  1.7750
24055SOL     OW72742   3.086   8.386   1.330 -0.1530 -0.5833 -0.3001
24055SOL    HW172743   3.127   8.452   1.273 -0.1980 -1.2334 -1.1146
24055SOL    HW272744   3.159   8.330   1.357 -0.3999 -1.3937 -1.2726
24056SOL     OW72745   0.635   3.115   4.203 -0.2567 -0.4447 -0.1165
24056SOL    HW172746   0.602   3.175   4.270 -0.0509 -0.6254  0.1485
24056SOL    HW272747   0.599   3.030   4.227 -2.3229 -0.0933 -1.6936
24057SOL     OW72748   5.861   8.462   3.948 -0.3840  0.0520 -0.2386
24057SOL    HW172749   5.928   8.453   4.015 -0.2379 -2.7636 -0.6393
24057SOL    HW272750   5.812   8.380   3.951 -1.9398  0.8204 -1.9497
24058SOL     OW72751   9.160   0.771   8.382 -0.3677 -0.5903  0.2691
24058SOL    HW172752   9.172   0.724   8.465  0.3398  0.2443  0.6610
24058SOL    HW272753   9.106   0.846   8.405  2.3057  1.3695  0.6986
24059SOL     OW72754   6.934   3.579   1.095  0.1343 -0.3261  0.1679
24059SOL    HW172755   6.991   3.637   1.146  0.5725 -0.8268  0.2606
24059SOL    HW272756   6.903   3.633   1.022  0.9566 -0.1222 -0.0375
24060SOL     OW72757   7.203   7.755   7.743 -0.0032 -0.4489  0.2891
24060SOL    HW172758   7.196   7.832   7.800 -1.2876  0.1279 -0.6227
24060SOL    HW272759   7.262   7.696   7.791 -0.1285  0.4951  1.6700
24061SOL     OW72760   9.412   7.801   5.917  0.0213  0.8821 -0.5268
24061SOL    HW172761   9.488   7.765   5.961  1.2877  0.5466 -2.8001
24061SOL    HW272762   9.379   7.868   5.976  1.0647 -0.1111  1.2507
24062SOL     OW72763   7.715   3.773   9.568  0.2318 -0.1093  0.6640
24062SOL    HW172764   7.719   3.689   9.615 -0.4438  0.3434  1.5781
24062SOL    HW272765   7.744   3.837   9.633  0.8525  0.3550 -0.0672
24063SOL     OW72766   8.773   6.707   4.991 -0.3840  0.7248  0.0272
24063SOL    HW172767   8.764   6.662   5.075  0.0628  0.6477  0.0403
24063SOL    HW272768   8.721   6.656   4.930  1.0978 -0.5436 -0.2255
24064SOL     OW72769   4.127   4.966   7.847  0.7226  0.0342  0.2629
24064SOL    HW172770   4.114   4.885   7.796 -1.0727  0.0810  0.5846
24064SOL    HW272771   4.094   5.035   7.790 -0.7870  0.1476  1.2231
24065SOL     OW72772   5.278   2.765   5.661 -0.0981  0.0298  0.0542
24065SOL    HW172773   5.224   2.736   5.588 -1.2182  0.8490  0.5257
24065SOL    HW272774   5.310   2.684   5.700  0.2204 -0.4250 -1.1137
24066SOL     OW72775   8.566   7.531   8.506 -0.1170  0.1096 -0.3269
24066SOL    HW172776   8.482   7.575   8.491 -0.1989 -0.2085 -0.8275
24066SOL    HW272777   8.544   7.454   8.558 -0.1138  0.1302 -0.2959
24067SOL     OW72778   3.529   0.724   6.483  0.0075 -0.3521 -0.7103
24067SOL    HW172779   3.434   0.719   6.499 -0.2773  0.6966 -1.9090
24067SOL    HW272780   3.564   0.770   6.559 -0.3389 -1.3052  0.0511
24068SOL     OW72781   8.060   9.537   8.641 -0.5539  0.3814  0.5166
24068SOL    HW172782   8.043   9.587   8.561 -1.1855  0.8028  0.9088
24068SOL    HW272783   8.029   9.448   8.621 -1.8418  0.7689  0.6893
24069SOL     OW72784   0.187   1.018   7.668  0.1116  0.0735 -0.7923
24069SOL    HW172785   0.204   1.041   7.759 -2.4108  1.2444 -0.5141
24069SOL    HW272786   0.241   1.079   7.617  0.1448  0.6662 -0.0639
24070SOL     OW72787   0.045   4.820   7.216  0.0231  0.0869 -0.0377
24070SOL    HW172788  -0.002   4.886   7.165 -0.0834  0.1773  0.1785
24070SOL    HW272789  -0.023   4.762   7.250 -0.0656  0.9264  1.3062
24071SOL     OW72790   1.441   5.392   5.034  0.3218 -0.5557 -0.0725
24071SOL    HW172791   1.354   5.427   5.018  0.4192 -0.1783  0.2091
24071SOL    HW272792   1.462   5.341   4.956 -0.3213 -0.9922  0.0351
24072SOL     OW72793   5.854   0.489   5.008 -0.2620  0.3333 -0.7876
24072SOL    HW172794   5.923   0.425   5.028  0.8171  1.8980  0.8269
24072SOL    HW272795   5.870   0.514   4.918  1.1826  0.4989 -0.5130
24073SOL     OW72796   8.217   4.251   8.198 -0.6891 -0.7229 -0.6837
24073SOL    HW172797   8.144   4.303   8.164  0.1604  0.1008 -1.3446
24073SOL    HW272798   8.278   4.316   8.234 -0.0124 -1.3268 -0.7039
24074SOL     OW72799   4.671   8.667   9.022 -0.1042 -0.0168  0.0401
24074SOL    HW172800   4.684   8.643   8.930 -0.8305  0.0631 -0.0909
24074SOL    HW272801   4.753   8.708   9.048  0.9799 -2.1479  0.1167
24075SOL     OW72802   1.264   4.236   6.820 -0.4335  0.1097  0.4030
24075SOL    HW172803   1.352   4.216   6.852 -0.5020  3.2028  3.0898
24075SOL    HW272804   1.278   4.280   6.736  0.6244  0.7327  0.8898
24076SOL     OW72805   4.538   7.121   1.147  0.1795 -0.5763 -0.0903
24076SOL    HW172806   4.453   7.109   1.190  0.2227  0.0147  0.1681
24076SOL    HW272807   4.562   7.033   1.118 -1.9697 -0.3709 -2.9393
24077SOL     OW72808   9.825   7.290   3.666 -0.3258 -0.1639  0.6307
24077SOL    HW172809   9.773   7.265   3.590  0.8778  0.8296 -0.5639
24077SOL    HW272810   9.814   7.385   3.673  1.8251  0.1795 -0.0753
24078SOL     OW72811   6.839   2.474   8.232 -0.2756 -0.3735  0.1763
24078SOL    HW172812   6.836   2.565   8.205 -0.3022  0.2127  2.0400
24078SOL    HW272813   6.748   2.445   8.234 -0.3663 -0.0732  0.6858
24079SOL     OW72814   7.869   9.077   2.438  0.3421 -0.5563  0.0311
24079SOL    HW172815   7.832   9.060   2.351 -0.2956 -0.7282  0.3290
24079SOL    HW272816   7.860   9.171   2.451 -0.3091 -0.6433  0.2389
24080SOL     OW72817   0.763   5.662   1.411  0.2014  0.2593  0.1785
24080SOL    HW172818   0.728   5.741   1.452  0.5490  1.8045 -2.3532
24080SOL    HW272819   0.691   5.599   1.417 -1.1651  1.7077 -0.2933
24081SOL     OW72820   4.799   0.279   5.318 -0.3018  0.0861 -0.0659
24081SOL    HW172821   4.831   0.296   5.406  1.2773 -0.5583 -0.4817
24081SOL    HW272822   4.845   0.200   5.290 -0.9175  0.1583 -1.4049
24082SOL     OW72823   4.277   2.281   3.785  0.4589  0.5198 -0.8726
24082SOL    HW172824   4.310   2.357   3.833  1.2803 -0.5026  0.2299
24082SOL    HW272825   4.182   2.282   3.800  0.7615 -0.1991  1.4812
24083SOL     OW72826   9.309   8.875   0.826 -0.2776  0.0180 -0.2257
24083SOL    HW172827   9.237   8.901   0.884 -0.3108  0.0097 -0.2624
24083SOL    HW272828   9.360   8.812   0.878  0.6897  1.2995  0.4411
24084SOL     OW72829   2.556   4.955   5.202  0.0422  0.0887 -0.0962
24084SOL    HW172830   2.548   4.983   5.110 -0.3154  1.1732  0.2441
24084SOL    HW272831   2.468   4.931   5.228  0.1849 -0.4403 -0.1037
24085SOL     OW72832   0.450   6.711   5.221 -0.3310  0.5199 -1.2327
24085SOL    HW172833   0.516   6.662   5.171  1.3980  0.3136  1.0659
24085SOL    HW272834   0.417   6.777   5.160 -0.4236 -1.4528 -3.4535
24086SOL     OW72835   9.239   0.696   2.303  0.2796 -0.2852 -0.0393
24086SOL    HW172836   9.144   0.702   2.291  0.2621 -0.0037  0.2288
24086SOL    HW272837   9.262   0.609   2.269  0.1607  0.2577 -1.5849
24087SOL     OW72838   2.921   6.254   7.803  0.5058 -0.7839  0.0088
24087SOL    HW172839   2.881   6.284   7.884  2.9027 -0.2801  1.0916
24087SOL    HW272840   2.866   6.291   7.734  0.4513  1.9193  1.3732
24088SOL     OW72841   4.316   5.062   3.409  0.2571 -0.3030 -0.0563
24088SOL    HW172842   4.364   5.062   3.493 -0.7393  1.8736  0.5736
24088SOL    HW272843   4.253   4.991   3.418 -1.2445  1.1725  1.9696
24089SOL     OW72844   2.694   9.692   0.583  0.2664  0.3299 -0.7408
24089SOL    HW172845   2.635   9.767   0.594 -1.0674 -0.9164  1.5127
24089SOL    HW272846   2.745   9.690   0.664  1.4784 -0.2250 -1.5039
24090SOL     OW72847   6.189   0.185   9.169 -0.2711  0.7631 -0.1480
24090SOL    HW172848   6.153   0.112   9.117  2.0036  0.7913 -1.8745
24090SOL    HW272849   6.139   0.261   9.140  1.1850  0.8502 -2.6909
24091SOL     OW72850   8.116   4.268   1.320 -0.0352 -0.0643  0.4241
24091SOL    HW172851   8.197   4.218   1.316 -0.6424 -1.0231 -0.6343
24091SOL    HW272852   8.087   4.274   1.229 -1.6777 -0.6446  0.8707
24092SOL     OW72853   3.379   6.813   3.962  0.0570 -0.0994 -0.6773
24092SOL    HW172854   3.435   6.764   3.902  0.4332  0.2894 -0.6471
24092SOL    HW272855   3.326   6.746   4.006  0.1039 -0.4203 -1.1097
24093SOL     OW72856   4.099   7.934   6.922 -0.2298  0.6078  0.1659
24093SOL    HW172857   4.084   7.871   6.853 -3.6924  0.8040  0.5781
24093SOL    HW272858   4.090   7.884   7.003  1.5694  0.8158  0.5413
24094SOL     OW72859   9.312   8.342   6.996 -0.0314 -0.7832 -0.0647
24094SOL    HW172860   9.243   8.394   7.037  0.2999 -1.1245  0.9715
24094SOL    HW272861   9.386   8.347   7.057  1.0407 -0.0587 -1.3555
24095SOL     OW72862   6.399   1.424   9.285  0.3713 -0.0739 -0.3601
24095SOL    HW172863   6.430   1.504   9.241 -1.4152  0.9602  0.1423
24095SOL    HW272864   6.471   1.399   9.343 -0.0241  2.8922  1.6398
24096SOL     OW72865   8.398   5.936   6.938 -0.3451 -0.0753 -0.5461
24096SOL    HW172866   8.331   5.872   6.963 -0.4265  0.5922  1.0951
24096SOL    HW272867   8.382   6.011   6.996  2.5028 -0.3184  0.7156
24097SOL     OW72868   7.993   9.817   7.173 -0.0807  0.6480 -0.0643
24097SOL    HW172869   8.000   9.766   7.254  0.4992  0.1488 -0.4199
24097SOL    HW272870   8.016   9.906   7.197  0.1366  0.4895  0.3076
24098SOL     OW72871   0.573   6.172   3.779  0.1481  0.3819  0.3190
24098SOL    HW172872   0.636   6.244   3.784 -1.3314  1.8046 -0.4952
24098SOL    HW272873   0.513   6.198   3.710 -1.6153 -0.6924  1.3776
24099SOL     OW72874   7.439   0.931   3.242  0.1586 -0.7161  0.0086
24099SOL    HW172875   7.440   1.001   3.176  1.2579  1.4093  2.1461
24099SOL    HW272876   7.362   0.949   3.296  1.0649 -0.4255  1.2492
24100SOL     OW72877   5.849   3.588   3.087 -0.5277  0.0389 -0.1811
24100SOL    HW172878   5.886   3.613   3.172 -0.6093 -1.3351  0.2840
24100SOL    HW272879   5.771   3.536   3.109 -0.9868  0.3036 -1.1095
24101SOL     OW72880   2.582   8.088   7.344  0.1309  0.0218 -0.2555
24101SOL    HW172881   2.545   8.077   7.432  0.5380  0.3169 -0.0438
24101SOL    HW272882   2.531   8.159   7.306 -1.5969 -1.5920 -1.1278
24102SOL     OW72883   1.271   9.090   2.371  0.6946  0.6269 -0.0572
24102SOL    HW172884   1.245   9.050   2.454  0.0213  1.9715  0.4054
24102SOL    HW272885   1.225   9.173   2.368  2.4102  1.6188 -0.7523
24103SOL     OW72886   0.424   4.198   7.130  0.0012  0.0302 -0.7014
24103SOL    HW172887   0.422   4.231   7.040  0.0549  0.2219 -0.6308
24103SOL    HW272888   0.503   4.144   7.132 -0.3954 -0.5793 -0.9818
24104SOL     OW72889   7.044   6.876   8.008  0.6114 -0.4758  0.4003
24104SOL    HW172890   7.077   6.857   7.920 -0.9946 -1.2459 -0.0876
24104SOL    HW272891   6.954   6.904   7.994  0.6924  0.5425  1.7305
24105SOL     OW72892   3.596   5.050   3.490 -0.3222 -0.2471  0.2663
24105SOL    HW172893   3.520   5.007   3.528 -0.7224  2.0543  2.2924
24105SOL    HW272894   3.670   5.013   3.538 -0.3405 -0.8641 -0.1618
24106SOL     OW72895   5.460   1.358   7.744  0.0419 -0.6538 -0.5652
24106SOL    HW172896   5.421   1.272   7.730  2.2258 -1.5737 -1.5934
24106SOL    HW272897   5.488   1.357   7.836 -2.8836  0.3481  0.4459
24107SOL     OW72898   1.923   3.621   0.593  0.3708  0.1808  0.2731
24107SOL    HW172899   1.984   3.694   0.606 -0.3165  0.6092  1.1750
24107SOL    HW272900   1.902   3.624   0.499  3.0886 -1.0933 -0.4709
24108SOL     OW72901   5.645   7.780   9.289 -0.1312  0.5457 -0.0974
24108SOL    HW172902   5.739   7.793   9.297 -0.1054  1.3645 -1.5506
24108SOL    HW272903   5.630   7.693   9.326  1.1162  0.5844  0.5558
24109SOL     OW72904   5.633   5.159   0.093  0.0906 -0.2509 -0.2198
24109SOL    HW172905   5.552   5.199   0.123  0.3058 -0.8112  1.1756
24109SOL    HW272906   5.650   5.089   0.156  1.1828 -0.7190 -1.0073
24110SOL     OW72907   3.822   7.543   3.761  0.2116 -0.6308 -0.1428
24110SOL    HW172908   3.844   7.491   3.839 -2.0929 -0.1174  0.9395
24110SOL    HW272909   3.783   7.480   3.700 -0.4002 -0.6086  0.2133
24111SOL     OW72910   8.963   8.292   1.198  0.5318  0.1174  0.1566
24111SOL    HW172911   8.872   8.312   1.220  0.3530 -0.9230  0.3904
24111SOL    HW272912   9.015   8.343   1.261  0.1490  1.2680 -0.4260
24112SOL     OW72913   0.078   1.602   5.030  0.2304 -0.0330  0.0979
24112SOL    HW172914   0.074   1.546   5.108  0.1193  0.1356  0.2148
24112SOL    HW272915   0.069   1.541   4.956  0.8070 -0.2451  0.1997
24113SOL     OW72916   2.966   7.246   8.059  0.4427  0.6488 -0.5444
24113SOL    HW172917   2.967   7.152   8.081 -1.7742  0.2283 -1.8624
24113SOL    HW272918   2.986   7.249   7.966 -3.0616  1.0053 -1.4465
24114SOL     OW72919   4.299   6.783   8.651  0.7526  0.4447  0.5557
24114SOL    HW172920   4.216   6.829   8.661 -0.3330 -0.9061 -1.4686
24114SOL    HW272921   4.307   6.730   8.730  0.4703  1.7197  1.4702
24115SOL     OW72922   8.835   9.679   7.166 -0.4529 -0.4378  0.0062
24115SOL    HW172923   8.894   9.740   7.121  0.6372 -1.7889 -0.4683
24115SOL    HW272924   8.774   9.650   7.098 -0.9038  0.0261  0.2064
24116SOL     OW72925   3.495   9.614   9.359 -0.5828  0.5763  0.6950
24116SOL    HW172926   3.486   9.519   9.367  0.3523  0.1728 -2.0805
24116SOL    HW272927   3.577   9.635   9.405 -0.2275 -0.1426  0.3970
24117SOL     OW72928   6.403   7.887   7.826  0.2302  0.6419 -0.1296
24117SOL    HW172929   6.440   7.975   7.819  0.2565  0.5609 -1.0893
24117SOL    HW272930   6.308   7.899   7.814  0.4961  0.2233 -3.5557
24118SOL     OW72931   5.050   6.902   8.066  0.0814 -0.3311  0.4066
24118SOL    HW172932   5.106   6.912   7.989 -0.0557 -0.7804  0.2436
24118SOL    HW272933   4.963   6.884   8.031  0.2175 -1.5713  0.6590
24119SOL     OW72934   5.838   0.926   7.750  0.0935  0.4522 -0.0966
24119SOL    HW172935   5.822   0.907   7.842  0.2157  2.4664  0.3936
24119SOL    HW272936   5.827   1.021   7.743  3.1394  0.8192 -1.4776
24120SOL     OW72937   0.710   8.644   7.556 -0.5701 -0.8758 -0.1213
24120SOL    HW172938   0.698   8.565   7.610 -1.3499 -1.1336 -0.6447
24120SOL    HW272939   0.721   8.715   7.620  0.7070 -1.4690  0.3569
24121SOL     OW72940   8.868   0.961   2.390 -0.2441  0.0336  0.2884
24121SOL    HW172941   8.816   1.032   2.427  1.4895  0.0341  2.9926
24121SOL    HW272942   8.890   0.906   2.465  0.9614 -1.7348 -1.2604
24122SOL     OW72943   4.599   2.531   9.868  0.0249  0.5389 -0.1028
24122SOL    HW172944   4.606   2.605   9.807 -0.4317  0.9565  0.3421
24122SOL    HW272945   4.524   2.553   9.923  0.3231  0.0828  0.4940
24123SOL     OW72946   9.593   0.826   3.717  0.3535  0.6077  0.2260
24123SOL    HW172947   9.625   0.845   3.805  0.5301  1.6625 -0.0395
24123SOL    HW272948   9.499   0.815   3.727  0.6472 -1.7696  0.9028
24124SOL     OW72949   0.699   1.081   4.626 -0.2156  0.6569  0.2518
24124SOL    HW172950   0.612   1.114   4.652 -0.7000 -2.0913  2.6882
24124SOL    HW272951   0.752   1.160   4.617 -2.9656  2.4801 -1.6473
24125SOL     OW72952   2.880   4.379   4.360  0.0148 -0.3768 -0.3151
24125SOL    HW172953   2.881   4.387   4.455 -0.5271 -0.4146 -0.3028
24125SOL    HW272954   2.921   4.459   4.328 -0.3035 -0.1131 -0.0615
24126SOL     OW72955   2.803   5.086   8.860 -0.3183  0.3476 -0.1056
24126SOL    HW172956   2.855   5.066   8.782  0.8753 -0.8279  0.9402
24126SOL    HW272957   2.851   5.046   8.932 -0.6120  2.6472  1.4661
24127SOL     OW72958   4.586   8.286   4.870  0.7630  0.3003  0.5181
24127SOL    HW172959   4.561   8.212   4.925  0.2909  0.2895  0.2982
24127SOL    HW272960   4.679   8.272   4.852  0.6865 -0.2283  0.5022
24128SOL     OW72961   1.755   1.683   6.315  0.3044  0.2453 -0.0511
24128SOL    HW172962   1.784   1.727   6.235  2.8756 -1.3739 -0.1129
24128SOL    HW272963   1.811   1.718   6.384  0.3957 -0.7760  0.4186
24129SOL     OW72964   2.294   0.566   0.415 -0.1418 -0.0844  0.3656
24129SOL    HW172965   2.246   0.612   0.484  0.4816 -0.9904  1.4208
24129SOL    HW272966   2.313   0.634   0.350 -1.9592  0.5019  0.3920
24130SOL     OW72967   6.347   7.298   8.047  0.4875 -0.1546  0.0062
24130SOL    HW172968   6.356   7.203   8.036 -1.2908 -0.5989  1.7493
24130SOL    HW272969   6.435   7.329   8.067  1.0731 -1.4461 -0.5021
24131SOL     OW72970   1.996   8.256   2.008  0.0388 -0.4653 -0.3564
24131SOL    HW172971   1.903   8.258   1.986  0.1922  2.4818 -1.1966
24131SOL    HW272972   2.002   8.307   2.089  0.9768 -0.1159 -0.6359
24132SOL     OW72973   8.962   4.908   1.694 -0.0409 -0.2756  0.0884
24132SOL    HW172974   8.967   5.000   1.671  2.7308 -0.3748 -0.0907
24132SOL    HW272975   8.895   4.872   1.635 -1.4085  1.6255  0.4000
24133SOL     OW72976   7.174   3.213   3.435  0.1954  0.2498 -0.2688
24133SOL    HW172977   7.089   3.250   3.459  0.6980  1.7984 -0.7409
24133SOL    HW272978   7.221   3.286   3.394  0.8147 -1.2480 -2.3637
24134SOL     OW72979   7.311   4.769   3.015  0.1295 -0.6269 -0.8400
24134SOL    HW172980   7.339   4.858   2.997 -2.0928  0.6099  1.2084
24134SOL    HW272981   7.224   4.762   2.975  0.8544 -2.4502 -2.2794
24135SOL     OW72982   7.213   9.748   5.531  0.0431  0.1169 -0.0071
24135SOL    HW172983   7.176   9.742   5.443  0.7775  1.0872 -0.3891
24135SOL    HW272984   7.190   9.836   5.561 -0.6300 -0.3728  0.9832
24136SOL     OW72985   8.872   8.433   7.903 -0.0540  0.0872 -0.2900
24136SOL    HW172986   8.967   8.432   7.893 -0.0699  2.0150 -1.2007
24136SOL    HW272987   8.858   8.456   7.995  0.3942  0.8747 -0.4088
24137SOL     OW72988   5.647   4.845   0.644  0.4347  0.3707  0.1998
24137SOL    HW172989   5.579   4.822   0.581  1.9798 -0.1731 -1.3388
24137SOL    HW272990   5.682   4.761   0.673  0.6604  0.6493  0.7363
24138SOL     OW72991   1.653   7.794   2.024  0.0237 -0.2712 -0.1747
24138SOL    HW172992   1.652   7.868   1.963  1.2927  0.1893  0.3214
24138SOL    HW272993   1.645   7.835   2.110 -0.6340 -0.8291  0.0360
24139SOL     OW72994   0.458   6.334   9.195 -0.0118  0.1188 -0.6361
24139SOL    HW172995   0.366   6.312   9.209 -0.1769  1.1648 -0.0198
24139SOL    HW272996   0.459   6.386   9.115 -0.2406  1.8535  0.4530
24140SOL     OW72997   0.085   5.993   2.471 -0.0766  0.1757 -0.5622
24140SOL    HW172998   0.076   6.068   2.413  2.4904  1.4769  0.5593
24140SOL    HW272999   0.102   5.919   2.412 -1.3522  0.6583 -1.6024
24141SOL     OW73000   0.772   6.001   3.838  0.5412 -0.7409  0.0597
24141SOL    HW173001   0.784   5.970   3.749  0.4877 -3.3005  0.8548
24141SOL    HW273002   0.694   6.057   3.834 -0.5710 -2.2782 -1.2249
24142SOL     OW73003   7.080   4.580   5.341  0.0151  0.5859 -0.1081
24142SOL    HW173004   6.992   4.617   5.345 -0.5671 -0.6135 -1.0751
24142SOL    HW273005   7.124   4.629   5.271  0.2774  1.4701  0.6579
24143SOL     OW73006   0.680   7.767   1.614 -0.3849 -0.0616  0.0390
24143SOL    HW173007   0.619   7.836   1.641  0.4976  1.7867 -2.2791
24143SOL    HW273008   0.764   7.795   1.651 -0.2360 -0.5757  0.0921
24144SOL     OW73009   2.159   8.481   7.893  0.1705 -0.0101 -0.1838
24144SOL    HW173010   2.146   8.408   7.833 -0.2972  0.3322 -0.5008
24144SOL    HW273011   2.152   8.559   7.839 -2.6709  0.4323  0.6405
24145SOL     OW73012   1.103   2.254   5.582 -0.4108  0.2761 -0.5378
24145SOL    HW173013   1.014   2.269   5.615 -0.3799  1.2492 -0.8648
24145SOL    HW273014   1.094   2.258   5.487 -0.0895 -0.0861 -0.5874
24146SOL     OW73015   0.784   7.098   3.285  0.7298 -0.7736  0.1276
24146SOL    HW173016   0.857   7.036   3.288  0.9068 -0.7199 -1.6482
24146SOL    HW273017   0.709   7.046   3.258  0.8549 -0.2726 -1.2586
24147SOL     OW73018   5.561   3.184   5.575 -0.5444  0.0232  0.3222
24147SOL    HW173019   5.582   3.249   5.642 -0.6601  2.2840 -1.7001
24147SOL    HW273020   5.531   3.107   5.624  1.6274  0.6771  2.9100
24148SOL     OW73021   2.173   6.226   1.648  0.3156 -0.2375  0.6372
24148SOL    HW173022   2.201   6.308   1.688  0.5058 -0.0017  0.0268
24148SOL    HW273023   2.113   6.252   1.578  0.7722 -0.5832  0.1068
24149SOL     OW73024   8.669   4.668   6.590 -0.2230  0.5807 -0.4476
24149SOL    HW173025   8.726   4.601   6.627 -1.1048 -0.0259 -0.1647
24149SOL    HW273026   8.693   4.673   6.498  1.5460  1.6385  0.0225
24150SOL     OW73027   0.640   8.484   9.999  0.0701 -0.4301 -0.2623
24150SOL    HW173028   0.640   8.503   9.906  2.6489 -0.1719 -0.2926
24150SOL    HW273029   0.700   8.549  10.037  1.1775 -2.1594  1.1332
24151SOL     OW73030   5.984   5.322   1.504 -0.7621 -0.4359  0.4429
24151SOL    HW173031   6.035   5.254   1.460  0.2368  0.6818 -0.1867
24151SOL    HW273032   5.995   5.304   1.597 -0.5081 -1.1362  0.2821
24152SOL     OW73033   4.273   8.267   0.430  0.0907 -0.1163  0.1978
24152SOL    HW173034   4.327   8.270   0.350  1.7839 -2.5144  1.1453
24152SOL    HW273035   4.230   8.182   0.427 -1.7283  0.7539  0.7145
24153SOL     OW73036   4.630   6.216   4.572 -0.0182  0.4571 -0.1663
24153SOL    HW173037   4.636   6.122   4.590 -1.1572  0.4159  0.0435
24153SOL    HW273038   4.627   6.223   4.477 -1.9775  0.1164 -0.1671
24154SOL     OW73039   4.484   5.085   2.726  0.1794  0.0620  0.1928
24154SOL    HW173040   4.418   5.031   2.769  0.6678  0.4214  1.4443
24154SOL    HW273041   4.507   5.152   2.791  2.0307 -0.2618 -0.0498
24155SOL     OW73042   5.841   9.792   2.443 -0.0089 -0.1786  0.1817
24155SOL    HW173043   5.918   9.845   2.422  0.5306 -1.1649 -0.4408
24155SOL    HW273044   5.877   9.719   2.494 -0.2629 -1.4819 -1.4193
24156SOL     OW73045   1.713   6.798   6.695 -0.2222  0.4791  0.4243
24156SOL    HW173046   1.797   6.844   6.699  0.5050 -0.4215 -2.3644
24156SOL    HW273047   1.650   6.865   6.668 -0.2491  0.9486  1.5996
24157SOL     OW73048   3.290   6.512   2.483  0.4876 -0.1329  0.1342
24157SOL    HW173049   3.355   6.553   2.425  1.2338 -1.6472 -0.1398
24157SOL    HW273050   3.226   6.473   2.424 -0.8499  1.4952  0.4015
24158SOL     OW73051   3.511   9.841   8.653  0.5267  0.3105 -0.1938
24158SOL    HW173052   3.471   9.766   8.698  1.8706 -0.7662 -0.7171
24158SOL    HW273053   3.479   9.834   8.563 -0.9670  1.5900  0.2028
24159SOL     OW73054   7.828   2.659   2.456 -0.2286  0.1884  0.1927
24159SOL    HW173055   7.749   2.661   2.402 -1.2191  0.9387  1.6043
24159SOL    HW273056   7.797   2.633   2.543  1.1091  0.3488  0.7384
24160SOL     OW73057   5.457   5.156   3.557 -0.3692  0.4534 -0.0759
24160SOL    HW173058   5.482   5.077   3.508 -1.8283 -0.4502  0.5884
24160SOL    HW273059   5.363   5.148   3.569 -0.4991  2.1851  0.2580
24161SOL     OW73060   6.116   4.384   1.464 -0.3410  0.5654 -0.1797
24161SOL    HW173061   6.039   4.376   1.408 -1.9298 -0.8206  2.0223
24161SOL    HW273062   6.141   4.293   1.483  0.7441  0.9928  0.5413
24162SOL     OW73063   4.617   3.137   1.006  0.1879 -0.4144  0.7005
24162SOL    HW173064   4.639   3.052   1.043  1.1870  0.0198  1.1216
24162SOL    HW273065   4.661   3.138   0.921 -0.0808 -0.4445  0.5617
24163SOL     OW73066   9.475   3.569   0.207 -0.3470 -0.2576  0.3978
24163SOL    HW173067   9.396   3.603   0.165 -0.1614  1.4095  1.3188
24163SOL    HW273068   9.535   3.550   0.135 -0.8009  0.5314 -0.2055
24164SOL     OW73069   0.306   1.897   0.948 -0.3428  0.6138 -0.4626
24164SOL    HW173070   0.316   1.835   0.875  0.2174 -0.9459  0.8668
24164SOL    HW273071   0.396   1.913   0.977 -0.4771  2.1993 -0.8626
24165SOL     OW73072   7.785   2.239   8.314  0.0165  0.7404 -0.3985
24165SOL    HW173073   7.836   2.317   8.288  1.2132 -0.6232 -2.4248
24165SOL    HW273074   7.695   2.261   8.292  0.4487  1.2836 -1.6983
24166SOL     OW73075   1.350   3.410   2.520 -0.2562 -0.1185  0.1074
24166SOL    HW173076   1.316   3.411   2.610  1.1397  1.0080  0.6544
24166SOL    HW273077   1.438   3.373   2.528  0.2413  0.8580 -0.6385
24167SOL     OW73078   0.517   3.335   6.451 -0.0742  0.0857  0.0983
24167SOL    HW173079   0.512   3.360   6.544  1.8865  2.7054 -0.3767
24167SOL    HW273080   0.464   3.401   6.406  1.4973  0.7550 -0.8555
24168SOL     OW73081   1.413   4.661   7.630  0.4061  0.0324 -0.0027
24168SOL    HW173082   1.436   4.570   7.648  1.6636  0.7509  2.4042
24168SOL    HW273083   1.400   4.700   7.716 -0.9507  1.9611 -1.0024
24169SOL     OW73084   2.247   7.880   8.436 -0.3207 -0.1281 -0.4870
24169SOL    HW173085   2.192   7.868   8.513  0.6526  1.1887  0.4736
24169SOL    HW273086   2.319   7.818   8.448  0.9927  1.5324  0.8660
24170SOL     OW73087   0.583   1.516   5.788  0.1903  0.4116  0.1512
24170SOL    HW173088   0.643   1.563   5.731  1.1758 -1.8891 -0.8285
24170SOL    HW273089   0.500   1.515   5.740  0.4465  0.2671 -0.2934
24171SOL     OW73090   5.985   9.437   8.964  0.0568  0.5490 -0.2011
24171SOL    HW173091   6.062   9.437   8.907  0.4826 -0.4442  0.3527
24171SOL    HW273092   5.911   9.425   8.904  0.4937 -0.4245 -0.5605
24172SOL     OW73093   4.746   4.752   1.044 -0.1003  0.0639  0.2220
24172SOL    HW173094   4.690   4.698   1.100  1.2135 -0.2390  1.2860
24172SOL    HW273095   4.782   4.690   0.981  0.2298 -0.0262  0.4981
24173SOL     OW73096   2.958   5.043   2.460  0.4349  0.2941 -0.3544
24173SOL    HW173097   3.004   4.960   2.451 -1.7894 -1.1723  0.9266
24173SOL    HW273098   2.900   5.031   2.536 -0.2677  2.8701 -0.3813
24174SOL     OW73099   0.906   4.850   1.939  0.1096  0.0210 -0.5804
24174SOL    HW173100   0.930   4.930   1.986  0.0930 -0.6265  0.5776
24174SOL    HW273101   0.990   4.806   1.922 -0.0181 -1.6439  2.3834
24175SOL     OW73102   6.964   9.135   1.933 -0.4794 -0.7035  0.3573
24175SOL    HW173103   7.006   9.055   1.966 -0.4605 -0.7181  0.2992
24175SOL    HW273104   6.927   9.108   1.848 -0.8498 -0.7659  0.5336
24176SOL     OW73105   2.561   3.092   7.714  0.2569  0.0973  0.2429
24176SOL    HW173106   2.479   3.134   7.741 -0.5816 -0.5692 -1.1303
24176SOL    HW273107   2.553   3.082   7.619  2.6769  1.5325 -0.1978
24177SOL     OW73108   4.728   0.767   3.597  0.1025 -0.2948  0.2136
24177SOL    HW173109   4.807   0.769   3.650  0.2804  1.1441 -0.0609
24177SOL    HW273110   4.752   0.717   3.519  0.5831 -0.2954  0.3594
24178SOL     OW73111   6.240   7.927   3.867 -0.8804  0.5389  0.1346
24178SOL    HW173112   6.271   7.837   3.874  0.0655  0.8719  0.3691
24178SOL    HW273113   6.298   7.967   3.801 -1.2527  0.9890  0.0803
24179SOL     OW73114   2.681   5.916   3.996  0.1715  0.2505  0.7338
24179SOL    HW173115   2.678   6.001   4.039  1.3408 -0.3673  2.1458
24179SOL    HW273116   2.674   5.853   4.068 -0.5727 -0.8602 -0.2732
24180SOL     OW73117   0.826   8.966   3.783 -0.0556 -0.4604 -0.4484
24180SOL    HW173118   0.737   9.002   3.783  0.7853  1.8065 -0.2805
24180SOL    HW273119   0.831   8.917   3.865 -0.8131  0.4068  0.1483
24181SOL     OW73120   9.711   3.961   1.049  0.1134  0.2762  0.4005
24181SOL    HW173121   9.662   3.937   1.127  0.1334 -0.7684  0.1058
24181SOL    HW273122   9.652   3.940   0.976  0.7975 -0.5341  0.0640
24182SOL     OW73123   1.819   6.678   6.465 -0.4829 -0.1193  0.0323
24182SOL    HW173124   1.896   6.735   6.460  0.5560 -1.5187 -0.2869
24182SOL    HW273125   1.767   6.716   6.536  1.1073  0.1269  1.1201
24183SOL     OW73126   7.277   2.927   0.396  0.1615 -0.0582 -0.2515
24183SOL    HW173127   7.295   2.836   0.419 -0.3787  0.1199  0.9518
24183SOL    HW273128   7.361   2.972   0.410 -0.6137  0.5115  4.0263
24184SOL     OW73129   7.899   7.245   8.621 -0.3162 -0.1520 -0.4254
24184SOL    HW173130   7.940   7.277   8.701 -1.0057  0.2849 -0.2322
24184SOL    HW273131   7.966   7.191   8.579  0.3683  0.3628 -0.0147
24185SOL     OW73132   6.604   4.832   8.938  0.4742  0.5542 -0.2197
24185SOL    HW173133   6.652   4.899   8.888 -0.7156  0.8329 -1.0335
24185SOL    HW273134   6.627   4.750   8.894  0.9653  0.5657  0.0076
24186SOL     OW73135   3.334   7.290   5.897  0.6781 -0.2799  0.6659
24186SOL    HW173136   3.353   7.196   5.907 -2.1423 -0.9546  0.4025
24186SOL    HW273137   3.313   7.319   5.986  0.7945 -0.0695  0.6247
24187SOL     OW73138   7.773   6.839   0.166  0.4493 -0.5821 -0.0434
24187SOL    HW173139   7.697   6.862   0.113  0.4715 -0.9854 -0.2555
24187SOL    HW273140   7.737   6.787   0.238  0.2410  1.1444  1.1328
24188SOL     OW73141   7.231   2.662   5.335  0.3914 -0.2837 -0.1298
24188SOL    HW173142   7.225   2.756   5.354 -0.5449 -0.4792  0.5938
24188SOL    HW273143   7.143   2.636   5.311  0.1287 -1.4077  1.8108
24189SOL     OW73144   2.853   8.938   6.320 -0.3219  0.2137  0.1222
24189SOL    HW173145   2.806   9.001   6.266 -0.4931 -0.3495 -0.3955
24189SOL    HW273146   2.922   8.903   6.263  0.0389  0.2325  0.5346
24190SOL     OW73147   1.594   7.966   9.289 -0.2848  0.1370 -0.2791
24190SOL    HW173148   1.665   7.906   9.311  1.0715  1.8526  0.2667
24190SOL    HW273149   1.515   7.912   9.292  1.0401 -2.0139 -1.7052
24191SOL     OW73150   8.957   2.004   2.669 -0.0185 -0.0067  0.3312
24191SOL    HW173151   8.942   2.097   2.656 -2.5699 -0.6016 -2.2322
24191SOL    HW273152   8.964   1.969   2.580  2.7056 -2.0798  1.2343
24192SOL     OW73153   2.315   3.669   2.843  0.5164  0.0792  0.2208
24192SOL    HW173154   2.347   3.687   2.755  0.3289 -1.0709 -0.0948
24192SOL    HW273155   2.342   3.580   2.861 -1.6778 -0.6382  0.2958
24193SOL     OW73156   8.215   0.288   3.270  0.0397  0.5719 -0.1784
24193SOL    HW173157   8.254   0.201   3.259  0.3462  0.5740  0.7793
24193SOL    HW273158   8.234   0.334   3.188  0.4803 -0.0354 -0.4207
24194SOL     OW73159   2.167   9.914   4.897  0.1989  0.1535 -0.0703
24194SOL    HW173160   2.089   9.921   4.952  0.7383 -0.3268  0.7906
24194SOL    HW273161   2.175   9.820   4.877  0.8174  0.1243  0.2667
24195SOL     OW73162   4.543   5.984   7.327 -0.3334 -0.6127 -0.2062
24195SOL    HW173163   4.569   5.931   7.252  2.2609  1.6751 -1.1073
24195SOL    HW273164   4.472   6.038   7.295 -0.4302 -0.8958 -0.4691
24196SOL     OW73165   5.015   5.992   7.916  0.4283 -0.4192 -0.2387
24196SOL    HW173166   4.923   6.016   7.906  0.7643  0.8719 -0.4894
24196SOL    HW273167   5.022   5.904   7.879 -0.3899  0.1003 -1.7129
24197SOL     OW73168   1.798   4.199   8.674 -0.0754 -0.0565 -0.1063
24197SOL    HW173169   1.823   4.284   8.710 -0.0958  0.2962 -0.9204
24197SOL    HW273170   1.811   4.138   8.747  1.2271  0.4258  0.0880
24198SOL     OW73171   7.699   2.249   1.360 -1.0917  0.2910 -0.3280
24198SOL    HW173172   7.648   2.309   1.306 -0.0086  2.1062  0.5703
24198SOL    HW273173   7.633   2.196   1.406 -2.0729  0.8270 -1.0922
24199SOL     OW73174   1.663   5.736   4.734 -0.0626  0.0836  0.4202
24199SOL    HW173175   1.605   5.781   4.672  1.1474  1.2308  0.0780
24199SOL    HW273176   1.622   5.748   4.819  0.3688  2.1310  0.3808
24200SOL     OW73177   3.826   1.032   1.799  0.0936 -0.2713 -0.2237
24200SOL    HW173178   3.917   1.025   1.825  0.0975  1.4919  0.3485
24200SOL    HW273179   3.776   1.014   1.879 -0.0193  0.3777 -0.1476
24201SOL     OW73180   7.093   8.166   1.865 -0.7368  0.2611 -0.0960
24201SOL    HW173181   7.122   8.134   1.951  2.4807  1.4715 -0.5669
24201SOL    HW273182   7.064   8.087   1.819 -1.4970 -0.5705  1.6976
24202SOL     OW73183   5.548   8.542   5.650 -0.3499  0.4066 -0.0734
24202SOL    HW173184   5.584   8.453   5.654 -0.2391  0.4917  1.2860
24202SOL    HW273185   5.460   8.532   5.686 -0.3835  0.8277 -0.0439
24203SOL     OW73186   1.375   4.274   2.740  0.2612  0.0320 -0.4743
24203SOL    HW173187   1.370   4.182   2.767  0.1097  0.1073 -0.2388
24203SOL    HW273188   1.469   4.290   2.729  0.3039 -0.0937 -0.3036
24204SOL     OW73189   8.728   4.471   9.081  0.2178  0.5151 -0.2126
24204SOL    HW173190   8.638   4.441   9.097 -0.0347  1.7470  0.9168
24204SOL    HW273191   8.718   4.544   9.020  0.3549  1.0733  0.4117
24205SOL     OW73192   4.312   1.011   7.613  0.4684  0.1557 -0.5801
24205SOL    HW173193   4.287   0.951   7.542  0.5209 -0.6125  0.0317
24205SOL    HW273194   4.311   0.956   7.691  1.6443  0.6992 -0.1690
24206SOL     OW73195   6.977   4.600   4.319 -0.3941  0.1046  0.0116
24206SOL    HW173196   6.899   4.626   4.272 -1.2497 -2.2557  0.0054
24206SOL    HW273197   7.043   4.586   4.251 -0.4545  0.4607 -0.1240
24207SOL     OW73198   3.410   2.451   4.962 -0.2169  0.1441  0.2239
24207SOL    HW173199   3.410   2.439   4.868  0.5611 -0.0774  0.2393
24207SOL    HW273200   3.340   2.514   4.979  0.1291  0.7673 -0.5873
24208SOL     OW73201   4.601   3.800   9.498  0.8128  0.0898  0.2659
24208SOL    HW173202   4.508   3.813   9.517  0.5630  1.8169 -1.7926
24208SOL    HW273203   4.645   3.874   9.540  1.4458 -1.1377  1.9192
24209SOL     OW73204   8.094   9.081   2.809  0.1929  0.4719  0.0401
24209SOL    HW173205   8.054   9.031   2.738  0.5285 -0.1033  0.2489
24209SOL    HW273206   8.144   9.150   2.765  1.2314 -0.4970 -0.3412
24210SOL     OW73207   5.037   8.278   1.742 -0.0042  0.1804  0.6118
24210SOL    HW173208   4.970   8.213   1.760 -0.7986  0.4256 -1.2768
24210SOL    HW273209   5.019   8.309   1.654  1.2834  1.8560  0.8632
24211SOL     OW73210   6.519   1.481   7.568  0.1448  0.1407  0.3165
24211SOL    HW173211   6.526   1.402   7.622 -1.2675  1.3373  2.3790
24211SOL    HW273212   6.450   1.461   7.505  0.7856 -0.7558 -0.1244
24212SOL     OW73213   2.045   9.390   9.529 -0.2399 -0.5452  0.5826
24212SOL    HW173214   2.118   9.447   9.506  0.0625 -1.6590 -1.3789
24212SOL    HW273215   2.069   9.354   9.615  0.0062  1.4763  1.4051
24213SOL     OW73216   0.777   2.221   1.377 -0.0719  0.1320 -0.0067
24213SOL    HW173217   0.788   2.132   1.343  0.4939  0.5844 -1.0606
24213SOL    HW273218   0.816   2.277   1.311 -3.7437  1.5009 -1.3029
24214SOL     OW73219   6.912   1.899   5.005  0.1678  0.2659 -0.7620
24214SOL    HW173220   6.835   1.858   5.044  0.8222 -0.0271  0.2758
24214SOL    HW273221   6.884   1.926   4.918 -1.8358  2.2783  0.3880
24215SOL     OW73222   8.306   9.169   9.615 -0.0374  0.4818 -0.0399
24215SOL    HW173223   8.289   9.200   9.526 -0.5347  1.5839  0.4196
24215SOL    HW273224   8.276   9.078   9.615 -3.3416  1.4367 -0.0662
24216SOL     OW73225   2.849   8.330   6.944  0.4058 -0.2000  0.1443
24216SOL    HW173226   2.859   8.347   6.850  0.9931  1.3712  0.4483
24216SOL    HW273227   2.814   8.241   6.949 -1.2956  0.2882 -1.6255
24217SOL     OW73228   4.421   9.693   1.246 -0.2008 -0.0246  0.1620
24217SOL    HW173229   4.432   9.622   1.184  1.6316  1.5656 -1.4512
24217SOL    HW273230   4.506   9.702   1.289 -1.0425 -0.2075  1.9717
24218SOL     OW73231   8.330   7.962   8.559 -0.1468 -0.2374  0.0517
24218SOL    HW173232   8.421   7.961   8.588 -0.2761 -0.3857  0.4502
24218SOL    HW273233   8.334   7.942   8.466  0.4857  2.6506 -0.6295
24219SOL     OW73234   4.041   5.756   6.941  0.2698  0.2399 -0.2759
24219SOL    HW173235   4.004   5.673   6.971 -1.5174  1.2637  0.5365
24219SOL    HW273236   4.132   5.754   6.972 -0.0337 -0.9845  0.6345
24220SOL     OW73237   6.125   8.207   3.181  0.5730 -0.2074 -0.1254
24220SOL    HW173238   6.039   8.199   3.139  0.7586  1.1917 -0.8665
24220SOL    HW273239   6.106   8.246   3.266  0.4124 -0.6031  0.0211
24221SOL     OW73240   0.475   7.601   9.214 -0.1959  0.1138  0.2308
24221SOL    HW173241   0.487   7.576   9.306 -1.0935  1.0348  0.6211
24221SOL    HW273242   0.390   7.644   9.212 -0.0385  0.4081 -0.9778
24222SOL     OW73243   1.159   5.792   9.430  0.3172 -0.6305 -0.3833
24222SOL    HW173244   1.156   5.851   9.354 -0.7260 -0.3839 -0.1700
24222SOL    HW273245   1.252   5.777   9.445  0.5517 -0.2966 -1.4177
24223SOL     OW73246   0.779   8.085   0.045  0.1401  0.2234  0.8870
24223SOL    HW173247   0.807   8.001   0.008  1.2779  0.4195  1.2736
24223SOL    HW273248   0.711   8.061   0.108  1.3650 -0.5688  1.9688
24224SOL     OW73249   5.528   3.342   7.085 -0.0132 -0.2555  0.2302
24224SOL    HW173250   5.616   3.354   7.049 -1.2130  0.8323 -2.6474
24224SOL    HW273251   5.498   3.259   7.047 -0.8234  0.2197 -0.1761
24225SOL     OW73252   9.664   8.615   6.599  0.0911 -0.4823 -0.5195
24225SOL    HW173253   9.700   8.661   6.675 -0.2570  0.0968 -0.6982
24225SOL    HW273254   9.603   8.678   6.559  1.8331  0.0735 -2.5142
24226SOL     OW73255   5.090   6.682   0.377  0.0785 -0.0019 -0.0285
24226SOL    HW173256   5.168   6.715   0.332  0.7738 -1.5746 -0.0524
24226SOL    HW273257   5.058   6.612   0.320 -0.6934 -0.1203  0.5355
24227SOL     OW73258   0.258   1.833   3.625 -0.2502 -0.1212 -0.3137
24227SOL    HW173259   0.200   1.762   3.651 -1.1285 -0.2285 -2.3632
24227SOL    HW273260   0.345   1.795   3.627 -0.4458 -0.5522  0.8539
24228SOL     OW73261   4.459   8.795   5.329 -0.2096 -0.3639  0.1112
24228SOL    HW173262   4.480   8.807   5.422 -2.6585 -0.0768  0.7063
24228SOL    HW273263   4.367   8.821   5.322  0.4456  1.6397 -2.8310
24229SOL     OW73264   5.003   0.864   3.210 -0.5902 -0.0796  0.2493
24229SOL    HW173265   4.910   0.839   3.211 -0.6273  0.0122 -0.3620
24229SOL    HW273266   5.011   0.927   3.281 -0.8118 -0.7308  0.8602
24230SOL     OW73267   6.900   3.274   1.911  0.1033  0.1327 -0.6342
24230SOL    HW173268   6.825   3.296   1.855 -0.0029  1.2532 -0.0763
24230SOL    HW273269   6.905   3.179   1.908 -0.3532  0.1315 -1.9644
24231SOL     OW73270   7.447   2.295   8.656  0.6463 -0.8294  0.5340
24231SOL    HW173271   7.472   2.207   8.631  1.8297 -0.5520  0.6770
24231SOL    HW273272   7.422   2.288   8.748 -0.0879 -1.1638  0.3122
24232SOL     OW73273   4.734   7.583   7.639 -0.7882  0.0300 -0.3644
24232SOL    HW173274   4.669   7.588   7.709 -1.6822  2.1118 -1.2601
24232SOL    HW273275   4.716   7.499   7.596 -0.7873 -0.8777  1.3162
24233SOL     OW73276   8.530   6.531   1.897  0.6960 -0.1873 -0.3976
24233SOL    HW173277   8.565   6.507   1.983  0.7030 -1.7070 -0.7979
24233SOL    HW273278   8.511   6.624   1.904  0.5930 -0.3087  1.2921
24234SOL     OW73279   5.307   3.244   3.311  0.2665  0.3438  0.3518
24234SOL    HW173280   5.345   3.228   3.397  0.5976  0.7949  0.2936
24234SOL    HW273281   5.378   3.221   3.250  0.2737  0.7062  0.2251
24235SOL     OW73282   1.636   0.333   1.261 -0.2029  0.1965  0.2402
24235SOL    HW173283   1.571   0.402   1.247 -1.3620 -0.9577 -0.3486
24235SOL    HW273284   1.613   0.266   1.196  0.9551 -0.6842  0.7162
24236SOL     OW73285   4.923   1.326   2.465 -0.2918 -0.2560  0.3150
24236SOL    HW173286   4.950   1.383   2.394 -0.9796 -1.4093 -0.9156
24236SOL    HW273287   4.979   1.351   2.539 -0.5314  1.9333 -0.1777
24237SOL     OW73288   2.599   8.695   3.766 -0.2796 -0.1919 -0.8178
24237SOL    HW173289   2.644   8.714   3.848 -0.0073 -0.9962 -0.7639
24237SOL    HW273290   2.576   8.602   3.772  0.4031 -0.4658 -1.9356
24238SOL     OW73291   6.541   7.157   1.023  0.1320 -0.3421  0.0421
24238SOL    HW173292   6.488   7.222   0.977 -1.3417 -0.1999  1.8162
24238SOL    HW273293   6.568   7.200   1.104  3.9060 -0.0739 -1.1687
24239SOL     OW73294   6.171   4.506   5.736 -0.3875 -0.0443 -0.0763
24239SOL    HW173295   6.086   4.530   5.699 -0.4084  2.8021  1.5553
24239SOL    HW273296   6.152   4.476   5.825  0.1524 -1.5646 -0.4449
24240SOL     OW73297   7.676   1.208   1.232  0.0134  0.0442 -0.1077
24240SOL    HW173298   7.744   1.240   1.172  1.2095  2.5568  2.3419
24240SOL    HW273299   7.721   1.202   1.317 -2.1063 -1.2820  1.0051
24241SOL     OW73300   7.955   7.562   7.336 -0.1662  0.3476 -0.2673
24241SOL    HW173301   8.038   7.525   7.305 -0.4580 -0.4451 -0.1180
24241SOL    HW273302   7.948   7.647   7.291  0.1737 -0.0867 -1.1584
24242SOL     OW73303   9.428   9.795   8.217  0.3340 -0.3472 -0.2275
24242SOL    HW173304   9.437   9.751   8.302  0.1073 -1.7747 -0.9279
24242SOL    HW273305   9.336   9.819   8.213  0.6601  1.2067  0.6106
24243SOL     OW73306   6.782   9.319   7.445  0.0042  0.2719 -0.0067
24243SOL    HW173307   6.746   9.273   7.369  2.2241  0.2735 -1.1390
24243SOL    HW273308   6.725   9.293   7.517 -1.1201 -1.1702 -1.3245
24244SOL     OW73309   5.469   8.257   7.136  0.4556 -0.4890  0.3795
24244SOL    HW173310   5.515   8.334   7.172  1.9851 -1.6994  1.1567
24244SOL    HW273311   5.376   8.277   7.148  0.7960  1.4103  0.1743
24245SOL     OW73312   7.288   1.511   5.958  0.0963  0.5903 -0.4393
24245SOL    HW173313   7.227   1.440   5.940  0.5174 -0.4024  1.6442
24245SOL    HW273314   7.350   1.510   5.885 -0.0257 -1.0815 -0.5564
24246SOL     OW73315   4.497   1.155   2.460 -0.9430  0.9926  0.0099
24246SOL    HW173316   4.489   1.173   2.367 -0.4304  0.0880 -0.2158
24246SOL    HW273317   4.592   1.154   2.477 -0.9586 -0.6417  0.1594
24247SOL     OW73318   2.466   2.194   9.840 -0.5216 -0.7338  0.4239
24247SOL    HW173319   2.397   2.138   9.804 -1.9408 -0.0421  1.9785
24247SOL    HW273320   2.461   2.274   9.787  1.4952 -1.9155 -1.7869
24248SOL     OW73321   7.831   7.855   3.720 -0.5149 -0.3897  0.1419
24248SOL    HW173322   7.806   7.850   3.628  1.1665  1.4223 -0.4860
24248SOL    HW273323   7.759   7.902   3.763 -0.3550  0.6138 -0.6728
24249SOL     OW73324   6.982   3.170   0.703 -0.3227 -0.9342  0.4273
24249SOL    HW173325   7.012   3.080   0.719  0.1437 -1.0664 -0.9914
24249SOL    HW273326   7.057   3.225   0.727 -0.4229 -0.9568  0.7986
24250SOL     OW73327   7.707   3.110   7.477  0.0408 -0.5813  0.1706
24250SOL    HW173328   7.714   3.023   7.438 -0.2314  0.2811 -1.9283
24250SOL    HW273329   7.789   3.122   7.525  0.9807 -1.2270 -1.2065
24251SOL     OW73330   4.252   9.350   5.761  0.1729  0.3492  0.2654
24251SOL    HW173331   4.195   9.411   5.715  1.6124  0.5195 -1.3546
24251SOL    HW273332   4.196   9.273   5.777 -0.6357  0.6633 -0.8955
24252SOL     OW73333   3.413   7.302   6.519  0.0144 -0.1147  0.2551
24252SOL    HW173334   3.499   7.308   6.560  1.5948  0.2081 -2.8277
24252SOL    HW273335   3.391   7.209   6.526  0.8166 -0.2882  0.6952
24253SOL     OW73336   3.584   3.668   7.555  0.0433  0.0328  0.3025
24253SOL    HW173337   3.669   3.713   7.554  0.5153 -0.8379 -0.0592
24253SOL    HW273338   3.586   3.612   7.477  0.6937 -2.7943  2.2045
24254SOL     OW73339   8.459   5.011   1.549  0.3268  0.2711 -0.1845
24254SOL    HW173340   8.540   5.060   1.565 -0.2216  1.5068 -1.0545
24254SOL    HW273341   8.389   5.072   1.572 -0.3823 -0.9175  0.9319
24255SOL     OW73342   3.192   0.760   1.683 -0.1542 -0.9329 -0.5173
24255SOL    HW173343   3.237   0.683   1.717  1.2879  0.4838  0.9508
24255SOL    HW273344   3.145   0.796   1.758  0.3206  0.3647 -0.8150
24256SOL     OW73345   0.176   0.712   8.346 -0.3349 -0.1424  0.0738
24256SOL    HW173346   0.210   0.800   8.331 -1.0390 -0.1135 -1.4457
24256SOL    HW273347   0.234   0.676   8.413 -0.2786  1.6038  1.0286
24257SOL     OW73348   1.682   6.311   5.330 -0.1740 -0.0264  0.3726
24257SOL    HW173349   1.632   6.347   5.403 -0.8690 -0.0658 -0.0800
24257SOL    HW273350   1.690   6.384   5.268 -2.3201 -0.8129 -0.9350
24258SOL     OW73351   9.852   6.057   5.591  0.4031  0.5507  0.1185
24258SOL    HW173352   9.917   5.987   5.588  0.4199  0.5683  0.0609
24258SOL    HW273353   9.902   6.135   5.616  0.3998  0.5596  0.0969
24259SOL     OW73354   0.088   4.882   2.835  0.0265 -0.0906  0.3998
24259SOL    HW173355   0.059   4.864   2.746  1.4140  1.6547 -0.4579
24259SOL    HW273356   0.180   4.854   2.837  0.1831  0.4345  1.0961
24260SOL     OW73357   5.397   2.303   2.926 -0.1295 -0.5401 -0.7619
24260SOL    HW173358   5.341   2.335   2.997 -0.2095  0.5719 -1.3017
24260SOL    HW273359   5.468   2.258   2.971 -1.3342 -1.8178 -0.0565
24261SOL     OW73360   3.008   1.465   2.099 -0.1090  0.3800  0.0640
24261SOL    HW173361   2.972   1.474   2.011  1.3360 -1.0114 -0.7181
24261SOL    HW273362   2.969   1.537   2.149 -1.7113  0.6189 -1.4447
24262SOL     OW73363   8.254   9.327   8.720 -0.2385 -0.0456 -0.0958
24262SOL    HW173364   8.325   9.283   8.674 -0.5436 -0.5324 -0.1086
24262SOL    HW273365   8.233   9.403   8.666  0.3258  0.1451 -0.0495
24263SOL     OW73366   5.867   5.774   6.163  0.3666 -0.2184  0.1757
24263SOL    HW173367   5.784   5.779   6.211  0.7172  0.8196  0.7098
24263SOL    HW273368   5.887   5.681   6.159  0.2469 -0.3482  1.9508
24264SOL     OW73369   2.439   7.695   8.461 -1.2881 -0.1992 -0.5585
24264SOL    HW173370   2.509   7.637   8.431 -1.7445 -0.4426 -1.1938
24264SOL    HW273371   2.425   7.670   8.553 -0.3902  0.0203 -0.3598
24265SOL     OW73372   7.063   9.308   1.378  0.1060 -1.0058  0.0568
24265SOL    HW173373   6.986   9.326   1.324 -1.5081  1.8301  2.9244
24265SOL    HW273374   7.044   9.225   1.421 -0.6729 -1.0195 -0.3050
24266SOL     OW73375   0.947   6.255   4.600  0.5266 -0.1266  0.3079
24266SOL    HW173376   0.935   6.350   4.600  0.0933 -0.1782  0.4269
24266SOL    HW273377   0.942   6.230   4.692  0.4946 -0.2819  0.2646
24267SOL     OW73378   0.031   0.967   3.872 -0.1566 -0.0157  0.2179
24267SOL    HW173379   0.102   1.032   3.874 -0.4520  0.3108  0.1848
24267SOL    HW273380  -0.007   0.975   3.785 -0.4572  0.0565  0.3533
24268SOL     OW73381   2.810   6.774   8.641 -0.7128 -0.0627  0.4924
24268SOL    HW173382   2.790   6.778   8.735  0.7435 -0.7423  0.8742
24268SOL    HW273383   2.757   6.702   8.608 -0.4546 -0.5119  1.0338
24269SOL     OW73384   3.503   6.771   3.570 -0.3958 -0.4003 -0.7099
24269SOL    HW173385   3.514   6.715   3.647  1.8709  2.4709  1.3040
24269SOL    HW273386   3.409   6.784   3.563 -0.6694  0.3194  2.5738
24270SOL     OW73387   0.366   4.169   4.385  0.0609 -0.1041  0.0520
24270SOL    HW173388   0.278   4.184   4.350  0.3053 -0.7200 -0.8755
24270SOL    HW273389   0.424   4.207   4.318  0.5204 -0.5227  0.2102
24271SOL     OW73390   5.313   2.357   7.726  0.7847  0.2605  0.1508
24271SOL    HW173391   5.339   2.426   7.788  1.1301 -0.6649  1.0562
24271SOL    HW273392   5.251   2.400   7.667  0.6511  1.2345  0.9761
24272SOL     OW73393   1.505   0.687   5.659 -0.6508  0.1662 -0.1988
24272SOL    HW173394   1.528   0.703   5.567 -1.2595  1.9067 -0.1037
24272SOL    HW273395   1.455   0.765   5.684  0.0062 -0.0049  1.7895
24273SOL     OW73396   6.387   3.484   0.655 -0.2397  0.3456  0.3518
24273SOL    HW173397   6.457   3.544   0.629  0.3391  0.6017  2.3525
24273SOL    HW273398   6.312   3.511   0.602  0.3826  1.9703  0.2232
24274SOL     OW73399   8.334   4.091   1.365  0.4162  0.6607 -0.4156
24274SOL    HW173400   8.399   4.054   1.424 -0.5864  1.0690  0.9788
24274SOL    HW273401   8.327   4.028   1.294  0.0582 -0.9293  0.9884
24275SOL     OW73402   4.780   0.567   4.999 -0.2720  0.7553  0.0497
24275SOL    HW173403   4.767   0.484   4.952 -0.4791  0.6012  0.3760
24275SOL    HW273404   4.802   0.630   4.930  1.1577  0.1665 -0.0715
24276SOL     OW73405   1.690   9.020   2.242  0.0077 -0.2927  0.3571
24276SOL    HW173406   1.602   9.022   2.204 -0.0925 -0.6603  0.5589
24276SOL    HW273407   1.733   9.098   2.208 -0.3050 -0.2594  0.0313
24277SOL     OW73408   2.357   8.111   1.392 -1.0804 -0.5140  0.0564
24277SOL    HW173409   2.425   8.050   1.419 -0.6372  0.5041  1.2994
24277SOL    HW273410   2.404   8.183   1.351 -1.5888 -0.8743 -1.2252
24278SOL     OW73411   1.772   1.239   4.306 -0.0557  0.3286 -0.0748
24278SOL    HW173412   1.734   1.326   4.290 -1.0643  0.0295  0.5409
24278SOL    HW273413   1.697   1.180   4.301 -0.2337 -0.0192  3.7156
24279SOL     OW73414   1.009   7.349   5.129  0.8808 -0.5867 -0.3446
24279SOL    HW173415   1.090   7.303   5.107  1.5399  0.7589 -0.9042
24279SOL    HW273416   0.981   7.389   5.046  0.4520  0.1680  0.1471
24280SOL     OW73417   7.234   3.402   1.348  0.2092  0.2694  0.0498
24280SOL    HW173418   7.179   3.456   1.404  3.2998  3.4725  0.3976
24280SOL    HW273419   7.288   3.351   1.408  2.1011  2.1819  0.1055
24281SOL     OW73420   6.733   5.123   4.196  0.6063  0.1335 -0.0350
24281SOL    HW173421   6.748   5.184   4.125  0.7197  0.8837  0.6211
24281SOL    HW273422   6.783   5.158   4.269  1.0559 -1.0007  0.2202
24282SOL     OW73423   1.786   5.325   7.770  0.3745  0.9731  0.7291
24282SOL    HW173424   1.877   5.337   7.794  0.2005  0.4864  1.6790
24282SOL    HW273425   1.748   5.413   7.776  0.8558  1.2465 -0.0625
24283SOL     OW73426   0.779   0.238   5.526  0.2954  0.4742  0.0837
24283SOL    HW173427   0.860   0.288   5.528  0.6182 -0.0302 -0.1175
24283SOL    HW273428   0.716   0.291   5.575 -0.0072  2.1788 -1.9958
24284SOL     OW73429   2.660   2.742   0.216  0.3140  0.5801  0.2034
24284SOL    HW173430   2.678   2.654   0.183  0.5317  0.5821  0.3190
24284SOL    HW273431   2.735   2.763   0.271  0.6953  1.1824 -0.5185
24285SOL     OW73432   0.523   3.579   1.674  0.0349 -0.0366  0.2284
24285SOL    HW173433   0.517   3.640   1.600 -2.2934 -0.0302  0.3520
24285SOL    HW273434   0.617   3.563   1.685  0.4617  0.0267 -2.6647
24286SOL     OW73435   2.288   3.634   8.878  0.5910 -0.4132 -0.3053
24286SOL    HW173436   2.202   3.622   8.919  1.0382  1.8719  1.5003
24286SOL    HW273437   2.338   3.557   8.905 -0.4781 -1.1592 -0.3552
24287SOL     OW73438   5.835   3.406   9.051 -0.5851  0.3233 -0.4637
24287SOL    HW173439   5.829   3.410   8.956 -0.0894  0.0175 -0.5086
24287SOL    HW273440   5.914   3.456   9.073 -1.0121  0.8846 -0.1658
24288SOL     OW73441   9.376   1.350   0.375 -0.0711  0.2648  0.1083
24288SOL    HW173442   9.464   1.350   0.338 -0.1267  0.5905 -0.0243
24288SOL    HW273443   9.341   1.264   0.352  0.1552  0.1924  0.0287
24289SOL     OW73444   9.130   6.010   4.177 -0.4560  0.0493 -0.5384
24289SOL    HW173445   9.105   5.919   4.195 -1.0153  0.2920 -0.0343
24289SOL    HW273446   9.141   6.049   4.264 -0.1160  0.4322 -0.7533
24290SOL     OW73447   2.434   2.504   8.262  0.4834 -0.5321  0.4750
24290SOL    HW173448   2.481   2.587   8.269 -0.5317  0.3180 -1.6613
24290SOL    HW273449   2.341   2.529   8.268  0.1545 -1.4479 -0.4182
24291SOL     OW73450   8.108   9.039   3.924  0.2274  0.6813  0.3391
24291SOL    HW173451   8.124   9.045   3.830 -0.7560  1.8858  0.2167
24291SOL    HW273452   8.024   9.082   3.937 -1.6269 -2.7962  1.2830
24292SOL     OW73453   1.844   3.435   6.755 -0.1202 -0.2750  0.3225
24292SOL    HW173454   1.757   3.427   6.715 -0.2930  1.3368  0.2955
24292SOL    HW273455   1.901   3.460   6.683  0.1296 -0.1662  0.5562
24293SOL     OW73456   3.873   2.275   4.984 -0.2992  0.5623  0.0582
24293SOL    HW173457   3.928   2.219   5.039  0.3232  1.9538  0.9038
24293SOL    HW273458   3.783   2.255   5.013  0.0046  1.1053  1.4618
24294SOL     OW73459   2.537   6.788   4.147 -0.1628 -0.6459 -0.0339
24294SOL    HW173460   2.622   6.745   4.156 -0.1256 -0.6678 -0.4909
24294SOL    HW273461   2.485   6.752   4.219  0.3355 -0.3328  0.4905
24295SOL     OW73462   9.454   0.691   8.744 -0.1822  0.3297 -0.4401
24295SOL    HW173463   9.376   0.724   8.699 -1.0626  1.3865  1.7055
24295SOL    HW273464   9.527   0.732   8.699 -1.0343  1.5295 -0.7774
24296SOL     OW73465   8.516   3.370   9.845 -0.3440  0.4260 -0.2222
24296SOL    HW173466   8.435   3.344   9.889  0.6561 -3.5480 -0.3202
24296SOL    HW273467   8.583   3.362   9.913  0.6074 -1.5218 -1.3059
24297SOL     OW73468   4.919   3.512   9.877  0.2855 -0.3915  0.1226
24297SOL    HW173469   5.000   3.517   9.825  0.8956  2.3849  1.1226
24297SOL    HW273470   4.861   3.577   9.837  0.6813  1.6430  2.5983
24298SOL     OW73471   2.071   4.369   2.096 -0.4730 -0.1760  0.0868
24298SOL    HW173472   2.138   4.427   2.134 -0.6273  0.1129 -0.0769
24298SOL    HW273473   1.993   4.384   2.149 -1.0942  1.2563 -1.1617
24299SOL     OW73474   0.125   1.341   3.657 -0.7066  0.1480  0.4685
24299SOL    HW173475   0.205   1.363   3.609 -1.8076 -2.1920 -2.7588
24299SOL    HW273476   0.148   1.264   3.709 -0.8516 -0.6445 -0.6089
24300SOL     OW73477   4.292   1.925   6.877 -0.4493 -0.0822 -0.3823
24300SOL    HW173478   4.246   1.855   6.923 -0.7996 -0.5738 -1.4731
24300SOL    HW273479   4.249   2.005   6.907  0.3677 -0.2427  1.3651
24301SOL     OW73480   2.742   1.152   0.167 -0.4166 -0.3828 -0.0456
24301SOL    HW173481   2.742   1.060   0.140 -2.6116 -1.1248  2.0627
24301SOL    HW273482   2.824   1.162   0.216 -0.2416 -1.2592 -0.1372
24302SOL     OW73483   5.585   1.455   2.452 -0.1220  0.1284 -0.6543
24302SOL    HW173484   5.584   1.391   2.524  0.4161  2.0921  1.1850
24302SOL    HW273485   5.611   1.537   2.493 -0.0120  1.3932 -3.0916
24303SOL     OW73486   0.606   4.209   1.108  0.2273  0.4197  0.6905
24303SOL    HW173487   0.697   4.226   1.084  0.0870  0.2899  0.0446
24303SOL    HW273488   0.590   4.119   1.081 -0.2221  0.5855  0.3898
24304SOL     OW73489   0.571   6.632   0.578  0.0621  0.5741  0.3515
24304SOL    HW173490   0.577   6.537   0.589 -0.0999  0.6619  1.2234
24304SOL    HW273491   0.633   6.668   0.641 -1.2935  1.1043  1.4343
24305SOL     OW73492   2.658   9.676   8.616  0.3994 -0.4981  0.4136
24305SOL    HW173493   2.625   9.682   8.705  0.0395 -0.1085  0.2567
24305SOL    HW273494   2.697   9.762   8.598 -1.3423  0.1524 -0.5012
24306SOL     OW73495   2.363   4.725   2.746 -0.5449 -1.0845 -0.2036
24306SOL    HW173496   2.313   4.662   2.694 -1.0993 -0.5762 -0.2844
24306SOL    HW273497   2.428   4.671   2.791 -0.4553 -1.6092 -0.9393
24307SOL     OW73498   9.868   4.595   4.229 -0.2726  0.0427 -0.3591
24307SOL    HW173499   9.919   4.560   4.156 -0.9190 -0.2831 -0.6565
24307SOL    HW273500   9.834   4.518   4.274 -0.3840  0.2555 -0.0731
24308SOL     OW73501   0.076   1.625   0.569 -0.0111  0.3032  0.2705
24308SOL    HW173502   0.032   1.653   0.649  0.5756  1.0193  0.3487
24308SOL    HW273503   0.078   1.530   0.575 -1.3238  0.2621  0.3828
24309SOL     OW73504   9.522   3.161   0.499 -0.3614  0.1206 -0.5121
24309SOL    HW173505   9.486   3.196   0.581 -0.1889 -0.2749 -0.2607
24309SOL    HW273506   9.533   3.238   0.443  0.2577  0.5201  0.1202
24310SOL     OW73507   2.117   1.002   6.446  0.2718  0.1655 -0.6954
24310SOL    HW173508   2.029   0.991   6.484  0.4065  0.2928 -0.3448
24310SOL    HW273509   2.174   0.951   6.504  0.3147 -0.6065 -1.3926
24311SOL     OW73510   5.253   3.875   3.256 -0.2590  0.4088  0.1156
24311SOL    HW173511   5.203   3.880   3.338  0.7939  0.8088  0.7530
24311SOL    HW273512   5.192   3.836   3.193 -0.8896 -0.4733  1.2386
24312SOL     OW73513   2.852   9.703   3.960 -0.0540  0.0221 -0.4275
24312SOL    HW173514   2.920   9.734   3.900  0.3453 -0.5929 -0.2952
24312SOL    HW273515   2.877   9.613   3.981  0.8114  0.7529  2.0431
24313SOL     OW73516   3.088   1.943   7.758  0.3205 -0.2342  0.2951
24313SOL    HW173517   3.087   1.939   7.853  0.7723 -1.5515  0.2720
24313SOL    HW273518   3.011   1.994   7.735 -0.4391 -0.8725  1.3329
24314SOL     OW73519   1.201   7.230   2.768  0.3826 -0.0218  0.2543
24314SOL    HW173520   1.264   7.170   2.809  0.1841  0.2557  0.9813
24314SOL    HW273521   1.252   7.309   2.749  0.5760 -0.3052 -0.4414
24315SOL     OW73522   3.882   6.538   2.373  0.2059 -0.3654 -1.0610
24315SOL    HW173523   3.821   6.470   2.401  0.7664 -0.6836 -0.6054
24315SOL    HW273524   3.939   6.496   2.310  0.6061 -0.3379 -0.7171
24316SOL     OW73525   3.834   5.651   4.464 -0.0146 -0.2160  0.3585
24316SOL    HW173526   3.900   5.592   4.426  0.7797  0.9648 -0.1773
24316SOL    HW273527   3.882   5.701   4.531 -0.3827  0.5521  0.0662
24317SOL     OW73528   7.615   4.650   9.229  0.0971  0.3201  0.4267
24317SOL    HW173529   7.548   4.582   9.225 -0.6439  0.9679  1.5186
24317SOL    HW273530   7.682   4.620   9.167 -0.9027 -0.6407 -0.2405
24318SOL     OW73531   1.196   1.441   7.675  0.5692 -0.0736  0.0351
24318SOL    HW173532   1.255   1.403   7.610  0.9896  1.3687 -0.4684
24318SOL    HW273533   1.250   1.503   7.724  0.1733 -0.8921  1.5534
24319SOL     OW73534   6.153   1.938   4.737  0.1220  0.0634 -0.3470
24319SOL    HW173535   6.215   1.927   4.666  0.5468  1.8250 -0.2947
24319SOL    HW273536   6.167   2.027   4.768 -0.1926 -0.5741  1.8203
24320SOL     OW73537   7.755   6.353   1.483 -0.6333  0.1124  0.3392
24320SOL    HW173538   7.831   6.399   1.448  0.0792 -0.5700  0.9421
24320SOL    HW273539   7.680   6.402   1.451  0.0770  1.1175  0.1852
24321SOL     OW73540   9.857   4.353   2.131  0.1987 -0.9009 -0.1569
24321SOL    HW173541   9.795   4.419   2.159  0.3799 -0.5864 -0.4958
24321SOL    HW273542   9.898   4.323   2.212  1.3977  0.6700 -0.1387
24322SOL     OW73543   8.769   6.083   7.734  0.2140 -0.2856  0.4438
24322SOL    HW173544   8.861   6.078   7.705 -0.2639  1.7172 -1.7095
24322SOL    HW273545   8.761   6.170   7.774 -0.4846 -0.9266  1.7510
24323SOL     OW73546   7.578   1.134   0.628  0.2597 -0.0506 -0.2113
24323SOL    HW173547   7.563   1.111   0.719  2.5878  1.3592  0.6023
24323SOL    HW273548   7.587   1.050   0.583 -0.9969 -0.7632  0.7995
24324SOL     OW73549   9.803   2.077   8.408 -0.3076  0.1714 -0.1405
24324SOL    HW173550   9.711   2.052   8.402 -0.5918  1.0651  0.2708
24324SOL    HW273551   9.825   2.108   8.320 -0.8829  1.4819  0.1497
24325SOL     OW73552   0.709   8.266   3.160 -0.2716 -0.1675 -0.4021
24325SOL    HW173553   0.622   8.249   3.197 -0.4410 -0.4538 -0.9301
24325SOL    HW273554   0.720   8.200   3.091  1.8552 -2.5612  2.0027
24326SOL     OW73555   2.171   9.745   7.356  0.3018  0.1813  0.0789
24326SOL    HW173556   2.179   9.700   7.440  1.6306 -0.0061 -0.1309
24326SOL    HW273557   2.213   9.830   7.370  1.7517 -0.3685 -0.7534
24327SOL     OW73558   5.864   7.186   0.154 -0.6459  0.0655  0.1987
24327SOL    HW173559   5.936   7.127   0.173 -1.1496 -0.5050  0.3812
24327SOL    HW273560   5.796   7.162   0.218 -0.7803  0.9783  0.4171
24328SOL     OW73561   7.741   0.510   1.132  0.1423 -0.1043 -0.0654
24328SOL    HW173562   7.705   0.595   1.157 -1.0388 -0.9475  1.2436
24328SOL    HW273563   7.665   0.451   1.128  1.0061 -1.2515 -0.2695
24329SOL     OW73564   4.159   1.866   5.858 -0.2588  0.1800 -0.2188
24329SOL    HW173565   4.189   1.780   5.829  1.5197  0.5594  0.4193
24329SOL    HW273566   4.096   1.848   5.927 -0.4911 -0.6147 -0.6318
24330SOL     OW73567   4.924   6.432   1.225  0.0696  0.4724  0.4437
24330SOL    HW173568   5.016   6.414   1.242 -0.1257 -0.8157  0.2508
24330SOL    HW273569   4.877   6.364   1.273 -0.6757 -0.4162 -1.4304
24331SOL     OW73570   0.281   4.889   7.411  0.4295  0.4106 -0.0362
24331SOL    HW173571   0.278   4.968   7.465  0.3153 -0.7910  1.8006
24331SOL    HW273572   0.191   4.859   7.408  0.7866 -0.9188  1.3182
24332SOL     OW73573   2.358   3.786   0.590  0.1318  0.7280 -0.2761
24332SOL    HW173574   2.442   3.831   0.583 -0.2051  1.4330  0.1356
24332SOL    HW273575   2.360   3.746   0.677 -0.1147  1.0726 -0.1103
24333SOL     OW73576   2.318   5.731   2.174  0.1159  0.1560  0.0356
24333SOL    HW173577   2.335   5.809   2.227  1.5226 -0.8484  1.1299
24333SOL    HW273578   2.349   5.754   2.087 -0.4604  1.1730  0.0847
24334SOL     OW73579   7.554   0.952   1.300  0.2463 -0.1031  0.0518
24334SOL    HW173580   7.607   1.022   1.263 -1.3104  0.1123 -1.9689
24334SOL    HW273581   7.499   0.994   1.366  0.6500  0.1895  0.2031
24335SOL     OW73582   7.886   9.531   7.543  0.2601  0.0678 -0.0221
24335SOL    HW173583   7.817   9.597   7.539  1.1210  0.9886 -0.0162
24335SOL    HW273584   7.840   9.448   7.548 -0.8650  0.7406  1.3740
24336SOL     OW73585   6.358   2.390   7.819  0.2150  0.2645 -0.3913
24336SOL    HW173586   6.414   2.457   7.858 -3.3373  2.9895  0.5096
24336SOL    HW273587   6.341   2.423   7.730  1.2830 -1.4136 -1.2667
24337SOL     OW73588   3.346   5.002   1.512  0.4622 -0.6508 -0.3047
24337SOL    HW173589   3.392   5.052   1.444 -0.1569 -0.2835 -0.4612
24337SOL    HW273590   3.276   4.957   1.465  0.1324 -0.5269  0.0708
24338SOL     OW73591   4.047   5.850   3.451 -0.3334 -0.1987  0.6780
24338SOL    HW173592   4.004   5.909   3.388 -0.0997  0.2608  0.9474
24338SOL    HW273593   4.132   5.831   3.413 -1.0811 -1.8349 -0.3021
24339SOL     OW73594   2.042   0.696   9.297  0.6327  0.4992 -0.0108
24339SOL    HW173595   2.106   0.732   9.236  2.4575 -1.4740  0.6036
24339SOL    HW273596   2.064   0.735   9.382 -0.4726  1.5454 -0.1866
24340SOL     OW73597   4.862   1.311   0.175 -0.0871 -0.3473 -0.1904
24340SOL    HW173598   4.837   1.396   0.210 -1.2867 -0.1684 -1.3798
24340SOL    HW273599   4.885   1.328   0.084 -0.8580 -1.3509 -0.5982
24341SOL     OW73600   4.550   2.411   1.660 -0.5051 -0.3752  0.1563
24341SOL    HW173601   4.646   2.410   1.661 -0.4974 -0.0738  1.0130
24341SOL    HW273602   4.525   2.343   1.723 -0.8360  0.2461  0.7115
24342SOL     OW73603   5.608   0.668   5.755 -0.5950 -0.3465  0.0978
24342SOL    HW173604   5.703   0.662   5.743 -0.5290  0.4927  0.1665
24342SOL    HW273605   5.571   0.616   5.684 -0.0588 -2.8796  1.5614
24343SOL     OW73606   8.345   7.211   0.062 -0.4065  0.0109 -0.2149
24343SOL    HW173607   8.286   7.250  -0.001 -1.0359  0.1808  0.4671
24343SOL    HW273608   8.288   7.162   0.121 -0.0011  1.0959  1.1245
24344SOL     OW73609   6.063   0.551   8.715 -0.9336 -0.1868  0.5489
24344SOL    HW173610   6.098   0.571   8.628  2.8257 -0.7114  1.7731
24344SOL    HW273611   5.979   0.508   8.697 -0.8566  0.7487 -2.7376
24345SOL     OW73612   5.642   1.063   3.020 -0.4413  0.1238  0.3666
24345SOL    HW173613   5.568   1.008   2.995  1.1588 -1.5483 -0.9858
24345SOL    HW273614   5.603   1.150   3.035 -2.6223 -0.6318 -0.4990
24346SOL     OW73615   0.250   1.180   5.617  0.5170  0.0013 -0.0185
24346SOL    HW173616   0.302   1.153   5.693  0.1440  0.3749  0.3812
24346SOL    HW273617   0.181   1.114   5.611  0.0826  0.4038  0.4592
24347SOL     OW73618   5.343   7.135   4.327  0.0001 -0.7443  0.0123
24347SOL    HW173619   5.331   7.040   4.329 -1.7319 -0.5541  1.0142
24347SOL    HW273620   5.271   7.167   4.272  1.3735 -0.0688 -1.4929
24348SOL     OW73621   3.599   8.439   0.129  0.4259 -0.1450 -0.1010
24348SOL    HW173622   3.569   8.476   0.046 -0.5192 -0.1602  0.2157
24348SOL    HW273623   3.660   8.370   0.104  0.5587  0.2039 -0.7666
24349SOL     OW73624   5.117   6.668   4.468 -0.5945 -0.6377  0.1859
24349SOL    HW173625   5.047   6.612   4.501 -1.5394 -1.2015 -2.5364
24349SOL    HW273626   5.185   6.608   4.439 -0.3379 -0.2456 -0.0445
24350SOL     OW73627   8.331   6.908   4.024  0.1536  0.1351  0.1956
24350SOL    HW173628   8.258   6.960   4.058 -1.1243  0.4967 -2.8182
24350SOL    HW273629   8.408   6.944   4.069 -0.9452  3.1610 -0.0920
24351SOL     OW73630   6.471   4.951   9.148 -0.2361  0.2564  0.1268
24351SOL    HW173631   6.516   4.928   9.066  1.2333  0.3611  0.8697
24351SOL    HW273632   6.518   4.902   9.215 -2.3401 -0.9806  0.7811
24352SOL     OW73633   5.694   3.712  10.001  0.7090 -0.7044 -0.2591
24352SOL    HW173634   5.703   3.637   9.943 -0.6725 -1.1195  0.0228
24352SOL    HW273635   5.604   3.743   9.987  1.1467  0.6885 -0.1240
24353SOL     OW73636   8.581   0.862   0.015  0.0347 -0.0321 -0.2798
24353SOL    HW173637   8.587   0.767   0.004  0.3853  0.0077 -0.4726
24353SOL    HW273638   8.658   0.884   0.068  0.8300  0.3374 -1.5596
24354SOL     OW73639   2.186   8.130   9.880 -0.1366  0.0837 -0.7346
24354SOL    HW173640   2.193   8.133   9.976 -1.5357  2.0562 -0.6368
24354SOL    HW273641   2.265   8.175   9.849  1.1016 -1.8871 -0.6216
24355SOL     OW73642   5.932   3.038   1.299 -0.2954 -0.1914  0.6047
24355SOL    HW173643   5.856   2.997   1.338 -0.8353  1.3407  1.2396
24355SOL    HW273644   5.938   3.000   1.211 -1.5956 -0.5602  0.6640
24356SOL     OW73645   9.003   1.301   8.769  0.4787  0.3759  0.2795
24356SOL    HW173646   9.016   1.364   8.840  0.3350  1.3563 -0.5433
24356SOL    HW273647   8.929   1.335   8.719 -0.9865 -1.5670  0.9977
24357SOL     OW73648   6.132   4.963   2.963  0.3073  0.5893 -0.1925
24357SOL    HW173649   6.048   4.928   2.994 -0.8552  2.6569 -0.7850
24357SOL    HW273650   6.115   5.056   2.951  2.7345  1.0574 -0.3254
24358SOL     OW73651   5.455   3.039   7.908  0.2689 -0.7474  0.2124
24358SOL    HW173652   5.539   3.016   7.869  0.0245 -0.8503 -0.2641
24358SOL    HW273653   5.396   2.969   7.879  0.4438 -1.7188  2.0819
24359SOL     OW73654   7.175   5.089   3.443  0.0488  0.0247 -0.4730
24359SOL    HW173655   7.136   5.010   3.404  0.5976  0.0539 -1.1072
24359SOL    HW273656   7.145   5.161   3.387 -0.9602  0.3591  0.4706
24360SOL     OW73657   3.605   6.497   2.910  0.3652 -0.2518  0.5271
24360SOL    HW173658   3.568   6.530   2.992  1.0250  0.4343  0.5508
24360SOL    HW273659   3.530   6.493   2.850  0.2386  1.2324  0.5422
24361SOL     OW73660   8.514   1.961   2.119  0.0279 -0.0001  0.4094
24361SOL    HW173661   8.449   1.983   2.053  1.1118  0.3022 -0.5928
24361SOL    HW273662   8.466   1.911   2.185 -1.3382  0.7609  0.0203
24362SOL     OW73663   4.850   5.941   5.691  0.1292 -0.2025  0.0295
24362SOL    HW173664   4.762   5.909   5.671  0.4152 -1.4532  0.6959
24362SOL    HW273665   4.888   5.963   5.605 -0.8093  0.3347 -0.2620
24363SOL     OW73666   0.752   2.093   5.841 -0.5517 -0.0635 -0.4028
24363SOL    HW173667   0.734   2.159   5.908  0.7636  0.2638 -0.3534
24363SOL    HW273668   0.755   2.010   5.889 -1.0566 -0.0247 -0.2943
24364SOL     OW73669   4.637   3.621   8.023  0.6817  0.1118 -0.2536
24364SOL    HW173670   4.603   3.622   7.933 -2.4968 -0.1273  0.8322
24364SOL    HW273671   4.691   3.699   8.029 -0.4146  1.0598 -1.9225
24365SOL     OW73672   2.855   2.961   9.442  0.2376 -0.0589  0.0179
24365SOL    HW173673   2.913   3.032   9.416 -1.7165  1.8447  0.5236
24365SOL    HW273674   2.794   2.952   9.369 -3.1314  2.9528  2.1482
24366SOL     OW73675   9.734   5.410   2.817 -0.2927  0.4871  0.0109
24366SOL    HW173676   9.710   5.415   2.909  1.2619  0.5513  0.4443
24366SOL    HW273677   9.728   5.501   2.786 -0.7555  0.4753  0.0675
24367SOL     OW73678   2.188   4.906   9.044 -0.0393  0.5318  0.2713
24367SOL    HW173679   2.143   4.936   8.965 -0.4985 -0.1531  0.2716
24367SOL    HW273680   2.125   4.849   9.088  1.1012 -1.1607 -0.1766
24368SOL     OW73681   4.094   3.269   9.316 -0.1568 -0.5864  0.1442
24368SOL    HW173682   4.073   3.278   9.409  1.4825 -1.7164  0.6887
24368SOL    HW273683   4.131   3.354   9.291  0.0759 -0.5084  0.7413
24369SOL     OW73684   3.636   7.435   6.153  0.0782 -0.3096  0.3684
24369SOL    HW173685   3.603   7.345   6.151 -0.9881  0.0772  0.1729
24369SOL    HW273686   3.624   7.468   6.064  1.5167 -0.3229  0.1417
24370SOL     OW73687   9.153   1.912   9.198 -0.0943 -0.0679 -0.1513
24370SOL    HW173688   9.085   1.854   9.164  1.3264 -2.1258  0.3457
24370SOL    HW273689   9.205   1.857   9.257  2.1200  1.3499 -0.6500
24371SOL     OW73690   9.137   8.526   9.005  0.1180 -0.0054  0.1996
24371SOL    HW173691   9.231   8.541   9.014  0.5109 -0.5910 -2.1868
24371SOL    HW273692   9.098   8.613   9.010  1.0187  0.4744 -0.8216
24372SOL     OW73693   4.627   6.828   8.937 -0.2533  0.6421 -0.4907
24372SOL    HW173694   4.686   6.821   8.862 -0.8024 -0.3524 -0.8468
24372SOL    HW273695   4.682   6.863   9.008  0.5560  0.5065 -1.0394
24373SOL     OW73696   7.561   3.357   2.808 -0.2165 -0.2674  0.1226
24373SOL    HW173697   7.592   3.447   2.802  0.6010 -0.4367  1.3389
24373SOL    HW273698   7.531   3.335   2.719  2.6615  0.1196 -1.0642
24374SOL     OW73699   7.959   8.218   4.494  0.5277  0.2574 -0.3295
24374SOL    HW173700   7.897   8.263   4.436 -0.5474  0.1545  0.7086
24374SOL    HW273701   7.909   8.146   4.532  0.9075  0.8707  1.4377
24375SOL     OW73702   4.691   2.909   3.222 -1.2548  0.0707  0.2182
24375SOL    HW173703   4.670   3.003   3.217  1.5617  0.7995  0.4000
24375SOL    HW273704   4.751   2.895   3.149 -0.2662 -1.1843  1.2344
24376SOL     OW73705   4.795   8.535   8.412 -0.1601  0.9723 -0.3160
24376SOL    HW173706   4.805   8.631   8.412 -1.2376  1.1000  0.1254
24376SOL    HW273707   4.759   8.515   8.325 -0.0581  0.9871 -0.3618
24377SOL     OW73708   7.261   4.350   1.776  0.2890  0.6074  0.2702
24377SOL    HW173709   7.247   4.328   1.868 -0.2956  2.9460  0.8199
24377SOL    HW273710   7.250   4.267   1.730  0.8115 -0.6746  2.3061
24378SOL     OW73711   2.758   3.179   1.083  0.5153  0.3928  0.8154
24378SOL    HW173712   2.831   3.223   1.126  0.4324  0.4105  0.9385
24378SOL    HW273713   2.781   3.086   1.086  0.7270  0.4336  0.4854
24379SOL     OW73714   8.416   5.844   4.854  0.4963  0.2056  0.1217
24379SOL    HW173715   8.335   5.793   4.858  0.8639 -0.4056  0.0025
24379SOL    HW273716   8.400   5.909   4.785  0.1870 -0.0539 -0.0523
24380SOL     OW73717   2.306   3.738   9.514  0.7949 -0.0405 -0.0263
24380SOL    HW173718   2.307   3.766   9.605 -0.8445 -0.6043  0.1833
24380SOL    HW273719   2.297   3.819   9.464 -1.5274  0.0731  0.4767
24381SOL     OW73720   1.384   9.079   5.934 -0.0181  0.6710 -0.3807
24381SOL    HW173721   1.385   9.047   6.025  0.7932 -1.2412 -1.0087
24381SOL    HW273722   1.357   9.170   5.941  2.9776  1.5278  2.0922
24382SOL     OW73723   5.305   2.186   6.975  0.4805  0.2630 -0.1544
24382SOL    HW173724   5.242   2.115   6.984  1.5801 -0.9006 -1.1746
24382SOL    HW273725   5.378   2.161   7.031  0.1222  1.5482  0.9443
24383SOL     OW73726   8.725   1.012   7.228  0.1876  0.3600 -0.2662
24383SOL    HW173727   8.725   0.984   7.137  0.7499  0.2218 -0.2264
24383SOL    HW273728   8.792   1.081   7.232  0.7127 -0.1722  0.2039
24384SOL     OW73729   6.152   4.308   6.247 -0.4772 -0.1466  0.3320
24384SOL    HW173730   6.208   4.242   6.207 -1.6474 -0.4547 -0.8834
24384SOL    HW273731   6.212   4.374   6.281  0.6462 -1.0385  0.1300
24385SOL     OW73732   0.070   0.266   5.708 -0.0007 -0.3929 -0.5101
24385SOL    HW173733   0.130   0.195   5.684  0.7427  0.4122 -1.0959
24385SOL    HW273734   0.098   0.340   5.654 -0.3396  0.5356  0.5490
24386SOL     OW73735   7.328   0.659   1.663  0.7800 -0.2925 -0.1815
24386SOL    HW173736   7.352   0.750   1.682 -0.6256  0.5331 -1.9976
24386SOL    HW273737   7.264   0.637   1.730 -0.3716  0.7925 -0.8791
24387SOL     OW73738   7.205   1.418   7.847 -0.4859 -0.1807  0.6754
24387SOL    HW173739   7.217   1.329   7.879 -1.6703 -0.2604  0.9194
24387SOL    HW273740   7.145   1.409   7.773  0.7201  0.2260 -0.4009
24388SOL     OW73741   3.788   9.490   8.633 -0.0039  0.2194 -0.1507
24388SOL    HW173742   3.770   9.477   8.540  0.8361 -0.3816 -0.2411
24388SOL    HW273743   3.777   9.585   8.646  1.2830  0.5430 -1.1927
24389SOL     OW73744   6.481   8.932   0.258 -0.1228  0.1459  0.6133
24389SOL    HW173745   6.468   8.837   0.268  0.9703 -0.2321 -1.0350
24389SOL    HW273746   6.541   8.955   0.329 -0.2783 -0.4405  0.9432
24390SOL     OW73747   8.340   8.894   9.324  0.0681 -0.2421  0.6952
24390SOL    HW173748   8.349   8.980   9.283 -2.2747  1.4817  3.4369
24390SOL    HW273749   8.430   8.863   9.333  0.9733  1.6948 -0.7778
24391SOL     OW73750   4.702   2.834   2.279  0.4204 -0.5383 -0.7525
24391SOL    HW173751   4.700   2.817   2.184 -0.8121  0.2837 -0.8878
24391SOL    HW273752   4.792   2.862   2.296  0.8352 -1.3176 -1.5560
24392SOL     OW73753   9.800   9.165   5.681  0.0340  0.3817  0.0999
24392SOL    HW173754   9.882   9.160   5.729 -0.2529 -1.5818  0.4693
24392SOL    HW273755   9.742   9.217   5.738  0.4589  0.1890  0.7191
24393SOL     OW73756   9.238   7.627   1.841 -0.2416  0.2247  0.6888
24393SOL    HW173757   9.252   7.546   1.891  1.9306  0.6443  0.8543
24393SOL    HW273758   9.260   7.603   1.750 -1.6808  0.1132  0.3530
24394SOL     OW73759   0.275   8.043   3.116  0.1369  0.4923  0.5032
24394SOL    HW173760   0.331   7.971   3.086 -1.1126 -1.1880  1.9929
24394SOL    HW273761   0.337   8.110   3.146  1.3357  0.4006 -1.5446
24395SOL     OW73762   9.037   2.585   9.342 -0.3622  0.3551  0.8423
24395SOL    HW173763   9.047   2.524   9.415 -2.6000  0.5616  1.4033
24395SOL    HW273764   8.944   2.611   9.345 -0.4176  0.7434 -1.7784
24396SOL     OW73765   7.867   0.616   8.518  0.4756 -0.0940 -1.2062
24396SOL    HW173766   7.815   0.580   8.589 -0.5739 -0.8786 -2.3308
24396SOL    HW273767   7.841   0.707   8.512  0.3960 -0.0856 -0.7477
24397SOL     OW73768   5.423   5.405   7.651  0.9549  0.4388  0.4524
24397SOL    HW173769   5.386   5.489   7.678  1.0841  1.0628 -1.1839
24397SOL    HW273770   5.510   5.428   7.618  0.1907  0.0386 -2.0243
24398SOL     OW73771   8.972   7.934   5.109  0.0544 -0.0534 -0.2127
24398SOL    HW173772   9.044   7.985   5.145  1.4979 -1.7233 -0.6150
24398SOL    HW273773   9.006   7.845   5.103 -1.6800 -0.6870 -1.4342
24399SOL     OW73774   8.092   2.962   8.124 -0.1744 -0.7682 -0.1046
24399SOL    HW173775   8.031   2.987   8.194 -0.2102  2.2999 -1.0994
24399SOL    HW273776   8.111   3.044   8.079  4.4168 -1.6034 -0.1144
24400SOL     OW73777   1.973   3.403   7.807  0.3661  0.2562 -0.3448
24400SOL    HW173778   1.916   3.364   7.741  0.2619  1.6422 -1.1115
24400SOL    HW273779   2.059   3.363   7.791  0.2310  0.2158 -1.0043
24401SOL     OW73780   0.549   5.310   7.709 -0.4427  0.0282  0.1039
24401SOL    HW173781   0.515   5.238   7.656  1.3060 -0.7729 -0.0351
24401SOL    HW273782   0.642   5.316   7.684 -0.5291  2.3442  0.1201
24402SOL     OW73783   4.647   7.203   4.280  0.0552 -0.2262 -0.8605
24402SOL    HW173784   4.706   7.153   4.337  1.2807  0.0448 -1.8419
24402SOL    HW273785   4.607   7.136   4.224 -1.5026 -0.5497  0.5516
24403SOL     OW73786   8.244   6.220   7.514  0.3990  0.1684  0.3114
24403SOL    HW173787   8.316   6.159   7.527  0.9766  0.4590 -1.2847
24403SOL    HW273788   8.166   6.166   7.516  0.6475 -0.1835  1.8242
24404SOL     OW73789   7.602   8.741   0.389  0.7823 -0.4034 -0.3992
24404SOL    HW173790   7.568   8.828   0.367  1.1415 -0.5143 -1.4576
24404SOL    HW273791   7.540   8.706   0.452 -0.9630 -0.4730 -2.0507
24405SOL     OW73792   2.522   3.655   4.715 -0.0172  0.0493 -0.4460
24405SOL    HW173793   2.582   3.638   4.787 -1.1520  1.3862  0.8678
24405SOL    HW273794   2.541   3.745   4.689 -1.0485  0.2853 -0.4077
24406SOL     OW73795   3.222   2.977   8.536  0.4573 -0.3412 -0.8484
24406SOL    HW173796   3.213   3.054   8.593  0.4720 -0.9960  0.0645
24406SOL    HW273797   3.173   3.000   8.457 -1.2517 -0.1595  0.2117
24407SOL     OW73798   6.353   7.132   1.376 -0.6613 -0.3680 -0.1031
24407SOL    HW173799   6.363   7.051   1.425 -1.4770 -2.7854 -3.5841
24407SOL    HW273800   6.289   7.183   1.427 -1.1660 -2.4733  1.5059
24408SOL     OW73801   9.828   2.849   7.893 -0.3791  0.3386  0.4502
24408SOL    HW173802   9.898   2.851   7.959 -0.2340 -0.6273  0.3302
24408SOL    HW273803   9.853   2.916   7.830 -0.5281  1.3032  1.3714
24409SOL     OW73804   2.456   3.401   7.388 -0.4991 -0.4538  0.1205
24409SOL    HW173805   2.383   3.354   7.346 -0.8897 -1.3795  1.7506
24409SOL    HW273806   2.482   3.345   7.461  1.8555 -0.1317 -0.3773
24410SOL     OW73807   7.092   6.956   3.662  0.0967 -0.1831 -0.5982
24410SOL    HW173808   7.097   7.051   3.655 -0.6826 -0.1287 -0.4426
24410SOL    HW273809   7.169   6.925   3.615  0.7679  0.5473 -0.0075
24411SOL     OW73810   1.755   1.445   2.286 -0.1167  0.1757  0.2323
24411SOL    HW173811   1.764   1.507   2.214  0.6642 -0.6947 -0.4555
24411SOL    HW273812   1.797   1.488   2.360  2.6697 -0.4550 -0.8521
24412SOL     OW73813   7.413   7.187   4.316 -0.1255 -0.2147  0.2271
24412SOL    HW173814   7.383   7.172   4.406 -2.1443  2.4883  0.1455
24412SOL    HW273815   7.489   7.244   4.325 -0.1176 -0.2239  0.2191
24413SOL     OW73816   6.231   2.098   9.448  0.1217 -0.3304 -0.3071
24413SOL    HW173817   6.240   2.023   9.507 -1.1714 -0.0407  0.2898
24413SOL    HW273818   6.286   2.166   9.488 -2.7303  0.7718  2.1901
24414SOL     OW73819   9.323   6.488   4.880  0.0731  0.1750  0.3108
24414SOL    HW173820   9.387   6.435   4.926  1.3374  1.8240  0.5364
24414SOL    HW273821   9.252   6.501   4.943 -0.5349 -1.6668  0.0551
24415SOL     OW73822   9.663   1.650   3.460 -0.3918 -0.2456  0.0210
24415SOL    HW173823   9.731   1.717   3.464  0.6800 -1.2062 -1.1604
24415SOL    HW273824   9.590   1.693   3.417  0.6770 -0.0896 -1.7568
24416SOL     OW73825   5.413   6.818   9.641 -0.6601  0.4407  0.5312
24416SOL    HW173826   5.405   6.842   9.549  0.7205 -1.1669 -0.0640
24416SOL    HW273827   5.325   6.793   9.668 -0.9127  0.0691 -0.6195
24417SOL     OW73828   9.741   6.492   7.791  0.6242 -0.2054  0.7803
24417SOL    HW173829   9.652   6.519   7.766  1.0824  0.7108  0.0481
24417SOL    HW273830   9.780   6.460   7.710  0.8544 -0.9246  1.1726
24418SOL     OW73831   6.087   5.229   2.933 -0.4295  0.0538  0.3059
24418SOL    HW173832   6.156   5.286   2.896 -0.3546  0.3588  0.9013
24418SOL    HW273833   6.016   5.233   2.869  0.2281 -0.5181 -0.4736
24419SOL     OW73834   8.747   9.232   7.744  0.2925 -0.4345  0.1610
24419SOL    HW173835   8.727   9.218   7.651  0.0536  0.2281  0.1055
24419SOL    HW273836   8.841   9.247   7.747  0.7015 -2.7344  0.3160
24420SOL     OW73837   1.604   3.684   1.922  0.5298 -0.3130  0.0192
24420SOL    HW173838   1.678   3.695   1.862 -0.1832  3.3385 -0.4120
24420SOL    HW273839   1.641   3.699   2.009  0.6375 -0.4811  0.0036
24421SOL     OW73840   1.535   9.750   5.802 -0.0800 -0.1337  0.5556
24421SOL    HW173841   1.620   9.765   5.760  0.2770  2.0147  1.9057
24421SOL    HW273842   1.481   9.824   5.773 -1.4662 -1.3754 -0.1373
24422SOL     OW73843   4.443   9.902   3.107  0.1506 -0.4109  0.1905
24422SOL    HW173844   4.474   9.852   3.032 -0.5214 -0.5534 -0.0010
24422SOL    HW273845   4.358   9.863   3.128 -1.0317  1.4717 -0.8095
24423SOL     OW73846   6.222   1.633   1.858  0.1019 -0.4619 -0.3375
24423SOL    HW173847   6.223   1.629   1.763 -1.1179  0.6471 -0.4257
24423SOL    HW273848   6.176   1.714   1.878 -0.3685 -1.0780  1.2035
24424SOL     OW73849   7.196   5.988   6.940 -0.1020 -0.0695  0.1862
24424SOL    HW173850   7.230   5.899   6.936 -0.5329 -0.3828  2.4059
24424SOL    HW273851   7.253   6.038   6.880 -0.3696 -1.9284 -1.7415
24425SOL     OW73852   4.680   2.597   4.637 -0.0344  0.1195 -0.5529
24425SOL    HW173853   4.676   2.689   4.611  1.3004 -0.1035 -1.6852
24425SOL    HW273854   4.690   2.549   4.554 -1.9189 -1.1666 -0.0906
24426SOL     OW73855   5.238   6.372   6.627  0.2564  0.1717  0.0175
24426SOL    HW173856   5.193   6.451   6.595 -0.8558 -1.1411 -1.9214
24426SOL    HW273857   5.168   6.309   6.640  1.3265 -1.4104 -1.4044
24427SOL     OW73858   2.283   8.740   5.213 -0.7288  0.5916  0.1932
24427SOL    HW173859   2.265   8.700   5.299  1.2208 -1.0046 -0.0715
24427SOL    HW273860   2.212   8.708   5.157  0.2790 -1.9341  0.2147
24428SOL     OW73861   7.732   5.121   6.670 -0.0095 -0.1453 -0.2010
24428SOL    HW173862   7.738   5.192   6.735  4.2476 -1.3157  1.0355
24428SOL    HW273863   7.716   5.042   6.722 -3.6286 -0.4331 -1.4601
24429SOL     OW73864   6.697   7.407   2.811 -0.3239 -0.4454  0.1380
24429SOL    HW173865   6.723   7.435   2.899  1.4960  0.1899 -0.5440
24429SOL    HW273866   6.677   7.314   2.820 -2.4772  0.0951  1.6540
24430SOL     OW73867   0.911   7.252   1.046  0.3212 -0.5245  0.1708
24430SOL    HW173868   0.849   7.322   1.025  0.6038 -0.2744  0.1603
24430SOL    HW273869   0.896   7.235   1.139  1.4963  0.8161  0.6412
24431SOL     OW73870   3.389   8.560   8.810 -0.5102 -0.1171 -0.0756
24431SOL    HW173871   3.469   8.516   8.782 -1.2368 -0.0255 -2.5207
24431SOL    HW273872   3.387   8.548   8.905  1.5845 -1.4595 -0.1399
24432SOL     OW73873   4.477   7.689   4.342  0.3228 -0.3056  0.0400
24432SOL    HW173874   4.434   7.611   4.306  2.0873 -1.5401  0.4606
24432SOL    HW273875   4.486   7.748   4.267  1.7140 -1.8100 -1.0639
24433SOL     OW73876   0.659   8.166   6.181 -0.7157 -0.0583  0.3429
24433SOL    HW173877   0.695   8.129   6.100 -0.7703  0.6930 -0.0315
24433SOL    HW273878   0.665   8.094   6.245  3.6390  0.5844  1.0068
24434SOL     OW73879   3.689   6.177   5.815  0.2357  0.2073 -0.0529
24434SOL    HW173880   3.741   6.220   5.883 -0.9093 -1.3052  1.8918
24434SOL    HW273881   3.754   6.145   5.752  1.7476 -1.4851  2.2101
24435SOL     OW73882   4.117   3.470   6.183 -0.5723 -0.2480  0.0497
24435SOL    HW173883   4.060   3.461   6.260 -1.1471 -0.5094 -0.4007
24435SOL    HW273884   4.174   3.393   6.187 -0.2037  0.0434  0.5329
24436SOL     OW73885   9.857   5.653   6.515  0.3961  0.2017 -0.2153
24436SOL    HW173886   9.826   5.728   6.567 -1.0697  0.3835 -1.2940
24436SOL    HW273887   9.867   5.583   6.579 -1.7716  0.2983  0.3008
24437SOL     OW73888   4.832   2.915   5.333 -0.2517  0.3794  0.3953
24437SOL    HW173889   4.835   2.821   5.348 -0.9275  0.3031  0.0861
24437SOL    HW273890   4.781   2.925   5.253  0.2381  0.9842  0.1543
24438SOL     OW73891   9.227   4.924   7.488  0.4196  0.3028 -0.1184
24438SOL    HW173892   9.134   4.901   7.478  0.1462  0.7844  1.0711
24438SOL    HW273893   9.225   5.008   7.534  1.4172 -0.9717  2.4865
24439SOL     OW73894   5.305   1.004   0.042 -0.0429  0.2867 -0.4198
24439SOL    HW173895   5.352   0.921   0.029  0.5740  0.7108 -1.0089
24439SOL    HW273896   5.273   1.000   0.132  1.2800  0.0440  0.0681
24440SOL     OW73897   5.434   2.277   2.045 -0.3085 -0.4424  0.9814
24440SOL    HW173898   5.428   2.258   1.951 -1.3548 -0.6294  1.0733
24440SOL    HW273899   5.438   2.373   2.050 -0.5738 -0.4197  0.7638
24441SOL     OW73900   2.646   6.018   8.441 -0.1454  0.0910  0.3128
24441SOL    HW173901   2.695   6.043   8.519  0.0839 -0.8300  0.4775
24441SOL    HW273902   2.568   5.973   8.476  0.5748 -1.4525  0.0203
24442SOL     OW73903   2.598   9.279   1.300  0.0500  0.1266 -0.1492
24442SOL    HW173904   2.581   9.327   1.219 -1.0904 -0.3279 -0.2031
24442SOL    HW273905   2.535   9.315   1.363  0.4374 -0.0244  0.3353
24443SOL     OW73906   8.563   9.229   7.974  0.3318  0.3036 -0.2041
24443SOL    HW173907   8.643   9.226   7.920  0.7692  0.0519  0.4478
24443SOL    HW273908   8.593   9.208   8.062 -0.3536  0.9246  0.1806
24444SOL     OW73909   5.715   8.654   9.112  0.1237  0.1581  0.1177
24444SOL    HW173910   5.623   8.628   9.101  1.1668 -3.2003 -2.2048
24444SOL    HW273911   5.735   8.634   9.203 -1.4699  1.3797  0.7963
24445SOL     OW73912   7.388   0.001   9.404 -0.6091 -0.5759  0.3844
24445SOL    HW173913   7.364   0.081   9.357 -1.9172  0.0759  2.0538
24445SOL    HW273914   7.337   0.005   9.485 -0.0727 -2.7046  0.8851
24446SOL     OW73915   4.912   0.627   9.725 -0.1373  0.2338  0.0534
24446SOL    HW173916   4.824   0.624   9.763  0.7713  0.5785  2.3427
24446SOL    HW273917   4.929   0.720   9.711 -0.7949  0.0875 -2.2361
24447SOL     OW73918   0.297   3.481   4.502 -0.2481  0.1400 -0.3438
24447SOL    HW173919   0.226   3.473   4.566 -0.1642  1.2072 -0.0877
24447SOL    HW273920   0.374   3.500   4.556  0.4792 -2.1079 -0.5265
24448SOL     OW73921   1.128   0.228   4.129 -0.0540 -0.4034  0.0857
24448SOL    HW173922   1.118   0.320   4.154  0.4968 -0.3916  0.2792
24448SOL    HW273923   1.049   0.185   4.163 -1.5425  0.4075 -2.1263
24449SOL     OW73924   6.626   2.025   1.522 -0.2959 -0.6967 -0.1071
24449SOL    HW173925   6.549   2.057   1.474  0.5044  1.8739  0.1510
24449SOL    HW273926   6.602   2.036   1.614 -0.8806 -3.2476  0.1090
24450SOL     OW73927   7.296   9.886   4.446  0.0752  0.3449  0.2702
24450SOL    HW173928   7.243   9.960   4.476 -0.3324  0.7014 -1.2585
24450SOL    HW273929   7.345   9.859   4.523 -1.4018  0.8057  1.4287
24451SOL     OW73930   7.827   5.781   1.142  0.1146 -0.4705 -0.2547
24451SOL    HW173931   7.859   5.864   1.107 -0.3186  1.5362  3.5872
24451SOL    HW273932   7.890   5.757   1.210 -2.6299 -0.0774  2.6845
24452SOL     OW73933   2.103   5.492   2.419  0.2172 -0.1935  0.2240
24452SOL    HW173934   2.199   5.492   2.425  0.2311  0.6748  0.2437
24452SOL    HW273935   2.081   5.412   2.371  0.9708 -0.2590 -0.0259
24453SOL     OW73936   3.429   8.160   4.759 -0.1917 -0.1051  0.4222
24453SOL    HW173937   3.432   8.065   4.764 -2.8536 -0.3011 -0.2445
24453SOL    HW273938   3.335   8.181   4.759  0.2147  2.3037 -2.3477
24454SOL     OW73939   0.503   1.368   7.362 -0.1396 -0.1197  0.5802
24454SOL    HW173940   0.574   1.331   7.310 -0.7798  1.5499 -1.6322
24454SOL    HW273941   0.543   1.440   7.411 -0.1409  0.3883 -0.1478
24455SOL     OW73942   4.859   9.479   1.970 -0.1414  0.3759  0.8107
24455SOL    HW173943   4.821   9.393   1.952 -0.3634  0.6778 -0.2110
24455SOL    HW273944   4.853   9.526   1.887  3.6013  0.0234  0.1304
24456SOL     OW73945   8.387   3.818   6.160  0.2039  0.1440 -0.7313
24456SOL    HW173946   8.327   3.879   6.203  1.6479  0.7058  0.5992
24456SOL    HW273947   8.471   3.863   6.160  0.7591 -0.8100 -2.1100
24457SOL     OW73948   5.366   2.947   8.340  0.5464  0.6582  0.4824
24457SOL    HW173949   5.451   2.905   8.351  0.5362  0.5267  0.0720
24457SOL    HW273950   5.317   2.888   8.283  0.6477  1.3698 -0.3653
24458SOL     OW73951   1.421   5.147   9.463 -0.3270  1.1739 -0.0981
24458SOL    HW173952   1.369   5.088   9.517  1.0849 -0.7153 -0.7018
24458SOL    HW273953   1.455   5.212   9.524 -0.7899  0.5503  0.8447
24459SOL     OW73954   3.385   7.721   7.893 -0.3861 -0.2654 -0.1983
24459SOL    HW173955   3.455   7.777   7.861 -0.2121 -0.3497  0.0333
24459SOL    HW273956   3.360   7.668   7.817  0.2793 -0.7254 -0.1041
24460SOL     OW73957   2.896   3.840   0.630 -0.3550  0.1705 -0.1001
24460SOL    HW173958   2.871   3.750   0.649  1.0299 -1.2243 -3.9965
24460SOL    HW273959   2.926   3.875   0.714 -3.5037 -1.9929  2.1214
24461SOL     OW73960   1.504   5.438   3.232 -0.1337 -0.5236 -0.2120
24461SOL    HW173961   1.545   5.387   3.162  1.5176 -1.1219  1.1327
24461SOL    HW273962   1.555   5.519   3.234  0.0883 -0.6839  0.5733
24462SOL     OW73963   6.443   2.071   0.906  0.4468 -0.0600  0.0504
24462SOL    HW173964   6.530   2.063   0.867 -0.2412 -0.8417 -1.4150
24462SOL    HW273965   6.386   2.095   0.833 -0.9589 -1.8685  0.4688
24463SOL     OW73966   8.716   4.455   4.407  0.5505  0.2856 -0.0075
24463SOL    HW173967   8.749   4.411   4.486  0.1116 -2.1448 -1.0904
24463SOL    HW273968   8.624   4.472   4.426  0.4801 -0.1697  0.0716
24464SOL     OW73969   9.542   5.734   9.398 -0.1709  0.1211 -0.6334
24464SOL    HW173970   9.599   5.803   9.434  0.0824  0.0678 -0.9253
24464SOL    HW273971   9.576   5.719   9.310  1.3180 -2.0487  0.2172
24465SOL     OW73972   3.942   4.467   4.796  0.1984 -0.1352  0.2262
24465SOL    HW173973   4.011   4.402   4.810 -0.3165 -0.4434  1.5423
24465SOL    HW273974   3.923   4.500   4.884 -1.0605  0.2144 -0.1525
24466SOL     OW73975   3.189   4.960   4.244  0.0520  0.3109  0.0371
24466SOL    HW173976   3.181   4.926   4.155 -0.6841  1.0208 -0.1774
24466SOL    HW273977   3.168   5.053   4.236  1.4119  0.7003  0.7142
24467SOL     OW73978   0.823   9.475   2.269 -0.0599  0.9503 -0.1158
24467SOL    HW173979   0.843   9.543   2.205 -1.6580  0.6329 -0.9976
24467SOL    HW273980   0.749   9.511   2.319 -2.0576 -0.7569 -1.6976
24468SOL     OW73981   7.195   7.859   0.225 -0.0441 -0.0641  0.0979
24468SOL    HW173982   7.219   7.813   0.145 -1.8030 -0.7989 -0.0525
24468SOL    HW273983   7.243   7.814   0.294  2.0252  1.0102 -0.5780
24469SOL     OW73984   4.047   7.423   8.892 -0.5647  0.0142 -0.1560
24469SOL    HW173985   4.016   7.342   8.933 -0.1284  0.2718  0.6972
24469SOL    HW273986   4.021   7.492   8.953  0.4963  0.3623 -0.0872
24470SOL     OW73987   8.896   5.118   4.063  0.5705  0.3397  0.0981
24470SOL    HW173988   8.915   5.027   4.087  1.3706  0.9490  1.9854
24470SOL    HW273989   8.962   5.140   3.997  0.5988 -0.3233 -0.1045
24471SOL     OW73990   5.183   8.061   7.386  0.8883 -0.4551  0.3282
24471SOL    HW173991   5.229   8.097   7.462  0.6518  0.3180  0.1110
24471SOL    HW273992   5.120   7.999   7.423  1.5970 -0.9784  0.6741
24472SOL     OW73993   0.067   1.937   5.474 -0.3729 -0.6117 -0.1236
24472SOL    HW173994   0.141   1.956   5.532 -0.4540 -0.7848  0.0398
24472SOL    HW273995   0.002   1.895   5.531 -0.6935 -0.2433 -0.2147
24473SOL     OW73996   0.329   0.792   9.451  0.4046  0.2099  0.6375
24473SOL    HW173997   0.348   0.706   9.490 -1.0335 -0.0125  0.8981
24473SOL    HW273998   0.267   0.773   9.380  0.0195  1.0375  0.7438
24474SOL     OW73999   0.256   0.145   7.909  0.4062  0.2683  0.3374
24474SOL    HW174000   0.287   0.176   7.994  1.0435  1.5063 -0.3219
24474SOL    HW274001   0.167   0.115   7.925  0.6659  0.0960  1.5175
24475SOL     OW74002   4.153   9.911   8.658  0.8272 -0.2777  0.2804
24475SOL    HW174003   4.236   9.899   8.612  0.5946 -2.4818  0.3130
24475SOL    HW274004   4.098   9.839   8.628 -1.3499  1.4756 -0.2340
24476SOL     OW74005   7.971   9.764   5.670  0.2809 -0.3990 -0.1961
24476SOL    HW174006   7.887   9.718   5.663 -0.8616  1.2459  1.5275
24476SOL    HW274007   8.033   9.696   5.698 -1.3889 -0.9833  2.5297
24477SOL     OW74008   8.528   8.968   6.170  0.2492 -0.4865  0.7940
24477SOL    HW174009   8.585   8.962   6.247  1.2508  0.0956  0.1242
24477SOL    HW274010   8.555   8.894   6.115  2.3494  1.3092 -0.7764
24478SOL     OW74011   3.265   8.783   9.745 -0.2740  0.2386  0.2339
24478SOL    HW174012   3.319   8.820   9.675 -1.8456  0.4903 -0.8942
24478SOL    HW274013   3.260   8.853   9.810 -0.6674  0.8596 -0.4552
24479SOL     OW74014   6.682   1.520   5.407 -0.1314  0.4795  0.1193
24479SOL    HW174015   6.598   1.477   5.392 -0.2825  0.9113 -0.2908
24479SOL    HW274016   6.669   1.572   5.487  0.2808 -0.8049  1.0562
24480SOL     OW74017   0.120   9.358   1.659  0.0826  0.0274  0.0500
24480SOL    HW174018   0.053   9.418   1.625  0.7292  1.1477  0.7146
24480SOL    HW274019   0.077   9.272   1.659 -0.7755  0.4245 -1.1562
24481SOL     OW74020   6.874   5.996   4.040 -0.5977 -0.0238 -0.0026
24481SOL    HW174021   6.968   6.010   4.051 -0.6609  2.7488 -1.8853
24481SOL    HW274022   6.867   5.923   3.978  0.3870  0.5442 -0.8131
24482SOL     OW74023   0.426   3.962   0.893 -0.2448  0.2732 -0.0929
24482SOL    HW174024   0.375   3.881   0.886 -1.6999  1.2262 -1.0794
24482SOL    HW274025   0.361   4.029   0.913  0.7485  1.4020 -0.5485
24483SOL     OW74026   9.325   1.951   6.133  0.0374 -0.2370  0.0872
24483SOL    HW174027   9.333   1.965   6.228  0.6268 -0.0871  0.0160
24483SOL    HW274028   9.407   1.984   6.097  0.0771 -0.8892 -0.4148
24484SOL     OW74029   0.582   3.269   2.418 -0.7491  0.2784 -0.0438
24484SOL    HW174030   0.669   3.306   2.433 -0.4328 -0.4897  0.0615
24484SOL    HW274031   0.564   3.217   2.497 -1.1096  0.0641 -0.2631
24485SOL     OW74032   9.137   9.847   0.264 -0.6566 -0.2018 -0.7456
24485SOL    HW174033   9.128   9.938   0.290 -0.1132  0.2218 -1.9819
24485SOL    HW274034   9.185   9.850   0.181  0.7636 -1.6788 -0.0501
24486SOL     OW74035   2.757   8.227   6.287  0.4301  0.8268 -0.3129
24486SOL    HW174036   2.787   8.208   6.198 -2.8020 -2.0776 -1.0127
24486SOL    HW274037   2.676   8.276   6.275 -1.3151 -1.5915  0.8099
24487SOL     OW74038   0.693   5.999   2.078  0.0778 -0.0475 -0.0752
24487SOL    HW174039   0.638   5.931   2.117 -0.3074  0.3197  0.0268
24487SOL    HW274040   0.706   6.063   2.147 -0.6387  0.6234 -0.5477
24488SOL     OW74041   6.364   0.730   0.278  0.3301  0.3759  0.1160
24488SOL    HW174042   6.321   0.666   0.336 -1.1562  1.9537  0.8416
24488SOL    HW274043   6.456   0.725   0.301  0.0341 -0.4459  1.2196
24489SOL     OW74044   6.489   2.851   9.063  0.0990  0.1037  0.7531
24489SOL    HW174045   6.474   2.853   9.158 -1.0505 -1.1341  0.6167
24489SOL    HW274046   6.410   2.887   9.025  1.1769  2.1150  0.2629
24490SOL     OW74047   2.206   1.048   0.651  0.2399  0.2524 -0.0104
24490SOL    HW174048   2.221   1.112   0.581  1.4460 -0.3303 -0.3163
24490SOL    HW274049   2.271   1.071   0.718  1.9595 -1.6900 -0.8922
24491SOL     OW74050   4.131   2.254   8.259  0.0421 -0.3181  0.3119
24491SOL    HW174051   4.041   2.237   8.288  0.2831 -1.4640  0.4337
24491SOL    HW274052   4.148   2.344   8.286 -1.0271 -0.1244  0.3934
24492SOL     OW74053   6.850   7.751   7.163  0.1191 -0.2713 -0.0036
24492SOL    HW174054   6.868   7.845   7.150  0.9001 -0.2840  0.9025
24492SOL    HW274055   6.810   7.746   7.250 -2.1098 -0.5364 -0.9783
24493SOL     OW74056   6.816   1.711   3.406  0.6240  0.1064 -0.5774
24493SOL    HW174057   6.911   1.725   3.411  0.5688  0.3276 -0.0387
24493SOL    HW274058   6.779   1.776   3.466  0.1223  0.0908 -0.8637
24494SOL     OW74059   5.496   4.201   8.998 -0.2885 -1.0026  0.1407
24494SOL    HW174060   5.561   4.238   8.938  1.2947 -1.1440  1.6605
24494SOL    HW274061   5.476   4.273   9.058 -0.4640 -1.3668  0.5229
24495SOL     OW74062   8.878   7.233   7.676 -0.0686  0.2908  0.5101
24495SOL    HW174063   8.810   7.288   7.716  1.2105  1.3476  1.2989
24495SOL    HW274064   8.933   7.205   7.749  0.3382 -0.5959 -0.1093
24496SOL     OW74065   5.570   5.909   1.929 -0.2843 -0.1012 -0.6319
24496SOL    HW174066   5.642   5.889   1.989 -0.2665  0.3250 -0.5046
24496SOL    HW274067   5.491   5.905   1.983 -0.5261 -1.9866 -1.0740
24497SOL     OW74068   0.292   1.127   2.944 -0.9156  0.2118 -0.3991
24497SOL    HW174069   0.264   1.217   2.928 -2.2175 -0.3805 -1.6572
24497SOL    HW274070   0.366   1.114   2.884  1.3800  1.3698  2.0089
24498SOL     OW74071   8.999   9.204   8.219 -0.1582 -0.3974 -0.2236
24498SOL    HW174072   9.074   9.145   8.230 -0.1045 -0.2072  0.4628
24498SOL    HW274073   9.035   9.280   8.173  0.6080  0.6933  2.0510
24499SOL     OW74074   6.883   8.775   1.181  0.3139  0.0632 -0.3988
24499SOL    HW174075   6.951   8.736   1.236  1.2448  1.0889 -0.7776
24499SOL    HW274076   6.914   8.864   1.164 -0.0508 -0.1450 -2.3983
24500SOL     OW74077   9.462   2.319   1.233  0.5137 -0.1541  0.7748
24500SOL    HW174078   9.500   2.290   1.150 -0.5733 -0.2848  0.2977
24500SOL    HW274079   9.375   2.278   1.234 -0.8874  2.5809  0.3406
24501SOL     OW74080   9.049   5.534   4.276  0.0092  0.0909 -0.1609
24501SOL    HW174081   9.135   5.506   4.306  0.2843 -0.2159 -1.2164
24501SOL    HW274082   8.988   5.472   4.317  0.4118 -0.5815 -0.5627
24502SOL     OW74083   6.860   1.500   8.848 -0.4641 -0.0719 -0.4540
24502SOL    HW174084   6.766   1.502   8.865 -0.6589  1.7135 -1.5359
24502SOL    HW274085   6.897   1.454   8.923 -1.8996  1.8323  1.5263
24503SOL     OW74086   3.108   7.887   5.837 -0.3556  0.1206  0.3017
24503SOL    HW174087   3.076   7.799   5.859  1.8592 -0.2762  2.4750
24503SOL    HW274088   3.065   7.945   5.900 -1.4443  0.5512 -0.8151
24504SOL     OW74089   8.823   5.037   5.946  0.1256 -0.2338 -0.9432
24504SOL    HW174090   8.733   5.053   5.918 -0.6405 -0.6762  1.1037
24504SOL    HW274091   8.833   4.942   5.942  1.0266 -0.1149 -2.5258
24505SOL     OW74092   6.181   6.458   7.947  0.7371 -0.1728 -0.4192
24505SOL    HW174093   6.203   6.414   7.865  0.5063  1.3457 -1.3196
24505SOL    HW274094   6.124   6.395   7.993  2.1676 -1.7034 -0.6565
24506SOL     OW74095   9.888   3.739   7.644  0.4439  0.8327  0.2355
24506SOL    HW174096   9.827   3.691   7.588  1.4239 -0.5966  0.3492
24506SOL    HW274097   9.915   3.676   7.710  1.1643  1.7845  0.8777
24507SOL     OW74098   8.928   2.384   4.154  0.2197 -0.0766 -0.4472
24507SOL    HW174099   8.897   2.294   4.157 -0.5914  0.1726 -1.0001
24507SOL    HW274100   8.863   2.434   4.205  0.4966  0.2437 -0.3975
24508SOL     OW74101   1.572   7.346   8.088  0.3473  0.4923  0.6885
24508SOL    HW174102   1.657   7.351   8.044 -0.4124 -1.1469 -1.1230
24508SOL    HW274103   1.529   7.428   8.066  0.5747  0.3364 -0.4178
24509SOL     OW74104   2.590   2.923   5.021  0.9635  0.0078 -0.6790
24509SOL    HW174105   2.590   2.995   4.958  1.6765 -1.6304 -2.6601
24509SOL    HW274106   2.502   2.888   5.017  0.8181  0.3089 -0.2349
24510SOL     OW74107   8.112   6.236   5.446 -0.2739  0.1499  0.7739
24510SOL    HW174108   8.164   6.313   5.424 -0.3110  0.1276  0.6065
24510SOL    HW274109   8.167   6.187   5.508  1.4283 -1.5820 -1.8535
24511SOL     OW74110   3.553   5.671   6.629 -0.2304  0.0194 -0.6489
24511SOL    HW174111   3.622   5.714   6.579 -0.9570  0.8977 -0.9364
24511SOL    HW274112   3.568   5.578   6.616 -0.4581  0.2165 -2.6394
24512SOL     OW74113   1.928   9.462   7.880 -0.4796 -0.0534  0.7541
24512SOL    HW174114   1.960   9.548   7.851  0.9643 -0.9799 -0.5838
24512SOL    HW274115   1.849   9.448   7.829  0.0962 -0.1229 -0.1561
24513SOL     OW74116   0.263   7.211   8.213 -0.7239 -0.4258  0.1404
24513SOL    HW174117   0.311   7.265   8.277 -1.5178  1.9147 -1.1103
24513SOL    HW274118   0.327   7.149   8.181  0.3383 -0.0617  1.4530
24514SOL     OW74119   6.254   0.911   2.899  0.2204 -1.0914 -0.1322
24514SOL    HW174120   6.253   0.941   2.990 -2.4898 -1.3477 -0.0100
24514SOL    HW274121   6.294   0.823   2.904 -2.5611 -2.3923  1.3586
24515SOL     OW74122   6.693   9.238   9.886 -0.0634 -0.3291  0.3810
24515SOL    HW174123   6.658   9.165   9.938  0.2519  0.0728  1.1813
24515SOL    HW274124   6.787   9.221   9.881 -0.0570 -0.2282  0.1580
24516SOL     OW74125   2.143   9.795   3.628  0.4014 -0.0750  0.0979
24516SOL    HW174126   2.159   9.772   3.537  2.0839  0.5030  0.2195
24516SOL    HW274127   2.172   9.718   3.677  1.7350  0.5008  0.2519
24517SOL     OW74128   8.611   9.160   5.986 -0.2777 -0.4378 -0.0813
24517SOL    HW174129   8.608   9.132   6.077 -1.5142 -1.5914 -0.4462
24517SOL    HW274130   8.552   9.235   5.981 -0.9272 -0.9455 -0.1061
24518SOL     OW74131   5.425   3.949   4.203  0.5070  0.2817  0.4637
24518SOL    HW174132   5.380   3.887   4.259  1.1927  0.4305  1.2123
24518SOL    HW274133   5.450   3.899   4.125  0.1011 -0.0929  0.5749
24519SOL     OW74134   0.642   6.946   7.875 -0.2918  0.3494  0.4778
24519SOL    HW174135   0.683   6.962   7.790 -1.7990 -1.3607 -0.6729
24519SOL    HW274136   0.710   6.903   7.927  0.7871  1.7990  0.3219
24520SOL     OW74137   4.219   4.875   5.184 -0.4585 -0.3337  0.0367
24520SOL    HW174138   4.186   4.949   5.133 -1.9412  0.0085  1.4223
24520SOL    HW274139   4.141   4.826   5.209  0.5083 -2.7751 -1.3520
24521SOL     OW74140   3.870   1.116   0.626  0.1529 -0.2969 -0.4067
24521SOL    HW174141   3.791   1.122   0.680 -0.5841 -2.2929 -1.1701
24521SOL    HW274142   3.942   1.114   0.688 -0.5500 -0.5939  0.4144
24522SOL     OW74143   7.077   6.963   6.883 -0.2403 -0.7803 -0.4799
24522SOL    HW174144   7.158   6.992   6.841  0.0065 -0.1700  0.3894
24522SOL    HW274145   7.025   6.926   6.812  0.6548 -0.8520 -1.1084
24523SOL     OW74146   9.428   1.670   4.303  0.1164 -0.1904  0.4399
24523SOL    HW174147   9.521   1.692   4.305  0.2655 -0.2288 -2.3014
24523SOL    HW274148   9.426   1.577   4.280 -0.6361 -0.7192  2.4067
24524SOL     OW74149   2.189   4.628   3.343  0.2803 -0.2258  0.0525
24524SOL    HW174150   2.150   4.622   3.255 -0.0247 -0.4119  0.1994
24524SOL    HW274151   2.282   4.645   3.327  0.1712  0.0421 -0.3051
24525SOL     OW74152   1.665   8.538   1.654 -0.5329  0.1485 -0.6177
24525SOL    HW174153   1.616   8.620   1.665 -1.0959 -0.2388 -0.1713
24525SOL    HW274154   1.649   8.490   1.735  1.5304  0.4905  0.0662
24526SOL     OW74155   1.781   3.501   8.890 -0.2080  0.0744 -0.3017
24526SOL    HW174156   1.820   3.436   8.832  1.0642  0.2073  0.3657
24526SOL    HW274157   1.693   3.469   8.906 -0.4535 -0.1810 -1.9497
24527SOL     OW74158   2.334   9.509   9.259 -0.2467  0.2370 -0.4562
24527SOL    HW174159   2.415   9.549   9.226  1.5200 -1.9314  0.9965
24527SOL    HW274160   2.331   9.532   9.352  1.6752 -3.9150  0.8660
24528SOL     OW74161   7.945   2.184   7.704  0.2848  0.0821  0.4696
24528SOL    HW174162   7.917   2.260   7.754  0.3855 -1.0544  2.3279
24528SOL    HW274163   7.889   2.185   7.626 -0.3477  1.5198  0.9073
24529SOL     OW74164   9.708   7.801   5.408  0.4900 -0.2376 -0.8616
24529SOL    HW174165   9.775   7.733   5.417  0.3401 -0.4793 -1.5176
24529SOL    HW274166   9.691   7.830   5.497 -0.5636 -2.1294 -0.3896
24530SOL     OW74167   3.996   8.891   6.446  0.2211 -0.0804  0.2702
24530SOL    HW174168   3.960   8.823   6.389  0.1703 -1.5924  2.0264
24530SOL    HW274169   4.090   8.876   6.445  0.7477  2.4020 -2.4467
24531SOL     OW74170   4.359   6.251   2.397 -0.0729  0.3621 -0.0750
24531SOL    HW174171   4.432   6.288   2.446  0.6353  0.7675 -1.4044
24531SOL    HW274172   4.366   6.290   2.310 -1.0911 -0.6106 -0.6147
24532SOL     OW74173   0.919   2.583   2.340 -0.8042 -0.1980  0.0099
24532SOL    HW174174   0.877   2.523   2.279 -1.3816  0.0245  0.1878
24532SOL    HW274175   0.882   2.669   2.320 -2.1316 -0.3373  1.6408
24533SOL     OW74176   6.562   0.287   5.095  0.0972 -0.2445 -0.5339
24533SOL    HW174177   6.628   0.354   5.076  0.3709 -0.4037 -0.1492
24533SOL    HW274178   6.481   0.321   5.055 -0.4846  1.7046  2.0427
24534SOL     OW74179   2.046   6.141   6.724 -0.2689  0.4576 -0.1439
24534SOL    HW174180   2.012   6.228   6.703  0.3007  0.4505 -1.1652
24534SOL    HW274181   1.972   6.083   6.708 -0.7414  0.7623  0.8210
24535SOL     OW74182   0.543   7.165   5.070 -0.4132 -0.1266 -0.7212
24535SOL    HW174183   0.462   7.198   5.109  1.4306  1.2375  2.3348
24535SOL    HW274184   0.604   7.238   5.076  2.2229 -2.2648  1.0635
24536SOL     OW74185   6.134   1.470   4.805  0.3747  0.0479 -0.4547
24536SOL    HW174186   6.081   1.550   4.799 -0.1861 -0.3375 -0.7682
24536SOL    HW274187   6.142   1.454   4.899  0.5111  0.4883 -0.3880
24537SOL     OW74188   5.717   3.811   1.787 -0.5829  0.2882  0.1821
24537SOL    HW174189   5.741   3.718   1.794 -0.2723  0.4292  1.1122
24537SOL    HW274190   5.657   3.814   1.713  2.1954 -0.0909 -2.2389
24538SOL     OW74191   2.575   2.373   5.790  0.7031  0.2552 -0.1557
24538SOL    HW174192   2.501   2.319   5.821  1.8060 -0.6900  0.9126
24538SOL    HW274193   2.547   2.463   5.805 -0.5640 -0.0418 -0.5590
24539SOL     OW74194   4.819   5.858   2.505  0.1648  0.3571  0.3615
24539SOL    HW174195   4.833   5.839   2.412 -0.7851  0.0556  0.2723
24539SOL    HW274196   4.839   5.951   2.514 -0.0280  0.4568 -0.2025
24540SOL     OW74197   3.098   4.535   0.390 -0.3226  0.0671 -0.2131
24540SOL    HW174198   3.030   4.602   0.386 -0.6891 -0.2915 -0.0573
24540SOL    HW274199   3.176   4.582   0.422 -0.1603  0.7311 -1.5187
24541SOL     OW74200   8.649   8.828   6.423  0.2423  0.1072 -0.3477
24541SOL    HW174201   8.570   8.787   6.459  0.5208 -0.3774 -0.2739
24541SOL    HW274202   8.720   8.792   6.477  0.3844  1.6312  0.5293
24542SOL     OW74203   0.279   6.717   2.958 -0.0135 -0.6330  0.4621
24542SOL    HW174204   0.278   6.794   3.015  0.3123  0.4626 -0.9609
24542SOL    HW274205   0.233   6.746   2.878  1.1417 -1.5335 -0.5604
24543SOL     OW74206   0.583   9.046   9.190 -0.5327 -0.0639 -0.1950
24543SOL    HW174207   0.546   9.018   9.106  1.3053  1.1373 -1.4638
24543SOL    HW274208   0.654   8.984   9.206  1.0576  1.4463 -1.0888
24544SOL     OW74209   2.136   4.725   2.496 -0.2364 -0.4349  0.1805
24544SOL    HW174210   2.140   4.773   2.578 -2.5525 -0.8984  0.6550
24544SOL    HW274211   2.183   4.780   2.433 -0.6956  1.2536  1.2439
24545SOL     OW74212   1.817   7.245   7.639 -0.4111 -0.0020 -0.3395
24545SOL    HW174213   1.822   7.160   7.683  0.4133  0.0515 -0.3089
24545SOL    HW274214   1.865   7.233   7.557  0.8678  0.7697  0.2540
24546SOL     OW74215   7.647   6.990   8.072  0.1439 -0.8605 -0.3255
24546SOL    HW174216   7.731   7.017   8.109  0.4666 -0.6657 -1.1876
24546SOL    HW274217   7.617   6.920   8.130  1.1673 -1.3105 -0.3228
24547SOL     OW74218   3.004   1.118   0.261  0.4124  0.1689 -0.2100
24547SOL    HW174219   3.021   1.085   0.349  2.7273  1.5264 -0.0575
24547SOL    HW274220   3.039   1.208   0.263 -0.8025  0.7302 -2.1006
24548SOL     OW74221   5.219   9.704   5.102  0.0491  0.0556  0.2009
24548SOL    HW174222   5.209   9.732   5.010 -0.8816 -0.6458  0.0715
24548SOL    HW274223   5.270   9.774   5.143  0.0330  0.6308 -0.7292
24549SOL     OW74224   8.717   9.457   5.725  0.3848  0.2495 -0.2574
24549SOL    HW174225   8.695   9.380   5.777  1.0165  0.2875  0.0800
24549SOL    HW274226   8.812   9.465   5.735  0.2787  1.2819 -0.0011
24550SOL     OW74227   2.263   5.904   3.317  0.7529  0.1253  0.4893
24550SOL    HW174228   2.216   5.932   3.395  1.2519  1.4863  0.3269
24550SOL    HW274229   2.355   5.928   3.334  1.0793 -0.7134 -0.0021
24551SOL     OW74230   2.771   9.905   1.030 -0.5720  0.3411  0.1669
24551SOL    HW174231   2.830   9.865   1.095 -0.0874  1.5331  0.4956
24551SOL    HW274232   2.804   9.994   1.020 -1.3378  0.5222 -0.8902
24552SOL     OW74233   2.583   0.690   8.247 -0.3029 -0.1068  0.5986
24552SOL    HW174234   2.652   0.638   8.290  2.1464  0.0251 -2.7838
24552SOL    HW274235   2.606   0.781   8.266  1.9564  0.0510 -2.2812
24553SOL     OW74236   8.644   6.718   0.234  0.2612  0.0723  0.0275
24553SOL    HW174237   8.570   6.659   0.218  1.1422 -1.2175  0.5221
24553SOL    HW274238   8.655   6.717   0.330 -0.5047  2.0717  0.1729
24554SOL     OW74239   6.078   7.939   7.252  0.2825  0.5359  0.3694
24554SOL    HW174240   6.041   7.852   7.235  0.2881  0.4415  0.8272
24554SOL    HW274241   6.005   7.999   7.237  0.2144  0.4320  0.2784
24555SOL     OW74242   8.891   2.658   2.522 -0.6703 -0.3463 -0.3154
24555SOL    HW174243   8.913   2.647   2.430  0.2408 -0.8394 -0.0514
24555SOL    HW274244   8.842   2.580   2.545  1.2165 -1.4555  0.2082
24556SOL     OW74245   4.624   7.434   4.155  0.9354 -0.5058  0.3838
24556SOL    HW174246   4.657   7.507   4.208  1.8379 -1.5066  1.2546
24556SOL    HW274247   4.642   7.356   4.208 -1.5467 -1.2582  0.2668
24557SOL     OW74248   4.699   2.962   5.074  0.4416  0.0121 -0.5318
24557SOL    HW174249   4.673   3.030   5.012 -1.7486 -0.3667 -0.0870
24557SOL    HW274250   4.642   2.888   5.053  1.0069 -0.7911  0.6803
24558SOL     OW74251   4.667   4.109   3.248 -0.0824 -0.1230 -0.9404
24558SOL    HW174252   4.574   4.132   3.252  0.2622  1.2641  1.8237
24558SOL    HW274253   4.704   4.168   3.183 -1.0262 -0.3856 -1.7461
24559SOL     OW74254   6.773   1.035   0.767 -0.1793  0.0592  0.3709
24559SOL    HW174255   6.777   0.991   0.852 -1.4353  0.4448  0.6518
24559SOL    HW274256   6.732   1.119   0.785 -2.1476 -0.5569 -0.8606
24560SOL     OW74257   7.709   2.694   0.814 -0.4595 -0.1278 -0.7175
24560SOL    HW174258   7.672   2.627   0.872 -0.6326 -0.9057 -1.7166
24560SOL    HW274259   7.642   2.763   0.813 -0.8071 -0.4614 -0.6202
24561SOL     OW74260   4.823   2.053   6.677  0.7479  0.1605 -0.5991
24561SOL    HW174261   4.759   2.111   6.635 -0.1886 -0.6039 -0.2801
24561SOL    HW274262   4.875   2.019   6.605  1.1157  1.1457 -0.8224
24562SOL     OW74263   6.711   0.099   9.566  0.5123  0.4060  0.3535
24562SOL    HW174264   6.721   0.191   9.593 -1.6149  0.7010  0.2961
24562SOL    HW274265   6.647   0.063   9.627 -0.4571 -0.3581 -1.0468
24563SOL     OW74266   0.395   5.665   6.031 -0.0286 -0.0992 -0.1666
24563SOL    HW174267   0.417   5.733   6.095  0.4098  1.5323 -1.9630
24563SOL    HW274268   0.480   5.632   6.001 -0.1937  0.0066 -0.7604
24564SOL     OW74269   2.766   3.878   9.209 -0.0800 -0.4199 -0.1109
24564SOL    HW174270   2.807   3.839   9.286  0.5722  0.7635  0.1661
24564SOL    HW274271   2.714   3.950   9.244  2.5203  2.0297 -0.9319
24565SOL     OW74272   0.990   7.077   5.115  0.1767  1.3150  0.4605
24565SOL    HW174273   0.978   7.166   5.148 -0.7704  0.6836  1.9372
24565SOL    HW274274   0.902   7.049   5.090  0.6166  1.1209 -0.9417
24566SOL     OW74275   7.005   1.532   6.033  0.3671 -0.2565  0.4634
24566SOL    HW174276   7.000   1.592   6.108  2.3902  1.2660 -0.5188
24566SOL    HW274277   7.086   1.557   5.988  0.9230 -3.3067 -0.4309
24567SOL     OW74278   8.098   4.702   0.071 -0.3519  0.2565  0.1654
24567SOL    HW174279   8.137   4.790   0.080 -0.9566  0.9178 -2.7451
24567SOL    HW274280   8.173   4.643   0.073  0.7585  1.3334 -3.1648
24568SOL     OW74281   5.844   8.124   1.088 -0.1709  0.0898  0.2198
24568SOL    HW174282   5.758   8.158   1.066  0.7315  1.5046 -1.4087
24568SOL    HW274283   5.899   8.147   1.012  1.4851 -1.3447  0.9029
24569SOL     OW74284   5.109   5.128   2.192  0.6930  0.7058  0.2163
24569SOL    HW174285   5.202   5.122   2.167  0.4722  0.0483 -0.4796
24569SOL    HW274286   5.070   5.183   2.124  0.1420 -0.8689 -0.7738
24570SOL     OW74287   2.849   7.403   1.943 -0.5307  0.0882 -0.3138
24570SOL    HW174288   2.852   7.409   1.848  0.9158 -0.3418 -0.3121
24570SOL    HW274289   2.768   7.355   1.961  0.8513 -2.9180 -1.5243
24571SOL     OW74290   7.783   2.362   9.107  0.2619 -0.1979 -0.3537
24571SOL    HW174291   7.807   2.269   9.096 -1.3950 -0.6018 -0.8072
24571SOL    HW274292   7.762   2.371   9.199 -0.0268 -0.3839 -0.4017
24572SOL     OW74293   4.113   5.704   9.793  0.7739  0.1469  0.1591
24572SOL    HW174294   4.056   5.755   9.737  0.7783 -0.0648 -0.0392
24572SOL    HW274295   4.066   5.697   9.876  1.0163  0.9400  0.3738
24573SOL     OW74296   6.990   4.044   7.905  0.3720  0.1049  0.3924
24573SOL    HW174297   6.904   4.003   7.892  0.2800  0.5837 -0.6602
24573SOL    HW274298   7.031   3.994   7.975 -1.2690  0.6709  1.8240
24574SOL     OW74299   8.351   5.205   2.104 -0.2892  0.4210  0.3688
24574SOL    HW174300   8.374   5.130   2.050  0.8409  0.6928  0.4447
24574SOL    HW274301   8.296   5.169   2.174 -0.9443 -0.0883 -0.3893
24575SOL     OW74302   5.685   1.762   0.571  0.4449 -0.0548  0.4226
24575SOL    HW174303   5.686   1.798   0.659  0.9065 -1.2331  0.9280
24575SOL    HW274304   5.615   1.696   0.573 -0.1164  0.5009 -0.3538
24576SOL     OW74305   6.344   1.083   4.846 -0.1895  0.2806  0.6661
24576SOL    HW174306   6.338   1.081   4.750  2.6994 -3.1677  0.3460
24576SOL    HW274307   6.253   1.087   4.875 -1.1474  2.3682 -2.1250
24577SOL     OW74308   4.457   7.974   4.161 -0.1627 -0.6501  0.8325
24577SOL    HW174309   4.488   7.925   4.085 -0.1293 -0.7946  0.9402
24577SOL    HW274310   4.473   8.066   4.138 -0.9730 -0.6368  0.2982
24578SOL     OW74311   7.378   2.665   3.240 -0.0427  0.1514  0.1392
24578SOL    HW174312   7.351   2.680   3.149 -0.4197  1.1030  0.3970
24578SOL    HW274313   7.419   2.579   3.239  0.6495  0.4649 -1.0924
24579SOL     OW74314   1.643   5.503   5.732 -0.2542  0.4667  0.0454
24579SOL    HW174315   1.630   5.408   5.735 -0.0836  0.3663 -1.4680
24579SOL    HW274316   1.646   5.530   5.823 -0.9826 -0.8940  0.4989
24580SOL     OW74317   5.469   6.543   6.905 -0.6479  0.3502  0.6707
24580SOL    HW174318   5.449   6.636   6.889  0.0438  0.3465 -0.2252
24580SOL    HW274319   5.392   6.511   6.953 -1.2919  1.1684  0.2226
24581SOL     OW74320   8.933   0.083   6.838 -0.1632 -0.2840 -0.5564
24581SOL    HW174321   8.918   0.177   6.847 -2.2973 -0.7109  1.2804
24581SOL    HW274322   8.882   0.058   6.761 -0.5728 -0.1013 -0.3494
24582SOL     OW74323   7.878   4.046   3.606  0.0738  0.9603  0.0918
24582SOL    HW174324   7.857   4.123   3.552  0.4791  1.7471  1.0258
24582SOL    HW274325   7.879   3.973   3.544  1.7463  2.0092 -1.2072
24583SOL     OW74326   7.219   9.318   5.741  0.2647 -0.6956  0.4350
24583SOL    HW174327   7.280   9.364   5.799 -1.0950 -1.7443  2.8582
24583SOL    HW274328   7.133   9.335   5.779 -0.8604 -0.3704 -2.1047
24584SOL     OW74329   5.719   4.705   2.674  0.3799 -0.4948  0.2320
24584SOL    HW174330   5.803   4.751   2.675  0.2629 -0.2826  0.5791
24584SOL    HW274331   5.722   4.653   2.594  0.6702 -0.1691  0.0217
24585SOL     OW74332   4.787   7.546   8.308 -0.2474  0.3530 -0.2042
24585SOL    HW174333   4.800   7.559   8.402 -0.8981  0.9914 -0.1961
24585SOL    HW274334   4.728   7.616   8.282  1.5906  1.4972 -1.5303
24586SOL     OW74335   4.180   0.252   0.826 -0.3940 -0.2996 -0.4682
24586SOL    HW174336   4.198   0.258   0.732  2.6373 -1.4615 -0.0618
24586SOL    HW274337   4.152   0.161   0.838 -0.5088 -0.2280 -0.1982
24587SOL     OW74338   2.288   2.369   4.093 -0.2804  0.4983 -0.5279
24587SOL    HW174339   2.316   2.281   4.116 -1.4923 -0.7705 -3.3997
24587SOL    HW274340   2.369   2.417   4.078  0.4596 -1.1416 -2.1462
24588SOL     OW74341   2.835   2.130   1.973 -0.1841 -0.2251  0.2735
24588SOL    HW174342   2.740   2.123   1.982 -0.3015  0.5890 -0.2621
24588SOL    HW274343   2.849   2.149   1.880  0.7070 -3.4229 -0.3701
24589SOL     OW74344   3.183   5.262   3.351 -0.1164 -0.5289  0.2901
24589SOL    HW174345   3.264   5.286   3.396 -1.5075 -0.6733  3.0735
24589SOL    HW274346   3.168   5.334   3.290  2.3269 -0.7505 -0.6845
24590SOL     OW74347   8.321  -0.028   6.911  0.4215  0.3943 -0.4528
24590SOL    HW174348   8.362   0.050   6.873 -0.5129  1.4487  0.6076
24590SOL    HW274349   8.237   0.004   6.944  0.3693 -0.9032  0.7248
24591SOL     OW74350   3.485   0.817   8.169  0.5285 -0.2073  0.1503
24591SOL    HW174351   3.528   0.877   8.229 -1.3877  2.7538 -1.2033
24591SOL    HW274352   3.507   0.850   8.082 -0.6000 -1.4665 -0.6653
24592SOL     OW74353   6.496   7.368   6.911 -0.4247  0.7515  0.5520
24592SOL    HW174354   6.474   7.312   6.986  0.4107  1.8670  1.6701
24592SOL    HW274355   6.548   7.439   6.949  1.2092  0.6189 -1.3000
24593SOL     OW74356   6.961   6.595   0.272 -0.2103 -0.2873  0.2224
24593SOL    HW174357   7.038   6.651   0.273 -1.4688  1.5389 -0.0034
24593SOL    HW274358   6.973   6.535   0.345  1.6877 -0.4641 -0.1907
24594SOL     OW74359   3.758   5.896   5.851  0.1500  0.6387 -0.3680
24594SOL    HW174360   3.700   5.889   5.774 -0.1471 -0.7917 -0.0407
24594SOL    HW274361   3.740   5.984   5.886 -0.1213  1.1024 -1.5964
24595SOL     OW74362   1.272   3.427   6.426 -0.3138  0.2374 -0.3361
24595SOL    HW174363   1.222   3.363   6.477 -0.8892  0.5265 -0.5182
24595SOL    HW274364   1.245   3.512   6.463  0.6028  0.3711  0.0504
24596SOL     OW74365   5.017   3.106   5.133 -0.5708 -0.2850  0.2078
24596SOL    HW174366   5.054   3.194   5.122 -0.6564 -0.3581 -0.7689
24596SOL    HW274367   5.017   3.092   5.228  0.5034  0.3191  0.3217
24597SOL     OW74368   1.224   5.840   6.839  0.4313 -0.0083 -0.1795
24597SOL    HW174369   1.178   5.759   6.813  0.9740 -0.5501  0.5126
24597SOL    HW274370   1.308   5.809   6.874  0.6225  0.8611  0.1326
24598SOL     OW74371   6.637   8.768   8.886  0.5059 -0.1988 -0.2789
24598SOL    HW174372   6.553   8.807   8.862  0.0740  0.2978  1.9020
24598SOL    HW274373   6.630   8.677   8.856 -0.4385  0.0595 -0.9157
24599SOL     OW74374  -0.010   7.935   3.886  0.4664  0.1608  0.4187
24599SOL    HW174375   0.065   7.906   3.834  0.4155  1.5176 -0.4644
24599SOL    HW274376  -0.055   7.998   3.830 -0.3459  0.6780  1.6197
24600SOL     OW74377   0.114   6.248   9.756 -0.0039  0.3871 -0.0938
24600SOL    HW174378   0.102   6.335   9.795  0.2898 -0.0353  0.9980
24600SOL    HW274379   0.075   6.188   9.820 -1.1558 -0.2192 -1.3340
24601SOL     OW74380   1.799   7.149   5.689 -1.0785 -0.3663  0.2937
24601SOL    HW174381   1.728   7.202   5.654 -1.5310 -0.6572  0.7475
24601SOL    HW274382   1.851   7.124   5.612 -0.5632  1.1282  0.1321
24602SOL     OW74383   2.049   4.007   5.148  0.4425  0.2853 -0.5912
24602SOL    HW174384   2.135   3.998   5.190  0.5554 -0.2854 -0.9255
24602SOL    HW274385   2.069   4.023   5.056  0.1923  0.0564 -0.6870
24603SOL     OW74386   1.114   0.291   9.417  0.2624 -0.0618 -0.9825
24603SOL    HW174387   1.113   0.281   9.512  0.9923  1.7542 -0.7526
24603SOL    HW274388   1.118   0.201   9.384  0.8486 -0.7004  0.7140
24604SOL     OW74389   4.420   8.897   8.865 -0.0624 -0.1349 -0.8371
24604SOL    HW174390   4.453   8.815   8.902 -2.2357 -0.4074  0.6854
24604SOL    HW274391   4.468   8.906   8.782  0.6099 -2.6726 -0.8349
24605SOL     OW74392   1.257   4.230   6.291 -0.3094  0.6331 -0.0887
24605SOL    HW174393   1.259   4.255   6.198  1.1239 -1.7332 -0.7806
24605SOL    HW274394   1.346   4.245   6.322  0.1354 -1.6811 -0.0707
24606SOL     OW74395   1.674   5.801   8.424  0.0250 -0.1643  0.1260
24606SOL    HW174396   1.632   5.887   8.431  0.5960  0.2515 -1.2156
24606SOL    HW274397   1.765   5.816   8.446  0.2580 -0.2837 -0.7095
24607SOL     OW74398   2.152   1.727   5.701 -0.0084  0.2246 -0.3788
24607SOL    HW174399   2.175   1.689   5.616  1.6645  0.9935 -0.3025
24607SOL    HW274400   2.056   1.736   5.698  0.0810  1.0862 -2.5564
24608SOL     OW74401   3.440   4.550   1.512  0.4317 -0.4875 -0.1614
24608SOL    HW174402   3.394   4.587   1.437  0.1777 -3.2847 -1.5098
24608SOL    HW274403   3.371   4.510   1.565  0.7500  0.3804  0.9462
24609SOL     OW74404   3.669   3.407   0.898  0.3342  0.6092 -0.2729
24609SOL    HW174405   3.600   3.347   0.925  0.9111  0.4060  0.8055
24609SOL    HW274406   3.681   3.389   0.805 -0.4335  0.0056 -0.2665
24610SOL     OW74407   2.322   7.902   6.393 -0.4915  0.1160 -0.0598
24610SOL    HW174408   2.413   7.900   6.421 -0.6239 -0.6982  0.3486
24610SOL    HW274409   2.322   7.955   6.314  0.6220 -1.3064 -1.0490
24611SOL     OW74410   9.281   3.314   2.726  0.3253  0.6355  0.0037
24611SOL    HW174411   9.366   3.354   2.747 -0.7315  1.7594  2.5974
24611SOL    HW274412   9.301   3.221   2.713  1.9095  0.7553  1.1841
24612SOL     OW74413   3.052   7.763   4.184  0.1188  0.0738 -0.0945
24612SOL    HW174414   3.058   7.727   4.096 -0.4945 -0.9467  0.2733
24612SOL    HW274415   3.074   7.856   4.173 -0.5864  0.1036 -1.4183
24613SOL     OW74416   0.865   9.891   2.280  0.1064 -0.6447 -0.1267
24613SOL    HW174417   0.798   9.887   2.211  1.0343 -0.8933 -1.0425
24613SOL    HW274418   0.909   9.975   2.265  0.4404 -0.7911  0.0375
24614SOL     OW74419   3.767   0.585   0.606  0.3779  0.1451  0.1022
24614SOL    HW174420   3.822   0.544   0.540  1.4534  2.0289 -0.2452
24614SOL    HW274421   3.773   0.679   0.587 -1.1163  0.5639  1.4892
24615SOL     OW74422   9.140   8.848   8.757  0.6114  0.1077  0.3189
24615SOL    HW174423   9.204   8.777   8.748  1.3203  0.2675  2.9961
24615SOL    HW274424   9.186   8.914   8.810 -1.6631  0.2502  2.2926
24616SOL     OW74425   5.602   0.688   8.689 -0.6202  0.1729 -0.2605
24616SOL    HW174426   5.601   0.770   8.737  1.9032 -0.6172  1.3177
24616SOL    HW274427   5.604   0.620   8.757 -1.1582 -1.1528 -1.5159
24617SOL     OW74428   8.844   4.459   3.615 -0.1970  0.7622 -0.4106
24617SOL    HW174429   8.785   4.490   3.546  0.1609 -0.1063 -1.1303
24617SOL    HW274430   8.924   4.435   3.568 -0.1235 -0.3029  0.2447
24618SOL     OW74431   8.789   4.341   4.720 -0.6873 -0.5014 -0.4263
24618SOL    HW174432   8.802   4.251   4.690 -1.2454 -0.9183  0.5430
24618SOL    HW274433   8.730   4.334   4.795 -1.5968  0.7796 -0.9872
24619SOL     OW74434   7.721   0.916   9.649 -0.1122  0.3095 -0.1761
24619SOL    HW174435   7.721   0.918   9.744 -2.2017 -1.0656 -0.0715
24619SOL    HW274436   7.688   1.001   9.622  0.6885  0.7788  0.2938
24620SOL     OW74437   5.941   6.904   4.218  0.0344 -0.2005 -0.0117
24620SOL    HW174438   5.991   6.922   4.298  0.9573 -0.7045 -0.4633
24620SOL    HW274439   5.981   6.825   4.182 -1.2586 -0.7547 -0.2620
24621SOL     OW74440   0.691   2.124   4.731 -0.5918  0.3783 -0.2106
24621SOL    HW174441   0.719   2.072   4.656 -0.4813  1.1763 -0.7416
24621SOL    HW274442   0.628   2.069   4.777  1.1786 -1.1344  0.5394
24622SOL     OW74443   2.907   2.070   3.205  1.0470 -0.7878 -0.2761
24622SOL    HW174444   2.918   1.989   3.254 -1.0166  0.0363  1.7142
24622SOL    HW274445   2.934   2.139   3.266  1.2982  0.1339 -1.3887
24623SOL     OW74446   5.699   6.084   7.951  0.1111 -0.4046  0.2586
24623SOL    HW174447   5.792   6.106   7.937 -0.1248 -0.4498 -1.6861
24623SOL    HW274448   5.692   6.068   8.045  2.1133 -0.5694  0.4249
24624SOL     OW74449   3.179   2.590   0.720  0.4655  0.2324 -0.1396
24624SOL    HW174450   3.223   2.675   0.723  0.8622  0.1177 -1.7260
24624SOL    HW274451   3.089   2.611   0.694  0.7566  0.1192 -1.2625
24625SOL     OW74452   1.985   7.305   1.742 -0.3901  0.4233 -0.4193
24625SOL    HW174453   2.044   7.275   1.673 -0.2137  0.6519 -0.3704
24625SOL    HW274454   2.037   7.300   1.822 -0.0851  1.6126 -0.5200
24626SOL     OW74455   7.705   9.365   1.302 -0.1835  0.2678  0.1528
24626SOL    HW174456   7.714   9.275   1.331  4.4430  0.2012 -0.8231
24626SOL    HW274457   7.670   9.358   1.213 -0.8429 -0.4398  0.4534
24627SOL     OW74458   1.497   2.939   5.396 -0.0177  0.1838 -0.0613
24627SOL    HW174459   1.412   2.957   5.435  0.1078 -1.2801  0.9439
24627SOL    HW274460   1.561   2.960   5.464  0.5392  2.0957 -1.0805
24628SOL     OW74461   9.747   4.098   3.075 -1.0660 -0.7760 -0.0793
24628SOL    HW174462   9.791   4.181   3.090  1.2437 -1.9335  0.0551
24628SOL    HW274463   9.755   4.083   2.980  0.3336 -1.7400  0.1667
24629SOL     OW74464   2.622   2.786   3.214  0.6029  0.5822  0.3758
24629SOL    HW174465   2.535   2.766   3.179  1.0016 -1.4889  0.4653
24629SOL    HW274466   2.604   2.830   3.298 -0.3328  1.1544 -0.0995
24630SOL     OW74467   3.214   0.172   3.470 -0.6290 -0.9251 -0.1134
24630SOL    HW174468   3.206   0.217   3.554 -1.6935 -2.1020  0.4729
24630SOL    HW274469   3.185   0.236   3.405  2.2611  0.7568  0.0869
24631SOL     OW74470   4.262   9.137   1.678 -1.1353 -0.1951 -0.4291
24631SOL    HW174471   4.328   9.186   1.727 -0.1751 -0.2846 -1.5915
24631SOL    HW274472   4.185   9.139   1.734 -0.8380  1.8108  0.0013
24632SOL     OW74473   2.110   2.601   4.754 -0.2873 -0.0391 -0.0764
24632SOL    HW174474   2.190   2.550   4.746 -0.4683 -0.3647  0.1590
24632SOL    HW274475   2.095   2.609   4.848  0.7551  2.0814 -0.0482
24633SOL     OW74476   0.242   7.541   8.960 -0.4783  0.0675  0.2943
24633SOL    HW174477   0.204   7.581   8.881  0.1780 -2.6299 -1.5442
24633SOL    HW274478   0.336   7.557   8.951 -0.3363 -0.7789  0.1436
24634SOL     OW74479   8.194   4.099   0.013 -0.3882  0.2248 -0.3305
24634SOL    HW174480   8.172   4.190  -0.006 -0.1982  0.4147  0.3360
24634SOL    HW274481   8.271   4.103   0.069  0.7236 -0.4087 -1.7560
24635SOL     OW74482   2.557   9.464   1.930  0.1403  0.6225  0.2902
24635SOL    HW174483   2.495   9.491   1.997  1.2639  0.6790  1.3392
24635SOL    HW274484   2.623   9.533   1.930  0.8720 -0.0684  0.0933
24636SOL     OW74485   9.647   4.657   3.124  0.5954 -0.3596  0.2815
24636SOL    HW174486   9.707   4.715   3.077  0.4753 -0.4029  0.0751
24636SOL    HW274487   9.699   4.623   3.197  0.5585  0.2880  0.6133
24637SOL     OW74488   8.718   1.309   5.516 -0.3777 -0.1575  0.0146
24637SOL    HW174489   8.768   1.374   5.565 -2.3199  1.5029 -0.0548
24637SOL    HW274490   8.706   1.348   5.429 -0.6634 -1.0958 -0.3792
24638SOL     OW74491   8.703   7.727   0.111 -0.3871 -0.2085  0.3844
24638SOL    HW174492   8.698   7.770   0.197  2.0764  1.4401 -0.1950
24638SOL    HW274493   8.789   7.750   0.077 -1.9359  0.8724 -3.3903
24639SOL     OW74494   0.264   1.103   1.657  0.5980  0.7742 -0.5586
24639SOL    HW174495   0.189   1.116   1.716  1.2807  0.9500  0.3014
24639SOL    HW274496   0.225   1.070   1.576 -0.3511  0.2143  0.0903
24640SOL     OW74497   9.604   4.946   2.844  1.2895 -0.2167 -0.6049
24640SOL    HW174498   9.675   4.896   2.885 -0.1115 -0.9066  1.1144
24640SOL    HW274499   9.591   4.904   2.759  2.8253 -0.1586 -0.8956
24641SOL     OW74500   4.431   2.712   0.022  0.0276  0.0993  0.2167
24641SOL    HW174501   4.514   2.752   0.047 -0.0084  0.7453 -0.6304
24641SOL    HW274502   4.365   2.756   0.075  0.1321  0.2627  0.2123
24642SOL     OW74503   7.408   3.308   1.535  0.6194 -0.7352  0.1723
24642SOL    HW174504   7.491   3.284   1.576  0.0627 -2.7641  0.2509
24642SOL    HW274505   7.345   3.246   1.572 -0.9847  0.8333  0.2101
24643SOL     OW74506   6.235   9.634   5.446 -0.9712 -0.2284 -0.9819
24643SOL    HW174507   6.187   9.667   5.522 -1.1350  0.3381 -1.3275
24643SOL    HW274508   6.253   9.543   5.468 -0.4707  0.0879  0.0046
24644SOL     OW74509   8.693   6.839   3.212 -0.1941  0.8071  0.2038
24644SOL    HW174510   8.611   6.796   3.186  0.1624 -0.0408  0.4260
24644SOL    HW274511   8.730   6.780   3.278  0.6610  1.1146  0.0044
24645SOL     OW74512   0.432   9.406   4.966 -0.1695  0.7057 -0.2795
24645SOL    HW174513   0.357   9.375   4.916  0.3988 -0.7991 -0.2406
24645SOL    HW274514   0.505   9.400   4.906 -0.1164  2.5868 -0.4574
24646SOL     OW74515   9.582   6.240   5.605 -0.2805  0.0227 -0.2899
24646SOL    HW174516   9.490   6.240   5.579  0.0689 -0.4527 -1.5606
24646SOL    HW274517   9.631   6.231   5.523  0.9133  0.5704  0.3365
24647SOL     OW74518   8.049   6.848   9.782 -0.6009 -0.8364  0.2336
24647SOL    HW174519   8.029   6.887   9.867 -2.7871 -0.9234 -0.1785
24647SOL    HW274520   7.979   6.880   9.724  1.0147 -0.4883 -1.6517
24648SOL     OW74521   0.342   8.894   3.756  0.0952  0.5485  0.1755
24648SOL    HW174522   0.327   8.974   3.706 -1.0500  0.0258 -0.3530
24648SOL    HW274523   0.259   8.878   3.801  0.2170 -0.4849  0.0517
24649SOL     OW74524   8.371   6.639   4.235  0.3093 -0.6158  0.0967
24649SOL    HW174525   8.314   6.690   4.178 -0.0897  0.7708  1.6717
24649SOL    HW274526   8.404   6.568   4.179 -1.8848 -0.6790 -1.2206
24650SOL     OW74527   0.039   1.943   5.209  0.5711 -0.6387 -0.1250
24650SOL    HW174528   0.092   2.018   5.184 -1.4707  0.7207 -0.5923
24650SOL    HW274529   0.053   1.933   5.303  1.2023  0.0410 -0.1409
24651SOL     OW74530   3.112   3.589   8.414 -0.3220 -0.4370 -0.2898
24651SOL    HW174531   3.033   3.578   8.361 -1.0734  1.3201  0.3909
24651SOL    HW274532   3.183   3.558   8.358 -1.4077 -1.4203 -1.1649
24652SOL     OW74533   6.289   1.215   8.010  0.4987  0.2374 -0.1523
24652SOL    HW174534   6.285   1.175   7.923  1.2976  0.7075 -0.4203
24652SOL    HW274535   6.299   1.309   7.992  0.4319  0.3626  0.4505
24653SOL     OW74536   5.017   6.460   0.185  0.3199 -0.1853 -0.2844
24653SOL    HW174537   4.990   6.423   0.101  0.3059 -0.3714 -0.1988
24653SOL    HW274538   5.111   6.444   0.190 -0.1520 -3.3185  1.2468
24654SOL     OW74539   3.358   0.202   5.913  0.0773  0.1175 -0.0453
24654SOL    HW174540   3.452   0.189   5.914  0.1901  0.8598  1.3998
24654SOL    HW274541   3.322   0.119   5.882  1.2488  0.3446 -2.2337
24655SOL     OW74542   0.738   6.873   7.218 -0.5322  0.2075 -0.7577
24655SOL    HW174543   0.764   6.924   7.141 -0.3963 -2.0894 -2.3454
24655SOL    HW274544   0.656   6.914   7.246  0.3626  2.2619 -0.9226
24656SOL     OW74545   2.427   1.095   5.283 -0.0781 -1.0915 -0.3025
24656SOL    HW174546   2.434   1.124   5.374  1.0258 -0.4775 -0.5645
24656SOL    HW274547   2.509   1.050   5.266 -0.6440 -1.9800 -0.7426
24657SOL     OW74548   7.107   2.981   3.577  0.1040  0.1574  0.2198
24657SOL    HW174549   7.139   3.051   3.520  0.3613 -0.5433 -0.5113
24657SOL    HW274550   7.115   2.901   3.524  1.7366 -0.7445  1.7120
24658SOL     OW74551   7.628   1.625   6.252  0.1236 -0.5986  0.0392
24658SOL    HW174552   7.687   1.648   6.181  0.2285 -1.0619 -0.0268
24658SOL    HW274553   7.561   1.693   6.251  1.0753  0.3985  0.6198
24659SOL     OW74554   2.215   3.301   1.070  0.6126 -0.3032 -1.2889
24659SOL    HW174555   2.212   3.313   1.165  1.5181  2.2967 -1.5071
24659SOL    HW274556   2.139   3.247   1.050  0.0529 -0.3915  0.8412
24660SOL     OW74557   7.235   4.042   1.517 -0.8167  0.2585  0.2733
24660SOL    HW174558   7.295   4.038   1.442 -0.2060  0.3303  0.7471
24660SOL    HW274559   7.172   3.971   1.501 -1.9131  1.5087 -1.3039
24661SOL     OW74560   9.526   5.912   1.987  0.0376 -0.4814  0.1433
24661SOL    HW174561   9.572   5.901   2.070  0.0924 -0.7050  0.0848
24661SOL    HW274562   9.458   5.844   1.988 -0.2211 -0.2225  0.1821
24662SOL     OW74563   3.401   8.969   1.459 -0.0038 -0.2406 -0.0065
24662SOL    HW174564   3.327   9.024   1.483  1.0955  1.4777 -0.3860
24662SOL    HW274565   3.383   8.943   1.368  1.3813  3.0411 -1.3806
24663SOL     OW74566   9.971   7.323   5.967  0.4211 -0.2913  0.2249
24663SOL    HW174567  10.031   7.314   5.893  1.2497 -1.4192  1.0223
24663SOL    HW274568   9.910   7.250   5.958  0.0979 -0.0379  0.2945
24664SOL     OW74569   0.810   1.669   7.346  0.8025  0.3236 -0.9797
24664SOL    HW174570   0.736   1.672   7.286  0.3250 -0.3695 -0.4478
24664SOL    HW274571   0.812   1.755   7.387 -0.6224 -0.1128  0.0649
24665SOL     OW74572   1.457   7.878   9.014  0.1569  0.1877 -0.2152
24665SOL    HW174573   1.402   7.800   9.015 -1.6135  1.3650 -0.6092
24665SOL    HW274574   1.523   7.861   8.947 -3.0434  0.7729 -3.8896
24666SOL     OW74575   2.162   9.984   6.437  0.1505 -0.5099 -0.4848
24666SOL    HW174576   2.218  10.014   6.510  0.3847 -1.4618 -0.2632
24666SOL    HW274577   2.139   9.894   6.460  0.3071 -0.8534 -1.6446
24667SOL     OW74578   4.037   1.293   0.435 -0.5652 -0.4283  0.1172
24667SOL    HW174579   3.968   1.330   0.380 -1.9052 -2.3243  0.4113
24667SOL    HW274580   3.990   1.235   0.495  1.3495 -2.3649 -0.1483
24668SOL     OW74581   6.472   6.017   7.025  0.0853  0.2252 -0.2086
24668SOL    HW174582   6.548   6.073   7.046 -0.4024  0.2026  1.8232
24668SOL    HW274583   6.429   6.062   6.953  2.4232 -0.1608 -1.9742
24669SOL     OW74584   3.763   7.158   4.263 -0.4233  0.8182 -0.0216
24669SOL    HW174585   3.793   7.169   4.173 -1.7780  1.1929 -0.4611
24669SOL    HW274586   3.843   7.148   4.315  0.3962  1.1134 -1.1939
24670SOL     OW74587   4.364   9.891   6.666  0.3174  0.0190 -0.0559
24670SOL    HW174588   4.310   9.822   6.627 -1.7730  0.9377  1.0387
24670SOL    HW274589   4.353   9.966   6.608  0.0893  0.3188  0.3678
24671SOL     OW74590   2.074   6.433   9.683 -0.2517 -0.0164  0.1575
24671SOL    HW174591   2.039   6.499   9.743 -0.5061 -0.9707  1.0787
24671SOL    HW274592   2.145   6.478   9.637 -2.9045  2.2280 -2.2216
24672SOL     OW74593   4.079   5.676   0.337 -0.5005  0.2358  0.2724
24672SOL    HW174594   4.098   5.727   0.416  0.9940  0.5127 -0.2485
24672SOL    HW274595   4.163   5.639   0.310 -0.9944  0.0797 -1.1632
24673SOL     OW74596   8.241   5.648   4.469 -0.9356  0.3169  0.2716
24673SOL    HW174597   8.176   5.639   4.539 -1.7869  0.1459 -0.5248
24673SOL    HW274598   8.191   5.639   4.388 -0.0615  1.1380 -0.3837
24674SOL     OW74599   6.851   0.263   4.227 -0.6949 -0.1110  0.3210
24674SOL    HW174600   6.818   0.185   4.272 -0.9689 -0.1366  0.0775
24674SOL    HW274601   6.891   0.228   4.147  0.4814 -0.1506  0.8958
24675SOL     OW74602   7.073   9.211   2.190 -0.6200 -0.1248 -0.1658
24675SOL    HW174603   7.039   9.220   2.279  1.1606 -0.8875  0.6523
24675SOL    HW274604   6.996   9.192   2.136 -1.4789 -2.1693  1.6149
24676SOL     OW74605   0.242   3.053   6.353 -0.1927 -0.1574  0.3696
24676SOL    HW174606   0.242   3.086   6.443  0.4095  1.0665 -0.0572
24676SOL    HW274607   0.157   3.079   6.318 -0.8049 -1.4292  0.8333
24677SOL     OW74608   1.435   3.792   8.716 -0.0166 -0.8659 -0.3903
24677SOL    HW174609   1.525   3.797   8.685 -0.0094  1.2331 -0.1493
24677SOL    HW274610   1.442   3.759   8.805  0.7294  1.0140  0.2952
24678SOL     OW74611   5.384   8.186   0.896 -0.1375  0.0192 -0.0847
24678SOL    HW174612   5.334   8.250   0.846 -1.0050  0.4063  1.2236
24678SOL    HW274613   5.318   8.142   0.951  0.8930  0.2831  1.4132
24679SOL     OW74614   4.701   2.531   1.987  0.1185  0.3967  0.2632
24679SOL    HW174615   4.689   2.498   1.898 -1.5751  0.0786  0.5704
24679SOL    HW274616   4.686   2.625   1.981 -2.5216  0.0716  0.5553
24680SOL     OW74617   3.525   5.132   6.149  0.3292  0.4953 -0.5317
24680SOL    HW174618   3.593   5.090   6.096  0.0368  1.8961 -2.1192
24680SOL    HW274619   3.556   5.221   6.161  0.0923  0.3698  1.2273
24681SOL     OW74620   4.883   7.145   5.432  0.0755  0.0799 -0.6867
24681SOL    HW174621   4.942   7.176   5.501 -0.3805 -1.0418  0.2306
24681SOL    HW274622   4.831   7.222   5.409  1.9679  1.1410 -1.6392
24682SOL     OW74623   2.993   3.017   8.012  0.0972 -0.6897 -0.3234
24682SOL    HW174624   3.025   2.960   7.942  2.2306  0.8863 -0.7385
24682SOL    HW274625   2.900   3.031   7.991 -0.0218 -2.4964 -1.2087
24683SOL     OW74626   3.224   3.332   2.306 -0.0268 -0.0435 -0.2017
24683SOL    HW174627   3.167   3.341   2.383  1.2152  2.0772  0.5242
24683SOL    HW274628   3.263   3.418   2.294  1.5189 -0.9104 -1.8940
24684SOL     OW74629   2.487   2.737   0.806 -0.0848 -0.3031 -0.8467
24684SOL    HW174630   2.574   2.749   0.767  1.5917  0.3891  2.7249
24684SOL    HW274631   2.462   2.823   0.837 -0.6151 -1.0367  0.8623
24685SOL     OW74632   6.790   3.758   5.543  0.6682  0.1374 -0.3307
24685SOL    HW174633   6.717   3.764   5.605  0.7305 -1.4845 -0.0443
24685SOL    HW274634   6.867   3.783   5.594  0.5367  0.1700 -0.1457
24686SOL     OW74635   3.441   0.247   0.253 -0.6305  0.0056  0.3486
24686SOL    HW174636   3.440   0.167   0.305  0.5759 -0.5082 -0.3799
24686SOL    HW274637   3.484   0.222   0.172  0.0823  1.4702  0.2456
24687SOL     OW74638   1.580   7.270   6.741 -0.3321 -0.4920  0.3418
24687SOL    HW174639   1.510   7.262   6.806 -0.0454  1.3637  0.9172
24687SOL    HW274640   1.646   7.207   6.770 -1.0204 -1.0538  0.7447
24688SOL     OW74641   1.062   8.916   5.606  0.1113  0.2790  0.7095
24688SOL    HW174642   1.028   8.928   5.518  1.9657  1.4467  0.0985
24688SOL    HW274643   1.073   8.822   5.615 -1.5142  0.0067  0.3047
24689SOL     OW74644   7.218   1.327   3.744  0.1978 -0.1881 -0.1050
24689SOL    HW174645   7.234   1.421   3.752  1.1046 -0.3703  0.3128
24689SOL    HW274646   7.185   1.315   3.655  1.0771  0.3932 -0.5156
24690SOL     OW74647   7.867   5.387   1.901 -0.1553 -0.1774  0.0074
24690SOL    HW174648   7.814   5.462   1.927  1.6220  0.6759  1.4756
24690SOL    HW274649   7.926   5.372   1.976  3.2467  0.4435 -2.3091
24691SOL     OW74650   0.020   2.357   8.168  0.4310  0.2462 -0.8309
24691SOL    HW174651   0.053   2.268   8.155 -1.1178 -0.7756  1.5161
24691SOL    HW274652  -0.068   2.355   8.129  0.0038  0.4137  0.0973
24692SOL     OW74653   9.964   4.287   0.910  0.2186  0.2243  0.0631
24692SOL    HW174654   9.954   4.192   0.899  0.6962  0.2296 -0.4146
24692SOL    HW274655   9.988   4.319   0.824  0.1941  0.7683  0.2562
24693SOL     OW74656   3.811   8.928   2.060  0.2871  0.2901  0.2739
24693SOL    HW174657   3.791   8.992   1.991 -1.5574  0.2812  0.7492
24693SOL    HW274658   3.906   8.929   2.067  0.3195  3.0187  0.2797
24694SOL     OW74659   6.624   4.749   0.591 -0.0650 -0.2112  0.3884
24694SOL    HW174660   6.534   4.728   0.616 -0.0666 -0.9835 -0.2319
24694SOL    HW274661   6.678   4.713   0.661 -0.1967 -0.3706  0.4076
24695SOL     OW74662   1.545   1.728   6.075  0.2332  0.3440 -0.3673
24695SOL    HW174663   1.637   1.752   6.063  0.9705 -0.9340  2.1566
24695SOL    HW274664   1.497   1.811   6.062  2.0673  1.7925  1.4916
24696SOL     OW74665   0.071   7.874   2.096  0.2035  0.2601 -0.0957
24696SOL    HW174666  -0.016   7.836   2.081  0.3361 -1.3601  2.6018
24696SOL    HW274667   0.121   7.849   2.019 -0.9034 -1.4785 -0.3119
24697SOL     OW74668   9.712   1.883   0.707 -0.4204  0.1314 -0.3343
24697SOL    HW174669   9.653   1.904   0.634 -2.0502 -1.9761  0.2622
24697SOL    HW274670   9.713   1.962   0.760  0.0272  1.3801 -2.1071
24698SOL     OW74671   8.317   9.121   7.989 -0.5155 -0.0331 -0.0445
24698SOL    HW174672   8.262   9.181   8.040 -2.8820 -0.6212 -1.7260
24698SOL    HW274673   8.394   9.173   7.965 -1.7087  1.8063 -0.0669
24699SOL     OW74674   5.318   7.371   0.705 -0.1387 -0.6026 -0.0191
24699SOL    HW174675   5.326   7.308   0.777  0.4881  0.6524  1.0512
24699SOL    HW274676   5.404   7.372   0.664  0.0441  0.0075  0.3687
24700SOL     OW74677   0.386   1.353   1.368 -0.2397  0.0063 -0.4104
24700SOL    HW174678   0.431   1.350   1.452 -0.4406  0.5736 -0.2807
24700SOL    HW274679   0.456   1.360   1.303 -0.1246  0.4611 -0.2354
24701SOL     OW74680   5.984   1.575   2.395  0.3699  0.5415  0.5266
24701SOL    HW174681   5.956   1.593   2.485  1.4876 -0.9668  1.2256
24701SOL    HW274682   5.972   1.658   2.349 -1.3853  1.0177  1.7374
24702SOL     OW74683   2.324   9.624   5.082 -0.3869  0.2105  0.5097
24702SOL    HW174684   2.239   9.633   5.039 -0.4412  0.8788  0.7472
24702SOL    HW274685   2.382   9.683   5.033 -0.5448  1.2931  1.5816
24703SOL     OW74686   7.140   9.727   6.042  0.7029  0.0286  0.2022
24703SOL    HW174687   7.188   9.687   5.970  1.8975 -1.9024  1.9697
24703SOL    HW274688   7.098   9.653   6.088 -0.7208  1.2762  1.0235
24704SOL     OW74689   8.700   3.509   6.120 -0.7536  0.3760 -0.3804
24704SOL    HW174690   8.677   3.448   6.190  0.3499 -0.5078 -0.7711
24704SOL    HW274691   8.766   3.567   6.159 -0.0046 -0.2309 -0.7261
24705SOL     OW74692   2.399   1.713   8.559  0.1911  0.5456 -0.1846
24705SOL    HW174693   2.414   1.797   8.601  0.4054  1.0866 -1.2883
24705SOL    HW274694   2.350   1.735   8.479 -0.4891 -0.4705 -0.0597
24706SOL     OW74695   5.375   5.041   9.946  0.0286 -0.0503  0.6804
24706SOL    HW174696   5.346   5.096  10.018 -0.7371 -0.0473  0.3705
24706SOL    HW274697   5.335   4.955   9.963  0.3751 -0.2299  0.6038
24707SOL     OW74698   5.699   4.018   9.372  0.1893  0.1078 -0.4426
24707SOL    HW174699   5.754   4.071   9.430  1.8430 -1.6429 -0.2895
24707SOL    HW274700   5.728   4.043   9.284  2.4778 -1.8941 -0.3544
24708SOL     OW74701   6.107   9.870   7.696  0.1063  0.2702 -0.2070
24708SOL    HW174702   6.081   9.890   7.786  1.1055 -1.3374  0.4765
24708SOL    HW274703   6.036   9.815   7.662  0.3095 -0.1484  0.0347
24709SOL     OW74704   2.775   6.960   0.656  0.1822 -0.0005 -0.0294
24709SOL    HW174705   2.816   6.874   0.660  1.8677  0.7197 -0.7617
24709SOL    HW274706   2.706   6.957   0.722  2.7214 -0.6113  2.8252
24710SOL     OW74707   2.975   1.531   3.637 -0.1086 -0.3849  0.3413
24710SOL    HW174708   2.969   1.539   3.542  1.2729 -1.3925  0.1395
24710SOL    HW274709   2.885   1.541   3.668 -0.6232 -0.3641 -1.0923
24711SOL     OW74710   5.899   7.749   3.923  0.2916  0.1184  0.4397
24711SOL    HW174711   5.937   7.665   3.946 -0.8626 -0.5662 -0.0492
24711SOL    HW274712   5.839   7.729   3.851  0.6662  1.5060 -0.2983
24712SOL     OW74713   6.044   1.561   9.065 -0.4382 -0.1729 -0.3336
24712SOL    HW174714   6.103   1.555   8.990  1.0884  1.5867  0.6373
24712SOL    HW274715   6.078   1.497   9.128 -0.2661  0.0110 -0.2373
24713SOL     OW74716   8.663   1.687   2.367 -0.5823  0.2953 -0.2118
24713SOL    HW174717   8.720   1.759   2.338 -0.2246 -0.2062 -0.7795
24713SOL    HW274718   8.588   1.731   2.407  0.7824  0.9752  1.7783
24714SOL     OW74719   7.576   4.912   9.205 -0.3644 -0.2156 -0.3159
24714SOL    HW174720   7.579   4.817   9.218  0.6402 -0.0585  0.8221
24714SOL    HW274721   7.641   4.929   9.137  0.1611 -0.2580  0.1683
24715SOL     OW74722   5.074   3.965   8.309 -0.3196 -0.0545  0.4764
24715SOL    HW174723   5.099   3.921   8.390 -0.5066 -0.9835  0.0458
24715SOL    HW274724   5.049   4.053   8.336 -1.3281 -0.6411  1.5618
24716SOL     OW74725   9.148   6.202   9.891 -0.2608  0.0002 -0.1914
24716SOL    HW174726   9.182   6.157   9.814  1.3478  2.8495 -1.2916
24716SOL    HW274727   9.226   6.220   9.944 -1.4160 -2.9471  2.8686
24717SOL     OW74728   4.499   8.808   8.160 -0.4742  0.1216  0.1185
24717SOL    HW174729   4.510   8.861   8.239  0.0609 -0.9740  0.8038
24717SOL    HW274730   4.408   8.821   8.135  0.2663  3.6143 -1.4232
24718SOL     OW74731   1.541   7.773   0.956 -0.5948 -0.3263  0.2017
24718SOL    HW174732   1.624   7.731   0.977  0.2219  0.1002 -1.9931
24718SOL    HW274733   1.530   7.840   1.024  0.4190 -0.9163  0.9782
24719SOL     OW74734   3.407   3.549   7.885  0.1292  0.4501  0.2230
24719SOL    HW174735   3.415   3.540   7.790 -2.2522 -0.4082  0.0452
24719SOL    HW274736   3.463   3.480   7.920 -0.3349 -0.3703 -0.6153
24720SOL     OW74737   9.385   2.044   6.410  0.4614  0.4237 -0.2544
24720SOL    HW174738   9.352   1.957   6.432  0.7111  0.1379 -1.0038
24720SOL    HW274739   9.472   2.047   6.449  0.3172  0.4744  0.0714
24721SOL     OW74740   8.153   0.699   6.395 -0.5484 -0.1514 -0.2940
24721SOL    HW174741   8.131   0.709   6.302 -1.6422  2.0999  0.1366
24721SOL    HW274742   8.070   0.674   6.436 -0.6915  1.3226  0.3769
24722SOL     OW74743   0.448   3.074   2.854  0.0191 -0.2202 -0.1082
24722SOL    HW174744   0.480   3.164   2.851  0.6512 -0.4556 -1.6081
24722SOL    HW274745   0.364   3.080   2.899  1.0619  0.7638  1.8410
24723SOL     OW74746   0.302   8.129   2.134  0.3464 -0.1550 -0.4696
24723SOL    HW174747   0.251   8.049   2.136 -0.4529  0.3309 -0.9969
24723SOL    HW274748   0.344   8.133   2.220  0.2159 -1.0137 -0.3620
24724SOL     OW74749   5.932   0.297   2.211 -0.2109 -0.6964  0.9428
24724SOL    HW174750   5.910   0.353   2.285 -0.9628  1.5270 -0.8254
24724SOL    HW274751   5.861   0.311   2.148  0.2018 -2.7669 -0.1036
24725SOL     OW74752   6.566   3.487   9.772  0.3208 -0.1289 -0.1853
24725SOL    HW174753   6.594   3.430   9.699  0.6015  0.1778 -0.3198
24725SOL    HW274754   6.518   3.558   9.730 -0.0958 -0.3021 -0.0091
24726SOL     OW74755   6.238   1.002   6.686 -0.2726  0.0754 -0.0134
24726SOL    HW174756   6.209   0.995   6.777  0.8228 -3.1077  0.2287
24726SOL    HW274757   6.169   1.050   6.641 -1.6105  0.3064  2.1866
24727SOL     OW74758   8.871   8.764   7.960  0.3298  0.5041 -0.1475
24727SOL    HW174759   8.952   8.715   7.970 -0.5170 -1.7775 -3.0243
24727SOL    HW274760   8.896   8.856   7.972  3.2223 -0.1661 -0.4644
24728SOL     OW74761   7.557   3.440   4.410  0.3990 -0.6111  0.5733
24728SOL    HW174762   7.525   3.351   4.396  0.9419 -0.6609 -0.4606
24728SOL    HW274763   7.545   3.456   4.503 -1.1636 -1.1862  0.4998
24729SOL     OW74764   8.381   9.301   5.945  0.4319 -0.5057  0.0722
24729SOL    HW174765   8.286   9.300   5.954  0.4021 -0.0789 -0.1891
24729SOL    HW274766   8.398   9.241   5.872  0.2191  0.8642 -1.1340
24730SOL     OW74767   5.903   3.745   4.373  0.6059 -0.2489 -1.3058
24730SOL    HW174768   5.927   3.654   4.358 -1.1589 -0.8107 -1.0316
24730SOL    HW274769   5.914   3.758   4.467 -1.2272 -0.8987 -0.9556
24731SOL     OW74770   2.798   5.875   5.010 -0.0957  0.0948 -0.0030
24731SOL    HW174771   2.790   5.883   5.105 -0.2488 -2.1775  0.2394
24731SOL    HW274772   2.767   5.959   4.976  1.7908  1.6965  1.9855
24732SOL     OW74773   4.598   6.365   4.954 -0.3959  0.0801 -0.0810
24732SOL    HW174774   4.630   6.385   4.866  0.2170  0.6933  0.2626
24732SOL    HW274775   4.517   6.414   4.962 -1.5411 -1.5754 -1.0049
24733SOL     OW74776   4.904   5.594   2.378 -0.0126 -0.0842 -0.4891
24733SOL    HW174777   4.820   5.634   2.354  0.1656  0.1348 -0.7617
24733SOL    HW274778   4.891   5.560   2.466 -0.0597  0.9047 -0.1032
24734SOL     OW74779   6.824   4.809   0.410  0.0616 -0.4726 -0.4940
24734SOL    HW174780   6.743   4.784   0.454  0.6235 -0.0526  0.8179
24734SOL    HW274781   6.842   4.898   0.440 -0.3213  0.4444 -2.7741
24735SOL     OW74782   1.536   2.613   1.404  0.1329  0.0321 -0.0799
24735SOL    HW174783   1.481   2.554   1.353 -0.7783 -0.0386  0.9415
24735SOL    HW274784   1.610   2.559   1.432 -0.1708 -0.3560 -0.0123
24736SOL     OW74785   0.893   4.429   8.654  0.0049  0.5862  0.0531
24736SOL    HW174786   0.954   4.501   8.671 -0.1863  0.7225  0.1685
24736SOL    HW274787   0.839   4.424   8.733  1.9592 -1.6538  1.3683
24737SOL     OW74788   8.536   5.630   1.826 -0.1110 -0.1753 -0.4216
24737SOL    HW174789   8.492   5.596   1.904 -0.5484  2.0248  0.3512
24737SOL    HW274790   8.476   5.610   1.754 -1.5817  1.1725  0.3760
24738SOL     OW74791   2.870   7.996   9.538 -0.0264  0.5899 -0.2663
24738SOL    HW174792   2.954   8.001   9.585 -0.7031  1.7583  0.8622
24738SOL    HW274793   2.894   8.004   9.446  1.0033  2.6283  0.1248
24739SOL     OW74794   4.401   5.951   5.359  0.1504 -0.0551  0.1501
24739SOL    HW174795   4.361   5.871   5.393 -1.6021  1.0774  0.9196
24739SOL    HW274796   4.388   5.946   5.265 -1.5237  0.0771  0.3395
24740SOL     OW74797   4.372   8.006   8.042  0.3430  0.4172  0.5190
24740SOL    HW174798   4.294   7.953   8.054  0.4909 -0.1528 -0.7954
24740SOL    HW274799   4.365   8.076   8.106 -1.3471  0.5017  0.2641
24741SOL     OW74800   5.055   3.685   1.555 -0.4744 -0.6969 -0.1270
24741SOL    HW174801   4.999   3.645   1.488 -3.1263  1.2715  0.7273
24741SOL    HW274802   5.058   3.778   1.531  1.5245 -0.5366  0.5502
24742SOL     OW74803   3.782   3.535   9.242  0.3578  0.3039 -0.6702
24742SOL    HW174804   3.708   3.521   9.183 -0.1693 -0.3956  0.1431
24742SOL    HW274805   3.858   3.507   9.191 -0.1556 -0.8428 -0.8276
24743SOL     OW74806   3.045   8.646   3.369  0.1531  0.2312  0.0114
24743SOL    HW174807   3.111   8.637   3.300  0.6317  1.8138  0.2336
24743SOL    HW274808   2.977   8.583   3.345  1.2085 -0.6269 -0.8445
24744SOL     OW74809   3.164   2.810   9.891  0.5249  0.7885  0.3246
24744SOL    HW174810   3.172   2.817   9.796  0.7568 -1.3742  0.1379
24744SOL    HW274811   3.251   2.830   9.924  1.1696 -0.9761 -0.1534
24745SOL     OW74812   4.681   6.025   5.087 -0.2302  0.1565 -0.3220
24745SOL    HW174813   4.777   6.024   5.088 -0.2222 -0.5700  1.0719
24745SOL    HW274814   4.658   6.118   5.083  0.5451  0.3650 -0.0199
24746SOL     OW74815   7.277   1.973   9.247  0.8484  0.0223 -0.2756
24746SOL    HW174816   7.208   1.910   9.265  1.8674 -0.7644  1.1239
24746SOL    HW274817   7.232   2.056   9.235 -0.3212 -0.4009  0.9671
24747SOL     OW74818   9.138   9.506   5.341  0.0542  0.3135  0.9467
24747SOL    HW174819   9.085   9.447   5.395 -0.1809  1.7353  2.3332
24747SOL    HW274820   9.198   9.548   5.402  1.4536  0.2020 -0.3009
24748SOL     OW74821   6.521   2.592   6.553  0.5612 -0.5442 -0.2459
24748SOL    HW174822   6.613   2.610   6.536  0.8712 -0.3078  1.4387
24748SOL    HW274823   6.481   2.581   6.467  1.9776  0.2633 -1.0277
24749SOL     OW74824   1.578   3.420   4.212 -0.3508  0.1136 -0.0647
24749SOL    HW174825   1.619   3.346   4.257 -0.6476 -0.3887 -0.6057
24749SOL    HW274826   1.566   3.390   4.122 -4.2977 -0.8236  0.5876
24750SOL     OW74827   1.482   2.947   9.027 -0.5459  0.0757  0.5902
24750SOL    HW174828   1.390   2.937   9.000 -0.7772 -1.4543  1.8055
24750SOL    HW274829   1.488   2.898   9.108  1.9648 -2.0577 -0.7550
24751SOL     OW74830   5.625   2.434   5.824  0.1700  0.1895 -0.7895
24751SOL    HW174831   5.571   2.389   5.889 -1.8189  1.3435 -1.5327
24751SOL    HW274832   5.655   2.365   5.766 -0.0146 -0.5691 -0.0023
24752SOL     OW74833   5.984   9.826   9.663  0.1103  0.1058  0.2109
24752SOL    HW174834   5.967   9.846   9.571  1.0736 -2.4733 -0.5987
24752SOL    HW274835   5.915   9.765   9.688 -0.4335  1.1435  1.4092
24753SOL     OW74836   7.481   2.606   5.253  0.1347 -0.2502  0.2441
24753SOL    HW174837   7.391   2.629   5.275  1.0792  2.3321  1.8649
24753SOL    HW274838   7.533   2.635   5.328  2.3956 -1.2054 -0.8315
24754SOL     OW74839   4.821   4.022   8.514 -0.2301  0.2483 -0.0257
24754SOL    HW174840   4.745   3.965   8.528 -0.7598  0.5163 -1.5678
24754SOL    HW274841   4.783   4.105   8.483  0.6258  0.8443  0.4827
24755SOL     OW74842   8.447   7.859   6.635  0.1014 -0.1938 -0.1508
24755SOL    HW174843   8.484   7.845   6.722 -0.8851  1.5114  0.5819
24755SOL    HW274844   8.353   7.851   6.647 -0.1136  1.0426 -0.8412
24756SOL     OW74845   1.932   1.157   3.676 -0.0426  0.5576  0.6776
24756SOL    HW174846   2.008   1.213   3.697 -0.0361  1.0046 -0.4783
24756SOL    HW274847   1.862   1.191   3.733 -0.1620  2.0686 -0.3050
24757SOL     OW74848   4.578   3.879   8.515 -0.0111  0.3672  0.0400
24757SOL    HW174849   4.598   3.791   8.548 -4.0986 -0.9228 -0.3829
24757SOL    HW274850   4.552   3.865   8.424 -0.1714  2.1071 -0.2148
24758SOL     OW74851   1.279   9.713   6.577  0.1635  0.1901 -0.1682
24758SOL    HW174852   1.338   9.641   6.553 -0.5017 -0.0076 -1.2908
24758SOL    HW274853   1.338   9.785   6.598  0.8367  0.0437 -1.4252
24759SOL     OW74854   0.749   8.633   2.388  0.2608  0.2297  0.4098
24759SOL    HW174855   0.833   8.673   2.363 -0.3144  1.6346  0.6222
24759SOL    HW274856   0.725   8.678   2.469 -1.1022  0.4626 -0.1011
24760SOL     OW74857   1.380   5.776   2.725  0.0122 -0.6939 -0.2747
24760SOL    HW174858   1.326   5.853   2.742  1.8461  0.3867  1.1066
24760SOL    HW274859   1.372   5.761   2.631 -2.1221 -0.2023 -0.2191
24761SOL     OW74860   7.758   3.856   2.542 -0.3364 -0.5229 -0.4442
24761SOL    HW174861   7.709   3.896   2.614  0.4064 -1.1361  0.4338
24761SOL    HW274862   7.839   3.908   2.537 -0.1525 -0.8094 -0.4690
24762SOL     OW74863   6.231   5.033   9.066  0.6539  0.0672  0.0248
24762SOL    HW174864   6.180   5.019   9.145 -0.4963 -1.6437 -0.9551
24762SOL    HW274865   6.319   5.006   9.089  0.0315 -1.8056  0.3456
24763SOL     OW74866   8.754   0.771   2.819 -0.1018  0.2175  0.8785
24763SOL    HW174867   8.829   0.785   2.762  0.8651 -1.2518  1.7013
24763SOL    HW274868   8.685   0.739   2.761  0.0173  1.1966  0.1727
24764SOL     OW74869   4.534   0.976   4.630  0.0470 -0.3660  0.5138
24764SOL    HW174870   4.577   0.898   4.596 -2.0183 -0.7286 -1.4964
24764SOL    HW274871   4.470   0.942   4.693  0.3955 -0.1230  1.0029
24765SOL     OW74872   2.819   1.573   1.874  0.1001  0.0657 -0.0461
24765SOL    HW174873   2.728   1.545   1.879 -0.1825  0.6681 -1.4100
24765SOL    HW274874   2.814   1.669   1.873  0.7839  0.1114  0.2727
24766SOL     OW74875   8.406   7.353   2.789  0.6327 -0.0609 -0.3661
24766SOL    HW174876   8.344   7.283   2.807  0.0126 -0.0178 -2.1292
24766SOL    HW274877   8.395   7.414   2.862 -1.1775 -0.2174 -0.4629
24767SOL     OW74878   0.943   9.373   7.946 -0.1343 -0.5761 -0.7943
24767SOL    HW174879   0.963   9.406   7.859  0.0631  0.1849 -0.4706
24767SOL    HW274880   1.029   9.358   7.986 -0.1512  1.7590  0.2541
24768SOL     OW74881   1.275   1.229   8.145  0.0374 -0.0569 -0.8477
24768SOL    HW174882   1.349   1.290   8.151  0.7061 -0.9565  0.4097
24768SOL    HW274883   1.251   1.231   8.052  1.5999  0.3047 -1.2813
24769SOL     OW74884   7.146   0.605   2.765  0.5051 -0.3346  0.5429
24769SOL    HW174885   7.148   0.531   2.703 -1.8447 -1.6167  1.8750
24769SOL    HW274886   7.217   0.662   2.735  0.6467 -1.7642 -2.2154
24770SOL     OW74887   6.009   8.140   8.293  0.1744  0.1250 -0.5175
24770SOL    HW174888   6.076   8.134   8.361  0.0466 -1.1122 -0.4769
24770SOL    HW274889   5.945   8.072   8.317 -0.9822  1.1282 -0.6787
24771SOL     OW74890   7.117   7.145   5.647 -0.1265  0.5166 -0.3151
24771SOL    HW174891   7.059   7.176   5.577  0.0038  0.1360 -0.5955
24771SOL    HW274892   7.121   7.217   5.709 -0.2153  0.8696 -0.7196
24772SOL     OW74893   0.332   9.844   7.070  0.0896  0.1802  0.7173
24772SOL    HW174894   0.361   9.752   7.073  0.7861  0.3185 -0.7194
24772SOL    HW274895   0.236   9.839   7.070 -0.0371 -0.8603 -3.0587
24773SOL     OW74896   7.724   9.672   5.631  0.1948  0.0752 -0.5083
24773SOL    HW174897   7.680   9.665   5.546  0.2020 -1.4447 -0.4053
24773SOL    HW274898   7.653   9.688   5.693  0.0585  0.0101 -0.6460
24774SOL     OW74899   3.950   8.880   7.867  0.3053 -0.5940  0.6113
24774SOL    HW174900   3.907   8.805   7.909 -1.5136 -0.4443 -0.8672
24774SOL    HW274901   3.965   8.942   7.939  0.2551 -1.6513  1.5675
24775SOL     OW74902   6.534   9.708   8.734 -0.0025 -0.4275 -0.2558
24775SOL    HW174903   6.522   9.725   8.641  1.2785 -1.7348 -0.6989
24775SOL    HW274904   6.563   9.792   8.770  0.9696 -0.2683 -1.3386
24776SOL     OW74905   2.018   1.653   2.024  0.9890 -0.3866  0.5795
24776SOL    HW174906   2.064   1.666   1.941  0.6386  0.5034  0.5179
24776SOL    HW274907   1.937   1.702   2.015  0.1042 -1.7708  0.7761
24777SOL     OW74908   1.297   1.155   8.483  0.4005 -0.5370 -0.3796
24777SOL    HW174909   1.290   1.065   8.454  0.4199 -0.4289 -0.7235
24777SOL    HW274910   1.357   1.196   8.421 -0.1441 -0.1177 -0.6346
24778SOL     OW74911   2.895   5.279   0.878 -0.0569 -0.0707  0.2747
24778SOL    HW174912   2.871   5.274   0.786  0.7601  0.9929 -0.0155
24778SOL    HW274913   2.813   5.300   0.923 -0.7320 -1.8896 -0.0168
24779SOL     OW74914   3.899   5.505   2.572  0.3504  0.2917  0.4225
24779SOL    HW174915   3.909   5.527   2.664  0.9040  0.2620  0.3738
24779SOL    HW274916   3.985   5.525   2.533 -0.3277  1.7823 -0.3837
24780SOL     OW74917   2.570   0.304   4.175  0.0494 -0.2656 -0.0438
24780SOL    HW174918   2.583   0.385   4.125  1.4460 -0.5251 -0.1637
24780SOL    HW274919   2.655   0.260   4.171 -0.6674 -1.7164  0.0759
24781SOL     OW74920   1.737   0.803   9.275  0.5358 -0.1455  0.5601
24781SOL    HW174921   1.832   0.792   9.281  0.4903 -0.2848  1.1709
24781SOL    HW274922   1.705   0.722   9.235  0.7578  0.2949 -0.5290
24782SOL     OW74923   5.404   4.038   3.050 -0.2304 -0.5235 -0.2152
24782SOL    HW174924   5.378   3.967   3.109  0.2003 -0.3928  0.1348
24782SOL    HW274925   5.399   4.117   3.103 -0.9403 -0.2534 -0.6733
24783SOL     OW74926   4.537   0.143   7.921  0.0695  0.2075  0.2429
24783SOL    HW174927   4.526   0.237   7.940 -0.5866  0.0704  0.5608
24783SOL    HW274928   4.447   0.110   7.911  0.2166 -0.7292  1.7755
24784SOL     OW74929   4.751   9.414   0.465  0.1102 -0.3856  0.5707
24784SOL    HW174930   4.695   9.417   0.542  0.2552  0.9628  0.6565
24784SOL    HW274931   4.840   9.422   0.500  0.1429  0.8163  0.2442
24785SOL     OW74932   7.192   2.618   1.818 -0.1694 -0.0883 -0.0803
24785SOL    HW174933   7.229   2.697   1.858 -0.0579 -1.1735  2.1024
24785SOL    HW274934   7.264   2.555   1.819 -0.8934 -0.9307  0.3847
24786SOL     OW74935   2.551   0.616   2.726 -0.0468  0.1135 -0.4648
24786SOL    HW174936   2.575   0.523   2.734  0.2794  0.1828 -0.6166
24786SOL    HW274937   2.629   0.657   2.689 -0.2323  0.4300 -0.5021
24787SOL     OW74938   8.655   3.056   6.213 -0.0852  0.7733  0.3168
24787SOL    HW174939   8.631   3.136   6.261 -1.0020  0.2413  0.7787
24787SOL    HW274940   8.744   3.073   6.181  0.1989  1.5173  1.4254
24788SOL     OW74941   0.783   8.909   4.474 -0.0246 -0.0498 -0.0419
24788SOL    HW174942   0.854   8.878   4.417  1.5445  2.2099  0.5358
24788SOL    HW274943   0.807   8.999   4.495 -2.3159  0.2937  1.4621
24789SOL     OW74944   4.182   1.713   7.011  0.5821  0.6135 -0.7041
24789SOL    HW174945   4.196   1.620   6.994  0.9884  0.1739  1.6409
24789SOL    HW274946   4.179   1.719   7.107 -1.1365  2.7693 -0.8126
24790SOL     OW74947   9.255   0.843   3.720 -0.1470  0.3353 -0.1457
24790SOL    HW174948   9.297   0.762   3.749  1.2700 -0.1834 -3.2776
24790SOL    HW274949   9.170   0.843   3.763  0.4506 -1.9798  1.1868
24791SOL     OW74950   5.726   8.445   4.908  0.2081 -0.4489 -0.1419
24791SOL    HW174951   5.805   8.499   4.899 -0.5447  0.9143  1.1031
24791SOL    HW274952   5.755   8.370   4.961  0.7291 -0.1167  0.0537
24792SOL     OW74953   4.833   3.219   5.602  0.3310  1.0409 -0.1942
24792SOL    HW174954   4.859   3.309   5.619  0.1326  0.5682  3.2281
24792SOL    HW274955   4.797   3.188   5.685  2.3768 -2.8566 -0.5202
24793SOL     OW74956   6.475   2.897   9.339 -0.1539 -0.0210  0.4080
24793SOL    HW174957   6.493   2.988   9.363  1.6922  0.1311 -1.2717
24793SOL    HW274958   6.561   2.854   9.342 -0.8718 -1.5270  0.3846
24794SOL     OW74959   3.342   5.690   3.681 -0.5031 -0.0311 -0.0282
24794SOL    HW174960   3.392   5.726   3.608 -1.1011 -0.4085 -0.6479
24794SOL    HW274961   3.398   5.701   3.757 -0.3455  1.4510 -0.3319
24795SOL     OW74962   8.960   9.672   5.739  0.4072  0.1233  0.1323
24795SOL    HW174963   8.952   9.683   5.834 -1.6492  2.1904 -0.1878
24795SOL    HW274964   8.998   9.755   5.708  0.6491 -0.3531 -0.8997
24796SOL     OW74965   6.426   8.433   2.773 -0.1095 -0.8742  0.0363
24796SOL    HW174966   6.418   8.356   2.716 -2.6657 -1.0907  0.5860
24796SOL    HW274967   6.407   8.400   2.861 -0.0643  0.1721  0.4540
24797SOL     OW74968   0.619   4.566   0.491 -0.2438 -0.2298  0.0483
24797SOL    HW174969   0.551   4.632   0.508 -0.9129 -0.6615 -0.8788
24797SOL    HW274970   0.606   4.500   0.559 -0.1914  0.1153  0.3949
24798SOL     OW74971   7.704   0.298   6.389 -0.1471  0.3489 -0.5206
24798SOL    HW174972   7.660   0.233   6.335  0.0685 -0.5449  0.3619
24798SOL    HW274973   7.787   0.314   6.344  0.3624 -0.9477 -0.0751
24799SOL     OW74974   8.725   6.275   5.174  0.3073 -0.0272  0.0969
24799SOL    HW174975   8.636   6.284   5.141  0.6568 -0.1846 -0.9594
24799SOL    HW274976   8.754   6.189   5.143  0.9924  0.2343 -0.0262
24800SOL     OW74977   2.190   8.308   7.674  0.0884  0.4816  0.4880
24800SOL    HW174978   2.278   8.329   7.643  0.5466  0.4200  1.7035
24800SOL    HW274979   2.131   8.349   7.610  0.9581  3.2166  1.3194
24801SOL     OW74980   2.000   0.698   7.715 -0.4392 -0.2137 -0.1786
24801SOL    HW174981   1.983   0.738   7.630  0.2839  1.7221  0.5313
24801SOL    HW274982   2.094   0.711   7.728 -0.3574 -1.3908  0.4829
24802SOL     OW74983   8.046   8.183   2.186  0.0104 -0.1144  0.3157
24802SOL    HW174984   8.109   8.121   2.222  0.6266  0.6468  0.5708
24802SOL    HW274985   8.001   8.134   2.117  0.7273 -0.7299  0.2724
24803SOL     OW74986   8.694   1.223   9.754 -0.7368 -0.2982  0.0397
24803SOL    HW174987   8.619   1.183   9.709  1.8774 -2.0656 -3.1815
24803SOL    HW274988   8.746   1.148   9.784  0.5183  0.8477  0.8436
24804SOL     OW74989   3.211   8.215   6.511 -0.8123  0.0929 -0.0287
24804SOL    HW174990   3.211   8.224   6.606 -0.3411  0.1653 -0.0369
24804SOL    HW274991   3.119   8.227   6.486 -0.7751  1.2641  0.3052
24805SOL     OW74992   7.525   8.538   1.631  0.2399  0.0349 -0.4665
24805SOL    HW174993   7.437   8.540   1.594  0.8430 -0.5008 -2.0124
24805SOL    HW274994   7.534   8.451   1.669 -0.1315  0.3351  0.3254
24806SOL     OW74995   0.472   8.113   4.119  0.2779 -0.4193  0.0145
24806SOL    HW174996   0.468   8.208   4.105  1.1028 -0.4437 -0.3776
24806SOL    HW274997   0.390   8.080   4.081 -0.1639  0.1613  0.4341
24807SOL     OW74998   6.932   1.576   4.066 -0.1488 -0.1384 -0.2777
24807SOL    HW174999   6.948   1.642   3.997 -0.3713  0.6504  0.4055
24807SOL    HW275000   6.988   1.604   4.138  0.1647 -1.0295 -0.1735
24808SOL     OW75001   1.319   6.366   0.635 -0.0013  0.2019  0.4000
24808SOL    HW175002   1.249   6.309   0.667  0.7008 -0.1340  1.3583
24808SOL    HW275003   1.387   6.360   0.701  1.0971  0.2450 -0.7012
24809SOL     OW75004   9.548   6.356   1.164 -0.2017 -0.3441  0.2407
24809SOL    HW175005   9.588   6.436   1.199 -0.8322  0.6673 -1.2612
24809SOL    HW275006   9.456   6.381   1.148  0.0411 -0.7516 -2.0418
24810SOL     OW75007   9.529   5.685   5.098  0.8674 -0.2261  0.6604
24810SOL    HW175008   9.511   5.600   5.056  0.4305  0.2980 -0.2346
24810SOL    HW275009   9.577   5.662   5.177  0.5714 -1.3312  0.5404
24811SOL     OW75010   2.259   3.973   8.003 -0.4419 -0.3131  0.0902
24811SOL    HW175011   2.242   3.982   8.097  1.9654  0.5883  0.5066
24811SOL    HW275012   2.214   3.892   7.978 -3.0791  0.6022  1.4586
24812SOL     OW75013   1.968   9.829   4.298 -0.0990 -0.3600  0.2852
24812SOL    HW175014   1.942   9.739   4.278  1.4428 -1.1532  1.6346
24812SOL    HW275015   1.995   9.865   4.213 -1.8912 -0.7138 -0.4929
24813SOL     OW75016   1.126   4.158   1.190  0.0553  0.0105 -0.1491
24813SOL    HW175017   1.201   4.108   1.157  0.7458 -0.8354  2.4943
24813SOL    HW275018   1.160   4.247   1.199  0.3825 -0.1183 -0.0905
24814SOL     OW75019   5.738   3.529   2.824 -0.0063  0.4656  0.1803
24814SOL    HW175020   5.827   3.533   2.858 -0.5870 -0.6614  1.9261
24814SOL    HW275021   5.708   3.441   2.843 -1.1099  0.4406 -1.4593
24815SOL     OW75022   9.117   7.158   1.122 -0.0750  0.1125  0.2956
24815SOL    HW175023   9.109   7.174   1.216  0.8975 -0.1243  0.4278
24815SOL    HW275024   9.069   7.077   1.107  0.8947 -0.5946  0.8422
24816SOL     OW75025   2.568   9.332   4.249 -0.0550 -0.2017 -0.5319
24816SOL    HW175026   2.566   9.291   4.336  0.6641 -1.3209 -1.0186
24816SOL    HW275027   2.531   9.419   4.263 -0.9479 -0.7422  0.6856
24817SOL     OW75028   0.793   5.314   9.239  0.1314  0.1815 -0.2004
24817SOL    HW175029   0.877   5.338   9.201  0.0180 -0.6372 -1.0018
24817SOL    HW275030   0.742   5.281   9.166 -0.0457 -1.5725  0.6666
24818SOL     OW75031   7.509   8.479   3.292  0.6790  0.1793  0.0055
24818SOL    HW175032   7.438   8.478   3.227 -1.2969 -1.4216  2.0697
24818SOL    HW275033   7.502   8.396   3.337  2.2012  1.0974  2.0765
24819SOL     OW75034   7.088   1.554   2.581  0.4095 -0.3049 -0.0692
24819SOL    HW175035   7.152   1.486   2.604 -1.1427 -1.4459  1.0640
24819SOL    HW275036   7.068   1.598   2.663  0.6217  0.8722 -0.6238
24820SOL     OW75037   3.129   1.098   4.952 -0.3595  0.7938  0.3843
24820SOL    HW175038   3.097   1.014   4.919 -0.3989  0.5127  1.1133
24820SOL    HW275039   3.219   1.104   4.918 -0.2595  0.3228  0.5500
24821SOL     OW75040   9.430   1.794   3.361  0.2465 -0.0583 -0.3210
24821SOL    HW175041   9.364   1.823   3.298 -0.0527  2.3605  1.0081
24821SOL    HW275042   9.403   1.833   3.444  3.5207  1.3684  0.2270
24822SOL     OW75043   3.937   6.380   4.373 -0.3536  0.5676 -0.2114
24822SOL    HW175044   3.944   6.309   4.437 -0.7365  1.4685  0.8740
24822SOL    HW275045   4.024   6.384   4.332 -1.2163 -2.6444 -2.7303
24823SOL     OW75046   7.488   5.678   8.660 -0.0261 -0.2464 -0.2129
24823SOL    HW175047   7.438   5.707   8.737 -1.4654 -1.0794 -0.7761
24823SOL    HW275048   7.560   5.626   8.696 -2.0461 -2.6946  0.5979
24824SOL     OW75049   7.396   8.609   3.009 -0.0072  0.1788  0.2395
24824SOL    HW175050   7.365   8.527   2.970  0.1401  0.2169  0.0360
24824SOL    HW275051   7.480   8.625   2.966 -0.1155  0.5243  0.1539
24825SOL     OW75052   7.998   0.636   5.432 -0.1751 -0.2520 -0.4993
24825SOL    HW175053   8.049   0.654   5.354  0.7148  0.5027  0.2278
24825SOL    HW275054   7.908   0.656   5.408 -0.1741 -1.5977 -1.8058
24826SOL     OW75055   3.306   0.761   3.915  0.6096  0.0201 -0.6793
24826SOL    HW175056   3.330   0.783   4.005 -0.0612 -1.5961 -0.0785
24826SOL    HW275057   3.225   0.809   3.899  0.5338  0.0261 -0.2868
24827SOL     OW75058   3.275   9.581   6.849  0.5385 -0.4539 -0.1028
24827SOL    HW175059   3.205   9.592   6.913  0.6080 -0.1716 -0.0724
24827SOL    HW275060   3.341   9.646   6.875  1.4291 -1.6416  0.7028
24828SOL     OW75061   2.818   6.752   7.601 -0.5790 -0.1913 -0.0298
24828SOL    HW175062   2.785   6.693   7.533 -3.3642 -0.6129  1.5397
24828SOL    HW275063   2.801   6.840   7.567  0.8101 -0.3000 -1.0917
24829SOL     OW75064   9.748   1.366   6.482 -0.0617  0.0878 -0.4217
24829SOL    HW175065   9.815   1.371   6.549 -1.5092 -2.5160  1.4297
24829SOL    HW275066   9.679   1.426   6.511 -1.2663 -1.9977  1.2919
24830SOL     OW75067   3.393   8.490   5.156 -0.1570 -0.0833  0.2914
24830SOL    HW175068   3.428   8.549   5.089  0.6319 -0.5754  0.2602
24830SOL    HW275069   3.350   8.548   5.219  0.0521  0.4723 -0.0727
24831SOL     OW75070   8.924   5.719   2.901 -0.1057 -0.5482 -0.0716
24831SOL    HW175071   8.928   5.815   2.902 -1.2143 -0.4766 -0.4652
24831SOL    HW275072   8.989   5.691   2.965 -1.0908  0.5288  1.4496
24832SOL     OW75073   9.769   2.369   3.988  0.5819 -0.5292 -0.1248
24832SOL    HW175074   9.840   2.430   4.006  0.0779  0.2525 -0.6778
24832SOL    HW275075   9.712   2.417   3.928 -1.3052 -0.4553  1.6190
24833SOL     OW75076   3.631   5.424   6.316  0.3588 -0.1603 -0.3638
24833SOL    HW175077   3.590   5.405   6.400  1.0866 -1.9421 -0.3697
24833SOL    HW275078   3.724   5.434   6.336  0.2185  2.0389 -0.6109
24834SOL     OW75079   0.153   2.944   7.928 -0.0631 -0.3920 -0.5448
24834SOL    HW175080   0.102   2.967   8.006  2.7801 -0.0240  1.3548
24834SOL    HW275081   0.170   3.027   7.885  0.2374 -0.3135 -0.2819
24835SOL     OW75082   9.922   0.722   8.440  0.3601 -0.8201 -0.2018
24835SOL    HW175083   9.936   0.688   8.529 -0.8478 -0.5345  0.1216
24835SOL    HW275084  10.009   0.743   8.408  0.7647 -0.1308  1.2558
24836SOL     OW75085   6.737   5.018   0.883 -0.7693 -0.0388 -0.2087
24836SOL    HW175086   6.811   4.988   0.830 -2.5791 -0.6924 -2.5562
24836SOL    HW275087   6.738   5.114   0.874 -0.1976 -0.0453 -0.2083
24837SOL     OW75088   2.116   9.213   2.085 -0.2628  0.5708  0.1960
24837SOL    HW175089   2.140   9.291   2.035  0.7202  0.0120 -0.2286
24837SOL    HW275090   2.108   9.143   2.020  1.3893 -0.2535  0.8286
24838SOL     OW75091   6.868   0.465   5.420 -0.5851  0.6686  0.2434
24838SOL    HW175092   6.819   0.384   5.411 -0.9017  0.8249  0.5433
24838SOL    HW275093   6.805   0.528   5.456  0.0037  0.6961  1.2503
24839SOL     OW75094   3.976   4.624   1.135 -0.1200  0.1479 -0.2097
24839SOL    HW175095   4.046   4.605   1.197 -1.9901 -0.3129  1.9268
24839SOL    HW275096   3.926   4.543   1.130 -1.3449  0.8907 -0.4539
24840SOL     OW75097   0.666   0.156   2.690 -0.0400  0.0031  0.2987
24840SOL    HW175098   0.618   0.238   2.702 -0.6181 -0.3444  0.3814
24840SOL    HW275099   0.751   0.172   2.730 -0.4753  0.2598  1.1264
24841SOL     OW75100   3.717   8.128   6.674  0.3989 -0.1272 -0.4799
24841SOL    HW175101   3.641   8.100   6.726 -0.3795  1.3395 -0.7923
24841SOL    HW275102   3.682   8.147   6.587  1.3363 -0.5191 -0.9683
24842SOL     OW75103   0.292   0.515   7.524 -0.5375  0.5277  0.1746
24842SOL    HW175104   0.285   0.440   7.584 -2.1606  0.5461  0.0525
24842SOL    HW275105   0.221   0.502   7.461 -0.5318  1.9233 -0.1508
24843SOL     OW75106   6.396   8.252   2.577  0.8641  0.1026  0.2003
24843SOL    HW175107   6.452   8.187   2.620 -1.6833 -0.9001  2.3205
24843SOL    HW275108   6.308   8.217   2.587 -0.4255  2.8706 -0.5455
24844SOL     OW75109   9.654   0.443   8.173  0.1562  0.5558 -0.8087
24844SOL    HW175110   9.670   0.350   8.187 -0.4768  0.4654 -0.6803
24844SOL    HW275111   9.740   0.484   8.185  0.6873 -0.1307 -2.0305
24845SOL     OW75112   8.886   8.007   6.071 -0.7153  0.1315 -0.5275
24845SOL    HW175113   8.850   8.027   6.158 -0.4097  0.6505 -0.5138
24845SOL    HW275114   8.810   7.998   6.015 -0.9397 -0.6396 -0.1227
24846SOL     OW75115   5.948   1.551   2.717  0.5476  0.5738  0.3857
24846SOL    HW175116   5.923   1.459   2.704  0.5917  0.5995  0.1145
24846SOL    HW275117   5.953   1.561   2.812 -0.9145  0.6807  0.4688
24847SOL     OW75118   7.102   2.694   7.969 -0.3585 -0.5268 -0.3019
24847SOL    HW175119   7.191   2.689   7.934  0.1568  1.4080  0.5846
24847SOL    HW275120   7.106   2.764   8.034 -2.3816 -0.8680  0.2530
24848SOL     OW75121   1.055   5.283   2.323 -0.4091  0.0559 -0.0615
24848SOL    HW175122   1.144   5.251   2.337 -0.5406 -0.0814  0.4912
24848SOL    HW275123   1.029   5.319   2.407 -1.3931 -1.2105  0.2043
24849SOL     OW75124   5.541   5.683   1.757 -0.5184  0.2426  0.1792
24849SOL    HW175125   5.547   5.771   1.794  1.3795  0.0122  0.5586
24849SOL    HW275126   5.631   5.649   1.763 -0.2551 -0.1884 -3.6942
24850SOL     OW75127   1.543   4.259   6.332 -0.6218 -0.3501 -0.2763
24850SOL    HW175128   1.585   4.338   6.366 -1.2076 -0.2983  0.3525
24850SOL    HW275129   1.576   4.251   6.242  3.3929 -2.1820  1.1156
24851SOL     OW75130   1.236   4.179   9.224 -0.0762 -0.8443 -0.2319
24851SOL    HW175131   1.262   4.112   9.161 -0.6054 -0.4368 -0.9030
24851SOL    HW275132   1.296   4.251   9.208 -1.1006 -0.1836 -1.2859
24852SOL     OW75133   5.395   2.134   4.183  0.8643 -0.5201  0.1757
24852SOL    HW175134   5.357   2.098   4.103  2.0462 -2.9664  0.6107
24852SOL    HW275135   5.321   2.176   4.228 -0.3705 -1.3678 -0.9851
24853SOL     OW75136   0.004   1.049   3.056 -0.0283  0.0696 -0.4272
24853SOL    HW175137   0.035   1.057   2.965 -0.1376  1.2136 -0.3762
24853SOL    HW275138   0.070   1.094   3.108 -1.3850  2.0480 -0.2585
24854SOL     OW75139   5.974   0.182   0.875 -0.2992  0.6105 -0.1917
24854SOL    HW175140   6.055   0.212   0.916 -0.8204  2.1331 -0.1815
24854SOL    HW275141   5.958   0.244   0.804 -0.1115 -1.2143 -1.9233
24855SOL     OW75142   2.528   5.758   1.233 -0.6683  0.0647  0.1317
24855SOL    HW175143   2.485   5.814   1.168 -1.8023  0.6637  1.3468
24855SOL    HW275144   2.471   5.763   1.310  1.6088  0.9417  1.8642
24856SOL     OW75145   2.859   9.035   9.636  0.0500 -0.9520 -0.1046
24856SOL    HW175146   2.848   9.128   9.654  0.4108 -0.6677 -1.2479
24856SOL    HW275147   2.774   8.996   9.658 -0.2918 -0.2578 -0.1818
24857SOL     OW75148   7.274   0.714   3.173  0.1492 -0.1593  0.5154
24857SOL    HW175149   7.250   0.797   3.134 -0.6655 -0.8369 -0.4653
24857SOL    HW275150   7.352   0.733   3.225 -0.9907  1.5583  1.6812
24858SOL     OW75151   8.530   6.165   8.047  0.6682  0.5138 -0.0898
24858SOL    HW175152   8.620   6.194   8.035  0.4987  0.0282 -3.3730
24858SOL    HW275153   8.480   6.246   8.057  1.1604  0.9381 -0.9714
24859SOL     OW75154   1.062   9.762   1.511 -0.3219 -0.4191 -0.3432
24859SOL    HW175155   1.030   9.844   1.547  2.1174  0.9533 -1.0863
24859SOL    HW275156   0.993   9.734   1.450 -1.2500  0.9936  0.0062
24860SOL     OW75157   5.247   0.161   9.311 -0.1607  0.3123  0.0557
24860SOL    HW175158   5.246   0.146   9.216  0.6037 -1.6665  0.3175
24860SOL    HW275159   5.286   0.247   9.321  0.3461  0.2824 -1.3987
24861SOL     OW75160   0.506   8.534   3.508 -0.2811 -0.1930 -0.6281
24861SOL    HW175161   0.475   8.445   3.496 -2.0191  0.3405 -0.4114
24861SOL    HW275162   0.465   8.583   3.437 -0.3174  0.6445 -0.0446
24862SOL     OW75163   9.094   3.003   4.377  1.1872 -0.0369  0.1258
24862SOL    HW175164   9.079   3.092   4.409  1.8832 -0.2365  1.0652
24862SOL    HW275165   9.061   3.004   4.287 -1.0113  0.5157  0.8676
24863SOL     OW75166   4.672   1.864   0.689  0.7568  0.2236 -0.1964
24863SOL    HW175167   4.591   1.914   0.693 -0.1407 -1.0719 -1.1843
24863SOL    HW275168   4.656   1.797   0.622  1.8056 -1.4872  1.1509
24864SOL     OW75169   0.156   9.516   2.893 -0.0242 -0.7224  0.9736
24864SOL    HW175170   0.083   9.495   2.834  0.3226  0.1172  0.2270
24864SOL    HW275171   0.230   9.534   2.834 -0.2712  2.5688  1.5089
24865SOL     OW75172   8.964   3.240   4.471  0.4305  0.2475 -0.6426
24865SOL    HW175173   8.906   3.222   4.544  2.1527  0.5875  0.8827
24865SOL    HW275174   8.944   3.331   4.446  1.8509  1.2108  1.4490
24866SOL     OW75175   6.737   4.501   5.446  0.5773 -0.4958  0.2586
24866SOL    HW175176   6.771   4.542   5.525 -1.3132  1.5231  0.1160
24866SOL    HW275177   6.778   4.549   5.374 -0.2477 -0.0615  0.0680
24867SOL     OW75178   4.919   0.833   4.958 -0.1745 -0.2737  0.2881
24867SOL    HW175179   4.941   0.783   5.037 -1.5593 -1.5142 -0.0530
24867SOL    HW275180   4.834   0.872   4.978 -1.4275 -2.0618 -1.1558
24868SOL     OW75181   9.695   7.118   6.935 -0.3492  0.3900 -0.2222
24868SOL    HW175182   9.742   7.198   6.959  1.4847 -0.4443 -0.9087
24868SOL    HW275183   9.688   7.121   6.840 -3.3187  1.3280 -0.0773
24869SOL     OW75184   6.064   9.528   7.706 -0.0720 -0.0462  0.0850
24869SOL    HW175185   6.011   9.606   7.689  0.9068  0.1035 -2.7527
24869SOL    HW275186   6.080   9.491   7.620  2.3329 -1.4933  1.0712
24870SOL     OW75187   1.271   3.352   3.161  0.6664  0.3091 -0.0123
24870SOL    HW175188   1.227   3.430   3.196  0.5922  0.8911 -1.3357
24870SOL    HW275189   1.319   3.385   3.086  0.0486 -1.0552 -1.0336
24871SOL     OW75190   0.488   8.192   8.076  0.4052  0.0395  0.0669
24871SOL    HW175191   0.553   8.125   8.096 -0.4208 -1.1889 -1.2059
24871SOL    HW275192   0.443   8.160   7.998 -1.8231  0.7830  0.9655
24872SOL     OW75193   5.752   9.714   9.778  0.3064 -0.8247  0.0298
24872SOL    HW175194   5.764   9.638   9.835 -2.1912 -1.1881  0.1947
24872SOL    HW275195   5.657   9.727   9.774  0.6015  2.4461  0.1980
24873SOL     OW75196   3.290   7.942   0.360 -0.2091 -0.9612 -0.2114
24873SOL    HW175197   3.313   8.004   0.290  0.2637  0.3934  1.0705
24873SOL    HW275198   3.374   7.907   0.389 -0.2846 -0.5752  0.4880
24874SOL     OW75199   3.044   9.614   0.617  0.0301  0.4255  0.0316
24874SOL    HW175200   3.078   9.669   0.546 -0.1819  1.9748  1.0954
24874SOL    HW275201   2.977   9.559   0.575 -0.5184  1.7298 -0.8535
24875SOL     OW75202   4.545   0.058   9.933  0.5128 -0.1270 -0.0422
24875SOL    HW175203   4.571   0.106   9.853 -0.1623 -0.0554 -0.2192
24875SOL    HW275204   4.508   0.126   9.990 -1.8701 -0.6255 -0.8861
24876SOL     OW75205   3.662   0.516   7.257  0.2571  0.5759 -0.1691
24876SOL    HW175206   3.708   0.500   7.339  1.4210  0.3492 -0.8481
24876SOL    HW275207   3.704   0.458   7.193 -0.5822  0.7870 -0.9445
24877SOL     OW75208   5.966   4.060   7.310 -0.0627  0.1451 -0.3825
24877SOL    HW175209   5.921   3.984   7.346 -0.2274  0.1585 -0.5595
24877SOL    HW275210   5.895   4.120   7.286  0.0602  0.2878 -0.3890
24878SOL     OW75211   8.327   1.576   6.919 -0.1554  0.1252 -0.1640
24878SOL    HW175212   8.333   1.507   6.985 -0.1623  1.2422  1.0411
24878SOL    HW275213   8.303   1.655   6.968 -0.0840  1.0090 -1.4916
24879SOL     OW75214   7.330   1.728   5.592 -0.8007 -0.0184  0.0276
24879SOL    HW175215   7.308   1.701   5.503  2.4418  1.7789 -1.5063
24879SOL    HW275216   7.308   1.653   5.647 -1.2775 -1.8630 -2.5244
24880SOL     OW75217   6.334   5.861   6.465 -0.1986 -0.4401  0.2128
24880SOL    HW175218   6.369   5.904   6.543 -1.3844  0.0393  0.5043
24880SOL    HW275219   6.247   5.830   6.491 -0.7499  0.0275 -0.9946
24881SOL     OW75220   7.703   3.104   7.839  1.1222 -0.1466 -0.9608
24881SOL    HW175221   7.633   3.069   7.785  0.8576  0.3462 -0.9450
24881SOL    HW275222   7.682   3.197   7.849 -0.0033 -0.5922  1.7149
24882SOL     OW75223   3.096   9.117   5.242 -0.3688 -0.3186 -0.7099
24882SOL    HW175224   3.089   9.087   5.152 -1.1376  0.0009 -0.7704
24882SOL    HW275225   3.043   9.197   5.244 -0.2410 -0.2460 -0.0130
24883SOL     OW75226   9.415   0.262   3.922 -0.0491  0.1544  0.0455
24883SOL    HW175227   9.386   0.340   3.968 -2.1494  0.1557 -1.1546
24883SOL    HW275228   9.369   0.264   3.838 -0.1735 -2.3482 -0.0397
24884SOL     OW75229   2.397   2.226   6.289  0.4075 -0.5506 -0.0358
24884SOL    HW175230   2.345   2.147   6.281 -1.8533  0.6756  1.4657
24884SOL    HW275231   2.333   2.295   6.306  2.3359  1.5134 -0.6447
24885SOL     OW75232   6.553   2.317   5.360 -0.0830  0.8324 -0.5449
24885SOL    HW175233   6.482   2.311   5.424 -1.5866  1.3715 -2.0719
24885SOL    HW275234   6.541   2.241   5.303  1.0386  0.5239 -0.3826
24886SOL     OW75235   1.547   3.776   0.396  0.2576 -0.0277 -0.0817
24886SOL    HW175236   1.573   3.737   0.479  1.1997  0.6275 -0.0490
24886SOL    HW275237   1.617   3.839   0.377 -0.6502  0.8198 -0.6824
24887SOL     OW75238   1.588   1.939   5.553 -0.1189 -0.2217  0.1088
24887SOL    HW175239   1.530   1.863   5.556  2.3951 -2.3407 -1.4591
24887SOL    HW275240   1.598   1.964   5.645 -1.3357 -1.4971  0.6310
24888SOL     OW75241   5.355   2.133   1.033  0.2331  0.4315 -0.0471
24888SOL    HW175242   5.380   2.091   0.951  1.4649  1.2736 -0.1220
24888SOL    HW275243   5.281   2.189   1.009  2.1395  2.6432 -1.2139
24889SOL     OW75244   7.815   9.048   5.108  0.2042  0.1253  0.1704
24889SOL    HW175245   7.738   8.994   5.088  0.5533 -0.1030 -0.5855
24889SOL    HW275246   7.820   9.110   5.035  2.2043 -1.4961 -1.1517
24890SOL     OW75247   7.390   8.219   9.543  0.1440 -0.5355 -0.1118
24890SOL    HW175248   7.477   8.243   9.510  1.1638 -0.6023  2.3612
24890SOL    HW275249   7.390   8.247   9.634 -1.5329 -2.7670  0.6584
24891SOL     OW75250   9.614   5.080   4.642 -0.1134  0.2426  0.1427
24891SOL    HW175251   9.582   5.028   4.568  0.0342 -0.0093  0.2532
24891SOL    HW275252   9.614   5.019   4.716  1.5841 -0.0703 -0.0658
24892SOL     OW75253   1.366   4.692   3.695 -0.0913 -0.3342  0.0981
24892SOL    HW175254   1.288   4.725   3.739  0.2382 -0.3068  0.6695
24892SOL    HW275255   1.402   4.626   3.754  2.3648  2.1831  1.6924
24893SOL     OW75256   5.672   5.013   0.345  0.6142  0.2826 -0.0194
24893SOL    HW175257   5.616   4.940   0.371 -0.3874 -0.1430 -2.9728
24893SOL    HW275258   5.636   5.089   0.390  0.8001 -0.7463  1.9929
24894SOL     OW75259   3.254   3.576   7.592  0.0940  0.0107 -0.3304
24894SOL    HW175260   3.205   3.510   7.643  0.8475  0.2827  0.7774
24894SOL    HW275261   3.234   3.659   7.635  2.3939  0.0153  0.9205
24895SOL     OW75262   3.874   5.630   6.112  0.0205 -0.4032 -0.1694
24895SOL    HW175263   3.787   5.665   6.094 -0.5475 -2.0150 -0.7755
24895SOL    HW275264   3.868   5.594   6.200  0.3062  0.1593  0.0808
24896SOL     OW75265   0.731   6.477   2.680 -0.1860 -0.0984  0.5799
24896SOL    HW175266   0.731   6.389   2.718 -0.3838 -0.1531  0.4568
24896SOL    HW275267   0.646   6.513   2.705  0.2795  0.4238  1.4663
24897SOL     OW75268   7.578   4.624   2.005  0.0641 -0.7486  0.4863
24897SOL    HW175269   7.535   4.709   2.013 -0.4938 -0.8042 -1.3712
24897SOL    HW275270   7.668   4.641   2.033 -0.5234 -0.0575  2.0922
24898SOL     OW75271   7.376   5.688   5.453  0.6817 -0.5219  0.3937
24898SOL    HW175272   7.412   5.630   5.386  0.3794 -0.4643  0.1780
24898SOL    HW275273   7.283   5.694   5.432  0.8298  0.6003 -0.0107
24899SOL     OW75274   3.172   8.233   4.866 -0.3874  0.2210  0.0473
24899SOL    HW175275   3.096   8.206   4.815  0.7915  0.5591 -1.9779
24899SOL    HW275276   3.135   8.258   4.951 -2.3553 -0.8781 -0.3983
24900SOL     OW75277   2.844   6.108   8.682 -0.1967 -0.3802 -0.6036
24900SOL    HW175278   2.851   6.053   8.760 -0.8105  1.3741  0.7610
24900SOL    HW275279   2.821   6.195   8.715  0.0883  0.5796 -2.7078
24901SOL     OW75280   6.907   6.428   9.588  0.1734 -0.5830  0.3730
24901SOL    HW175281   6.912   6.361   9.520 -0.4958  1.1737 -1.4997
24901SOL    HW275282   6.852   6.497   9.550 -0.7773  0.2102  2.9445
24902SOL     OW75283   5.037   6.847   2.485 -0.0401 -0.5153 -0.2397
24902SOL    HW175284   5.005   6.771   2.436  1.6502 -0.6276 -1.2428
24902SOL    HW275285   5.097   6.891   2.425  1.0573  0.1240  1.2635
24903SOL     OW75286   1.673   5.884   9.369  0.0022 -0.2579  0.9272
24903SOL    HW175287   1.585   5.848   9.380  0.4543 -1.5333  0.6270
24903SOL    HW275288   1.679   5.953   9.434 -1.4547  0.3167  0.4968
24904SOL     OW75289   5.313   8.153   0.348  0.2321  0.2289  0.1379
24904SOL    HW175290   5.324   8.119   0.437  0.0967 -0.0106  0.0637
24904SOL    HW275291   5.349   8.084   0.292 -2.2532 -0.9352 -0.1618
24905SOL     OW75292   2.027   7.572   8.574 -0.2344 -0.4104 -0.1206
24905SOL    HW175293   2.107   7.520   8.568  1.3250  2.0204 -3.4521
24905SOL    HW275294   2.058   7.660   8.596 -2.0116  0.5157 -1.1333
24906SOL     OW75295   8.937   9.708   0.625 -0.3222 -0.5351  1.0902
24906SOL    HW175296   8.868   9.654   0.664 -1.8736  1.0752  0.7642
24906SOL    HW275297   9.011   9.699   0.684 -0.4445 -3.1064  0.9356
24907SOL     OW75298   2.955   8.945   1.391 -0.2010 -0.0277  0.0039
24907SOL    HW175299   2.980   8.883   1.323 -1.0565 -1.4944  0.9724
24907SOL    HW275300   3.031   8.951   1.448  0.0539  0.2037 -0.3558
24908SOL     OW75301   9.451   9.644   2.000 -0.0787  0.3532 -0.5088
24908SOL    HW175302   9.426   9.647   2.093  1.1127 -3.8675  0.1778
24908SOL    HW275303   9.539   9.681   1.998 -0.0021  0.2258  0.1062
24909SOL     OW75304   8.386   2.866   7.950  0.6685  0.2436  0.2339
24909SOL    HW175305   8.303   2.827   7.922  0.8780 -0.3919  0.4822
24909SOL    HW275306   8.366   2.958   7.964 -0.0180  0.0809  0.3503
24910SOL     OW75307   4.806   2.404   1.753  0.3208  0.1398 -0.2817
24910SOL    HW175308   4.880   2.447   1.794  0.1400  0.7884 -0.6222
24910SOL    HW275309   4.844   2.330   1.705  0.4506 -1.1826  1.7331
24911SOL     OW75310   0.802   2.987   9.611  0.3062 -0.5003  0.4039
24911SOL    HW175311   0.737   2.918   9.625 -0.4762  0.0674 -0.2809
24911SOL    HW275312   0.757   3.051   9.556  1.8250 -0.6245 -1.0562
24912SOL     OW75313   4.401   2.915   7.240 -1.0246  0.0801 -0.0601
24912SOL    HW175314   4.418   2.858   7.315 -0.9509  1.0215  0.6586
24912SOL    HW275315   4.374   2.855   7.171 -0.5592 -0.8676  0.5441
24913SOL     OW75316   9.902   5.092   9.894  0.5726  0.0427  0.1479
24913SOL    HW175317   9.851   5.095   9.813  0.2608  0.6356  0.3617
24913SOL    HW275318   9.853   5.033   9.951  2.1201 -2.4680 -0.9695
24914SOL     OW75319   8.094   5.608   3.122  0.4647 -0.0880 -0.0419
24914SOL    HW175320   8.166   5.669   3.103 -1.4581  2.4549  0.2726
24914SOL    HW275321   8.092   5.602   3.217  1.4539 -1.7623 -0.0964
24915SOL     OW75322   3.360   0.973   3.324 -0.3806 -0.2129 -0.2266
24915SOL    HW175323   3.428   1.038   3.342 -0.8992  0.4371 -0.5607
24915SOL    HW275324   3.393   0.924   3.248  0.1405 -0.5337  0.2025
24916SOL     OW75325   0.305   4.972   8.541  0.2872 -0.3340  0.0241
24916SOL    HW175326   0.273   4.896   8.491  1.6987 -0.0157 -1.4701
24916SOL    HW275327   0.228   5.027   8.554 -0.4937 -1.3750 -0.0811
24917SOL     OW75328   7.783   4.348   4.111 -0.0741 -0.0249 -0.1225
24917SOL    HW175329   7.866   4.301   4.122  0.7707  1.3951 -0.0714
24917SOL    HW275330   7.807   4.424   4.057 -1.0800  1.0785  0.9368
24918SOL     OW75331   5.285   5.870   2.418 -0.0366  0.0904  0.0567
24918SOL    HW175332   5.330   5.940   2.464  0.1026 -0.1909  0.3501
24918SOL    HW275333   5.226   5.832   2.484 -0.9721  0.6804 -0.4066
24919SOL     OW75334   0.758   6.989   5.036 -0.3193 -0.0759  0.2144
24919SOL    HW175335   0.706   6.936   5.095  0.0897 -0.0219  0.6294
24919SOL    HW275336   0.715   7.075   5.036 -1.3108 -0.5408 -0.8922
24920SOL     OW75337   0.876   2.368   4.458  0.1431 -0.2509  0.2283
24920SOL    HW175338   0.904   2.418   4.381 -0.8953  0.5137  0.3339
24920SOL    HW275339   0.788   2.337   4.436 -1.0951  1.8146  1.9117
24921SOL     OW75340   9.601   8.014   9.757 -0.2388 -0.1433  0.6680
24921SOL    HW175341   9.615   8.106   9.780 -1.8968  0.2188  0.3857
24921SOL    HW275342   9.526   8.015   9.698 -0.1597 -1.6669  0.4871
24922SOL     OW75343   7.197   9.314   8.936 -0.5892  0.1031 -0.0592
24922SOL    HW175344   7.118   9.337   8.985 -2.2887  0.8868 -2.9398
24922SOL    HW275345   7.219   9.226   8.966 -1.0770  0.7541  2.5107
24923SOL     OW75346   1.586   9.636   3.109 -0.3278 -0.0987 -0.4136
24923SOL    HW175347   1.575   9.659   3.201 -0.7444 -0.7861 -0.2853
24923SOL    HW275348   1.661   9.577   3.108 -0.5090 -0.3270 -0.4792
24924SOL     OW75349   0.960   4.479   2.673  0.0813  0.1841 -0.0134
24924SOL    HW175350   0.928   4.544   2.611 -1.2253 -2.2871 -2.1664
24924SOL    HW275351   1.046   4.454   2.638 -0.3647 -0.7259 -0.5238
24925SOL     OW75352   0.344   0.617   2.222 -0.0520 -0.0811  0.3291
24925SOL    HW175353   0.436   0.627   2.249 -0.6284  0.4038  2.2569
24925SOL    HW275354   0.349   0.598   2.128  1.9844  0.7178  0.2150
24926SOL     OW75355   9.789   7.195   6.310 -0.1710  0.0816 -0.2194
24926SOL    HW175356   9.750   7.274   6.272  0.4859  0.8532  0.6762
24926SOL    HW275357   9.766   7.199   6.403 -1.2271 -1.4701 -0.3722
24927SOL     OW75358   1.179   1.317   7.353 -1.0346  0.3069 -0.1990
24927SOL    HW175359   1.147   1.227   7.359  2.0416 -0.9630 -1.0552
24927SOL    HW275360   1.262   1.316   7.401 -0.4272  2.4174 -1.0958
24928SOL     OW75361   4.610   0.645   9.800  0.1256  0.2834 -0.4778
24928SOL    HW175362   4.546   0.637   9.871 -0.1730 -0.4222 -0.8088
24928SOL    HW275363   4.600   0.735   9.769  1.5969  1.2543  1.5846
24929SOL     OW75364   6.558   4.971   8.456 -0.2299 -0.3515 -0.2372
24929SOL    HW175365   6.519   4.918   8.525  0.4612 -1.3173 -0.5793
24929SOL    HW275366   6.521   5.059   8.470 -0.7510 -0.7244  0.8269
24930SOL     OW75367   2.502   9.128   7.192 -0.3451 -0.2604 -0.0970
24930SOL    HW175368   2.477   9.217   7.169 -1.1977 -0.4910 -0.1183
24930SOL    HW275369   2.597   9.127   7.187 -0.3615  0.4885 -0.6571
24931SOL     OW75370   5.374   4.978   8.653 -0.0018 -0.0514  0.2849
24931SOL    HW175371   5.407   4.901   8.699  0.2860  0.1426  0.4070
24931SOL    HW275372   5.306   4.944   8.594 -0.9519 -0.1975  1.4257
24932SOL     OW75373   1.401   0.018   8.192 -0.1309  0.2028 -0.2756
24932SOL    HW175374   1.406   0.013   8.097 -1.2229 -0.5256 -0.3116
24932SOL    HW275375   1.396   0.111   8.212  2.2114  0.5007 -0.7749
24933SOL     OW75376   5.868   1.503   7.285  0.3045 -0.1859 -0.1675
24933SOL    HW175377   5.833   1.414   7.286 -0.3473 -0.0323 -2.8044
24933SOL    HW275378   5.794   1.558   7.311  1.0654 -0.4102  2.8294
24934SOL     OW75379   8.787   9.385   1.115  0.2312 -0.0023  0.3369
24934SOL    HW175380   8.770   9.473   1.081 -0.8828 -0.4181 -0.2291
24934SOL    HW275381   8.860   9.397   1.177  0.9035  1.1091 -0.6279
24935SOL     OW75382   3.101   3.233   0.716 -0.4287 -0.7314  0.0811
24935SOL    HW175383   3.012   3.208   0.738 -0.4930  1.0995  2.2322
24935SOL    HW275384   3.097   3.328   0.701  1.0319 -0.7331 -0.5127
24936SOL     OW75385   4.117   7.329   7.922  0.5169 -0.0208 -0.5138
24936SOL    HW175386   4.035   7.284   7.903 -0.2581  1.5213 -1.0132
24936SOL    HW275387   4.177   7.298   7.854  0.3554 -1.1303 -0.1674
24937SOL     OW75388   5.065   3.303   0.824 -0.5785  0.8860 -0.0492
24937SOL    HW175389   5.013   3.309   0.744  0.3308  0.5295 -0.6735
24937SOL    HW275390   5.021   3.236   0.876  0.3792 -0.8848 -1.4374
24938SOL     OW75391   2.453   9.391   5.027 -0.5409 -0.0057 -0.5142
24938SOL    HW175392   2.539   9.425   5.052 -0.6861 -0.5383  0.7910
24938SOL    HW275393   2.398   9.469   5.017 -0.1972  0.2804 -0.1953
24939SOL     OW75394   0.762   2.719   1.880  0.4136  0.2896  0.1883
24939SOL    HW175395   0.711   2.735   1.800 -1.6599 -2.7977  0.7314
24939SOL    HW275396   0.737   2.790   1.939 -0.3042  0.9652 -0.8937
24940SOL     OW75397   1.556   8.736   6.730 -0.8428 -0.3767  0.0515
24940SOL    HW175398   1.600   8.653   6.748  0.8790  0.8786  2.3401
24940SOL    HW275399   1.594   8.797   6.795 -4.8929  1.2412  1.2230
24941SOL     OW75400   0.944   7.474   9.341 -0.8858 -0.2922  0.0278
24941SOL    HW175401   0.934   7.446   9.250 -2.0981  2.7727 -0.9214
24941SOL    HW275402   0.863   7.447   9.384 -1.0794 -0.2152 -0.2849
24942SOL     OW75403   4.956   8.539   4.914  0.1413 -0.0969  0.3300
24942SOL    HW175404   4.926   8.465   4.967  0.8297  0.1124  1.0191
24942SOL    HW275405   5.037   8.508   4.874  0.0005  0.0056 -0.0475
24943SOL     OW75406   6.767   7.292   5.455  0.3810  0.6564  0.3078
24943SOL    HW175407   6.757   7.324   5.544  1.2874 -0.0553  0.6777
24943SOL    HW275408   6.857   7.259   5.451  0.3242  0.5926 -0.8409
24944SOL     OW75409   5.655   7.233   8.163 -0.2532  0.0468  0.4693
24944SOL    HW175410   5.661   7.198   8.252  0.9467 -1.0593 -0.0272
24944SOL    HW275411   5.659   7.157   8.106  3.8871  0.8645 -0.7060
24945SOL     OW75412   8.332   0.889   9.849 -0.3568 -0.1146 -0.0460
24945SOL    HW175413   8.280   0.927   9.920  0.0695 -0.4924  0.4810
24945SOL    HW275414   8.412   0.859   9.892  0.2288  0.3158 -0.8242
24946SOL     OW75415   3.195   3.222   8.016 -0.0886  0.3978  0.0763
24946SOL    HW175416   3.218   3.229   7.923  1.1498 -1.7968  0.1597
24946SOL    HW275417   3.112   3.173   8.016  0.1431  0.0003  0.1293
24947SOL     OW75418   6.345   2.753   8.342  0.1222  0.8673  0.1515
24947SOL    HW175419   6.347   2.845   8.317  2.6195  0.9103  0.2494
24947SOL    HW275420   6.391   2.749   8.426  4.0073 -0.8533 -1.7936
24948SOL     OW75421   6.631   6.495   4.410 -0.0397 -0.2640  0.0927
24948SOL    HW175422   6.561   6.560   4.420  0.2365 -0.1658  1.6065
24948SOL    HW275423   6.585   6.411   4.408 -0.2159 -0.2027  1.1228
24949SOL     OW75424   3.703   6.415   1.161 -0.0851 -0.1204 -0.0275
24949SOL    HW175425   3.666   6.333   1.192  1.4238 -0.8730 -0.1054
24949SOL    HW275426   3.685   6.416   1.067 -0.5285 -0.1138  0.0547
24950SOL     OW75427   3.724   1.490   3.611 -0.7090  0.2033 -0.0840
24950SOL    HW175428   3.790   1.438   3.565 -0.8254 -1.8109  1.8595
24950SOL    HW275429   3.648   1.432   3.618 -0.8364  0.5287  2.1834
24951SOL     OW75430   8.533   5.056   2.591 -0.1462 -0.1787 -0.5439
24951SOL    HW175431   8.592   5.130   2.604 -1.1335  0.3690  1.0949
24951SOL    HW275432   8.531   5.012   2.676 -1.6927 -0.4570 -0.6908
24952SOL     OW75433   7.486   7.832   9.531  0.3768  0.3260 -0.1898
24952SOL    HW175434   7.467   7.862   9.620 -1.0167  0.9790 -0.6607
24952SOL    HW275435   7.578   7.852   9.517  0.7281 -0.2018  1.2495
24953SOL     OW75436   2.459   2.946   9.624 -0.3646  0.4520 -0.1914
24953SOL    HW175437   2.495   2.978   9.542 -3.1314  0.9136 -1.3246
24953SOL    HW275438   2.451   3.023   9.680 -0.5948  0.5310 -0.3349
24954SOL     OW75439   4.792   0.957   0.625 -0.7357 -0.0284  0.0090
24954SOL    HW175440   4.817   1.048   0.611 -0.9693  0.2052  0.9930
24954SOL    HW275441   4.724   0.961   0.693  0.2233 -1.0165  1.0762
24955SOL     OW75442   2.559   3.183   6.214 -0.1923 -0.1685 -0.4483
24955SOL    HW175443   2.532   3.109   6.268 -1.6512  0.0084 -0.8727
24955SOL    HW275444   2.647   3.205   6.243 -0.2130 -1.3114  0.4989
24956SOL     OW75445   9.000   9.019   4.828  0.3993 -0.2130  0.3840
24956SOL    HW175446   9.057   9.031   4.752  1.0856 -0.5509  0.8337
24956SOL    HW275447   9.059   8.993   4.898 -0.4049 -1.2701  0.6940
24957SOL     OW75448   4.856   9.806   3.484 -0.0069  0.5021  0.3700
24957SOL    HW175449   4.899   9.738   3.432  0.5462  1.6975 -0.7785
24957SOL    HW275450   4.776   9.826   3.435  0.1827  1.1711  0.3307
24958SOL     OW75451   1.329   3.955   4.636  0.0169 -0.0493 -0.2938
24958SOL    HW175452   1.270   3.884   4.610 -0.1600 -0.6033  1.4826
24958SOL    HW275453   1.407   3.944   4.582 -0.1908 -1.3277 -0.3503
24959SOL     OW75454   5.413   7.429   4.013  0.3032 -0.2694 -0.3078
24959SOL    HW175455   5.327   7.443   3.974 -0.1517 -1.6060  0.1663
24959SOL    HW275456   5.414   7.337   4.038  0.7191  0.4010  2.4480
24960SOL     OW75457   3.768   0.159   9.557 -0.4814 -0.6901  0.4819
24960SOL    HW175458   3.845   0.112   9.588 -0.3813 -0.9744 -0.1833
24960SOL    HW275459   3.793   0.191   9.470 -1.5491 -1.9114 -0.3182
24961SOL     OW75460   0.717   1.193   7.257  0.4795 -0.5462 -0.1915
24961SOL    HW175461   0.765   1.118   7.223 -0.1261 -1.3290  0.6312
24961SOL    HW275462   0.785   1.259   7.274  0.9579 -0.7306 -1.3476
24962SOL     OW75463   4.651   0.484   1.495 -0.1243 -0.2287  0.1067
24962SOL    HW175464   4.677   0.551   1.558 -1.3078 -0.0585  0.4426
24962SOL    HW275465   4.689   0.403   1.530 -0.2457 -0.0348  0.7090
24963SOL     OW75466   7.469   3.413   7.160 -0.3869  0.0603  0.4435
24963SOL    HW175467   7.544   3.360   7.189  0.1506 -0.0511 -1.0116
24963SOL    HW275468   7.394   3.376   7.206 -0.2701 -2.9719 -1.4531
24964SOL     OW75469   3.107   7.122   1.312 -0.2134  0.0266 -0.5355
24964SOL    HW175470   3.189   7.087   1.347 -1.2215 -0.5787  1.3711
24964SOL    HW275471   3.072   7.053   1.256 -0.7186 -0.8626  0.8252
24965SOL     OW75472   1.921   2.118   1.331  0.2959  0.0999 -0.1870
24965SOL    HW175473   1.896   2.204   1.364 -1.3836 -0.4005 -0.0630
24965SOL    HW275474   1.976   2.080   1.400  0.8269  0.9476 -0.1344
24966SOL     OW75475   1.056   4.375   6.910 -0.5660  0.6081 -0.1409
24966SOL    HW175476   0.988   4.317   6.945 -0.4487  1.9148  2.5297
24966SOL    HW275477   1.127   4.316   6.885 -1.4897 -0.5683 -0.0813
24967SOL     OW75478   2.420   9.120   8.329 -0.3927 -0.0389 -0.0096
24967SOL    HW175479   2.436   9.026   8.320 -0.5644 -0.0450 -0.2519
24967SOL    HW275480   2.406   9.133   8.422  1.9397  0.0979  0.3933
24968SOL     OW75481   4.677   9.013   5.988 -0.4941  0.9336 -0.2610
24968SOL    HW175482   4.674   8.989   6.080 -1.3662  1.5276 -0.1287
24968SOL    HW275483   4.694   8.930   5.942 -0.6866  0.5336  0.3835
24969SOL     OW75484   3.342   8.868   7.294 -0.3977 -0.5500 -0.0008
24969SOL    HW175485   3.299   8.820   7.223 -1.4301  0.3777 -0.0269
24969SOL    HW275486   3.275   8.928   7.326  0.6263  0.3210  0.5534
24970SOL     OW75487   4.661   3.924   3.560  0.0543 -0.0703 -0.6702
24970SOL    HW175488   4.623   3.972   3.634  1.0546  0.4573 -0.4879
24970SOL    HW275489   4.632   3.834   3.573 -0.7714  0.2382 -0.2988
24971SOL     OW75490   1.984   1.696   0.354 -0.3047  0.1524  0.4016
24971SOL    HW175491   1.910   1.736   0.399  0.9206  0.9972  1.7364
24971SOL    HW275492   2.061   1.746   0.382  0.5217  1.2624 -3.2328
24972SOL     OW75493   2.566   9.086   0.199  0.6760  0.0080 -0.4475
24972SOL    HW175494   2.534   9.174   0.219  0.9812 -0.2009  1.0660
24972SOL    HW275495   2.504   9.052   0.134 -0.1011  0.9198 -0.1974
24973SOL     OW75496   7.362   2.582   2.124 -0.1101  0.3317  0.8443
24973SOL    HW175497   7.356   2.674   2.149  1.1891  0.5346  0.4819
24973SOL    HW275498   7.412   2.582   2.042  0.8242 -0.7609  1.3849
24974SOL     OW75499   2.493   7.609   2.604  0.3814 -1.0373 -1.0480
24974SOL    HW175500   2.540   7.690   2.587 -0.7764 -0.1450 -0.2131
24974SOL    HW275501   2.401   7.633   2.593 -0.1567 -1.5789  1.4871
24975SOL     OW75502   4.033   4.632   7.941 -0.4059 -0.0393  0.0299
24975SOL    HW175503   4.054   4.696   7.872  3.3240  0.3448  1.2898
24975SOL    HW275504   4.043   4.547   7.898 -0.3174  0.1949 -0.4251
24976SOL     OW75505   5.159   4.874   4.591  0.6755 -0.3654 -0.4380
24976SOL    HW175506   5.193   4.884   4.680  1.3882 -0.0996 -0.7315
24976SOL    HW275507   5.183   4.785   4.565 -0.4316 -0.8112 -0.0034
24977SOL     OW75508   6.583   4.922   4.767 -0.2341  0.5505 -0.0676
24977SOL    HW175509   6.554   4.968   4.846 -2.4012 -0.7593 -0.0442
24977SOL    HW275510   6.550   4.975   4.695 -2.1774 -0.5154 -0.0376
24978SOL     OW75511   0.474   5.358   6.584  0.3915 -0.1434 -0.1884
24978SOL    HW175512   0.425   5.348   6.502  0.2364 -0.4829 -0.0574
24978SOL    HW275513   0.564   5.373   6.556 -0.0109  2.0214 -0.4748
24979SOL     OW75514   0.534   4.597   4.326 -0.3735 -0.1901 -0.2720
24979SOL    HW175515   0.550   4.692   4.320  0.2775 -0.3166 -0.7087
24979SOL    HW275516   0.446   4.590   4.362 -0.4483  0.5871 -0.2739
24980SOL     OW75517   8.131   3.055   2.819 -0.2063  0.1992  0.2777
24980SOL    HW175518   8.075   3.024   2.890 -1.0633 -0.6120 -0.7244
24980SOL    HW275519   8.182   2.978   2.793  0.5244  0.6346  0.3954
24981SOL     OW75520   2.402   4.247   5.092 -0.0067  0.1944 -0.2004
24981SOL    HW175521   2.438   4.229   5.005 -1.2313 -0.4160 -0.6079
24981SOL    HW275522   2.468   4.301   5.135  1.4255 -0.9440 -0.8688
24982SOL     OW75523   9.877   1.354   0.222  0.0653 -0.0142  0.4241
24982SOL    HW175524   9.900   1.440   0.256 -0.3604  0.1352  0.3442
24982SOL    HW275525   9.812   1.320   0.284 -0.4101  0.0899 -0.0064
24983SOL     OW75526   5.826   0.524   1.912 -0.0946  0.9000 -0.1405
24983SOL    HW175527   5.838   0.493   1.822  0.1720  3.6150 -1.1166
24983SOL    HW275528   5.909   0.504   1.955  0.7546  1.8994 -1.2614
24984SOL     OW75529   2.397   7.579   3.953 -0.0649  0.1854  0.0822
24984SOL    HW175530   2.371   7.576   3.861  1.1998  0.5087 -0.3071
24984SOL    HW275531   2.356   7.502   3.992  0.0054 -0.3818 -0.9225
24985SOL     OW75532   9.076   7.485   3.124  0.2353 -0.1810  0.3043
24985SOL    HW175533   9.030   7.405   3.149 -1.4087  0.9444  1.0686
24985SOL    HW275534   9.091   7.475   3.030  0.8918 -1.7551  0.5329
24986SOL     OW75535   0.684   1.729   8.777 -0.0008 -0.7340 -0.3229
24986SOL    HW175536   0.627   1.786   8.726 -0.6511  0.0156  1.1818
24986SOL    HW275537   0.637   1.646   8.781 -0.5800 -0.3966  0.1305
24987SOL     OW75538   1.718   8.075   7.341  0.2982  0.1825 -0.2707
24987SOL    HW175539   1.656   8.083   7.414  1.2760  0.6540  0.5400
24987SOL    HW275540   1.727   8.164   7.307  1.4390  0.3542  0.4189
24988SOL     OW75541   6.681   2.093   0.786 -0.3108  0.2972  0.5068
24988SOL    HW175542   6.776   2.104   0.776 -0.4653  3.2833  1.3981
24988SOL    HW275543   6.648   2.090   0.697  0.6341 -2.0450  0.1424
24989SOL     OW75544   9.052   8.835   8.225 -0.4756  0.5464  0.1929
24989SOL    HW175545   9.058   8.869   8.314  2.8881 -1.4886  0.9556
24989SOL    HW275546   9.084   8.906   8.170 -1.4727  1.4205  0.7108
24990SOL     OW75547   4.511   0.499   5.069  0.2031 -0.4318  0.2573
24990SOL    HW175548   4.530   0.413   5.106 -1.2981 -0.9474 -0.1303
24990SOL    HW275549   4.596   0.543   5.068  1.0754 -2.0402  0.0928
24991SOL     OW75550   4.688   4.245   3.781  0.0751 -0.0078  0.4755
24991SOL    HW175551   4.715   4.323   3.829 -1.9959  0.1800  1.4692
24991SOL    HW275552   4.690   4.271   3.689  0.8056  0.7369  0.6939
24992SOL     OW75553   6.641   4.655   3.761  0.5716 -0.2023 -0.0686
24992SOL    HW175554   6.709   4.604   3.716 -0.2172 -0.5285 -0.9353
24992SOL    HW275555   6.629   4.732   3.706  0.3618 -0.0639  0.1689
24993SOL     OW75556   7.270   4.685   0.280  0.2294  0.9239  0.1205
24993SOL    HW175557   7.194   4.685   0.338  1.2941  0.5523  1.5646
24993SOL    HW275558   7.310   4.771   0.293 -0.4560  1.5231 -1.4046
24994SOL     OW75559   6.057   7.307   5.924  0.3583  0.5270  0.2519
24994SOL    HW175560   6.023   7.295   5.835  1.0368  0.7315 -0.0455
24994SOL    HW275561   5.985   7.282   5.981 -0.0628  0.3200 -0.3593
24995SOL     OW75562   6.581   0.745   0.769  0.6278  0.7601  0.2503
24995SOL    HW175563   6.596   0.740   0.864  1.1114  0.8904  0.1828
24995SOL    HW275564   6.491   0.776   0.760 -0.3854 -1.7782  0.6907
24996SOL     OW75565   0.464   3.339   0.238  0.5854 -1.0101  0.3848
24996SOL    HW175566   0.455   3.424   0.195 -1.4417 -0.7065  1.2853
24996SOL    HW275567   0.548   3.343   0.284  0.6558  0.3758  0.1708
24997SOL     OW75568   5.909   6.622   6.079 -0.1368  0.4863 -0.0789
24997SOL    HW175569   5.841   6.681   6.045 -0.7159  0.0502  0.2920
24997SOL    HW275570   5.977   6.680   6.112  0.1447  0.9299 -1.3564
24998SOL     OW75571   3.273   0.810   2.875  0.1655 -0.4683  0.9855
24998SOL    HW175572   3.260   0.839   2.785 -1.3041 -0.4170  1.1787
24998SOL    HW275573   3.220   0.731   2.883 -1.0139  0.3873  2.2122
24999SOL     OW75574   3.182   6.893   5.239 -0.3701 -0.3040 -0.2793
24999SOL    HW175575   3.208   6.874   5.149 -0.3662 -1.5167 -0.0425
24999SOL    HW275576   3.181   6.989   5.245 -1.9648 -0.1668 -2.0185
25000SOL     OW75577   9.542   1.734   5.333 -0.3650 -0.2691  0.1604
25000SOL    HW175578   9.516   1.787   5.408 -0.0971  0.7038 -0.4022
25000SOL    HW275579   9.464   1.682   5.312 -0.1265 -1.2863  1.6898
25001SOL     OW75580   3.732   1.892   3.800  0.1579  0.3012 -0.2341
25001SOL    HW175581   3.793   1.913   3.870 -0.8128  2.0991  0.1148
25001SOL    HW275582   3.647   1.883   3.844 -0.2290  0.0686 -1.0060
25002SOL     OW75583   9.210   3.151   6.469 -0.5418  0.1418 -0.2597
25002SOL    HW175584   9.296   3.117   6.442  1.5440  4.4708  0.0432
25002SOL    HW275585   9.214   3.151   6.565 -0.7714  0.5965 -0.2512
25003SOL     OW75586   9.069   7.823   7.745 -0.4768 -0.2711  0.4432
25003SOL    HW175587   9.130   7.893   7.725  0.1069 -0.8401  0.1876
25003SOL    HW275588   9.124   7.753   7.782 -1.0009 -0.6999  0.4261
25004SOL     OW75589   5.383   1.309   0.285  0.3035  0.1789  0.1551
25004SOL    HW175590   5.359   1.233   0.231  0.0701 -0.7805  1.5542
25004SOL    HW275591   5.476   1.297   0.302  0.6186  1.0394 -0.8528
25005SOL     OW75592   5.663   6.729   4.134 -0.1813 -0.2365  0.4181
25005SOL    HW175593   5.644   6.670   4.207  0.6861  0.4550  1.2218
25005SOL    HW275594   5.742   6.775   4.160 -1.1698  1.7498  0.0866
25006SOL     OW75595   9.215   0.492   3.962  0.0824  0.4117  0.1540
25006SOL    HW175596   9.223   0.577   4.007  1.0638 -0.4068  1.6086
25006SOL    HW275597   9.150   0.444   4.012 -0.6855  0.3875 -0.8410
25007SOL     OW75598   9.616   9.377   9.360 -0.1603  0.1095  0.4452
25007SOL    HW175599   9.593   9.384   9.453 -0.4872  0.2108  0.3611
25007SOL    HW275600   9.592   9.288   9.336 -3.4700  1.0602 -0.3948
25008SOL     OW75601   6.395   8.356   4.978  0.5378 -0.1372  0.3041
25008SOL    HW175602   6.338   8.346   4.902  0.7726 -0.7852  0.2090
25008SOL    HW275603   6.347   8.316   5.051 -0.1677  1.4401  0.7585
25009SOL     OW75604   9.044   7.297   8.461  0.1393  0.1542 -0.2262
25009SOL    HW175605   9.100   7.225   8.490 -0.5756 -0.5547 -0.5777
25009SOL    HW275606   8.969   7.295   8.521  0.7666  1.5073  0.6585
25010SOL     OW75607   5.830   9.231   9.611  0.1537  0.8040  0.3231
25010SOL    HW175608   5.847   9.138   9.622  1.5599  1.1313  1.2157
25010SOL    HW275609   5.735   9.240   9.621  0.2878 -0.1450  3.8431
25011SOL     OW75610   6.186   8.593   2.206  0.2737 -0.5265 -0.3923
25011SOL    HW175611   6.106   8.579   2.155 -0.2797 -1.1405  0.5963
25011SOL    HW275612   6.222   8.505   2.217  0.6722 -0.3379 -0.1903
25012SOL     OW75613   4.318   1.098   8.293  0.4020  0.8482  0.1833
25012SOL    HW175614   4.261   1.118   8.219  0.4083 -0.7854 -0.2875
25012SOL    HW275615   4.359   1.182   8.315 -1.6164  1.9313  0.0819
25013SOL     OW75616   5.461   2.263   5.973  0.1040 -0.2899  0.0409
25013SOL    HW175617   5.536   2.204   5.970  0.6642  0.4239 -0.3323
25013SOL    HW275618   5.443   2.275   6.066  1.5284  0.8366  0.2125
25014SOL     OW75619   4.224   0.455   0.271  0.0652  0.4739 -0.2019
25014SOL    HW175620   4.309   0.414   0.256  0.3909  0.9910  0.1569
25014SOL    HW275621   4.246   0.541   0.307 -0.6046  0.7749 -0.5026
25015SOL     OW75622   8.422   1.374   2.086 -0.0504 -0.2298 -0.0280
25015SOL    HW175623   8.421   1.387   2.180  0.3579  0.8575 -0.1655
25015SOL    HW275624   8.452   1.457   2.050 -2.1623  0.0922 -1.2259
25016SOL     OW75625   5.736   0.278   2.496 -0.0647  0.0974  0.7290
25016SOL    HW175626   5.742   0.372   2.480 -2.2784  0.5111  1.9426
25016SOL    HW275627   5.827   0.248   2.498  0.6849  1.6357 -2.5248
25017SOL     OW75628   5.391   5.439   5.278  0.6710 -0.1768  0.1473
25017SOL    HW175629   5.388   5.355   5.324 -2.6735 -0.2392  0.1012
25017SOL    HW275630   5.379   5.504   5.347 -0.5343 -0.0374 -0.1620
25018SOL     OW75631   6.153   7.534   1.018 -0.2251 -0.4238 -0.6326
25018SOL    HW175632   6.105   7.510   1.097 -0.1807 -0.3175 -0.5738
25018SOL    HW275633   6.085   7.539   0.950 -0.4125  0.4694 -0.3948
25019SOL     OW75634   8.586   7.168   9.108 -0.0592 -0.4364 -0.2914
25019SOL    HW175635   8.562   7.226   9.180 -2.0028 -2.2516  0.6168
25019SOL    HW275636   8.682   7.169   9.108 -0.0291  1.2473  0.9126
25020SOL     OW75637   8.172   5.683   8.978 -0.1593 -0.6548 -0.6537
25020SOL    HW175638   8.175   5.697   8.884 -2.1742  0.7964 -0.5784
25020SOL    HW275639   8.257   5.711   9.010  0.1121  0.0276 -1.9164
25021SOL     OW75640   2.486   6.429   2.017 -0.0326  0.1616  0.2232
25021SOL    HW175641   2.441   6.434   2.101 -0.3066 -0.8517  0.1574
25021SOL    HW275642   2.416   6.434   1.952 -0.2036 -2.2161  0.1321
25022SOL     OW75643   3.138   3.484   1.063  0.0565 -0.1649 -0.1913
25022SOL    HW175644   3.092   3.550   1.011 -3.7145 -1.4126  1.2278
25022SOL    HW275645   3.180   3.535   1.133 -0.5637  0.9510 -0.5949
25023SOL     OW75646   1.788   2.464   1.530 -0.5746 -0.9797  0.0457
25023SOL    HW175647   1.876   2.439   1.502 -0.3905 -1.4637  1.0147
25023SOL    HW275648   1.802   2.534   1.593 -1.0374  0.8749 -1.8131
25024SOL     OW75649   0.678   4.416   8.423 -0.3177 -0.3344  0.1907
25024SOL    HW175650   0.734   4.399   8.347 -1.6017 -0.7322 -0.6933
25024SOL    HW275651   0.731   4.388   8.498  1.6693  1.6881 -0.3598
25025SOL     OW75652   4.523   7.562   7.830 -0.0909  0.5674 -0.4401
25025SOL    HW175653   4.559   7.647   7.856 -1.2422  0.5109  1.5462
25025SOL    HW275654   4.431   7.566   7.856 -0.5748 -0.7187 -1.7918
25026SOL     OW75655   0.657   7.673   6.372 -0.2700 -0.1699  0.6679
25026SOL    HW175656   0.696   7.633   6.295 -0.3402 -0.6998  0.9045
25026SOL    HW275657   0.668   7.608   6.441 -0.8582  0.0041  0.9294
25027SOL     OW75658   9.725   4.924   0.080  0.3057 -0.1987  0.2627
25027SOL    HW175659   9.630   4.917   0.083  0.1838  1.0925  0.0597
25027SOL    HW275660   9.755   4.835   0.064 -0.9566 -0.3943 -1.2547
25028SOL     OW75661   7.941   3.182   4.296  0.1092  0.1175 -0.5742
25028SOL    HW175662   7.928   3.223   4.211  0.1536 -0.1840 -0.7297
25028SOL    HW275663   7.919   3.090   4.282  0.6246 -0.0403 -0.3944
25029SOL     OW75664   7.512   6.932   9.112  0.4259 -0.2224 -1.1506
25029SOL    HW175665   7.511   6.841   9.141  2.6889  0.6419  2.2757
25029SOL    HW275666   7.560   6.931   9.029  0.5018 -2.1248 -1.1158
25030SOL     OW75667   0.561   5.880   1.092 -0.3480  0.6485  0.0979
25030SOL    HW175668   0.591   5.904   1.004  1.3503  1.4645  0.8408
25030SOL    HW275669   0.510   5.801   1.080 -1.6034  1.6780 -1.8330
25031SOL     OW75670   4.817   4.532   6.006 -0.4228  0.0861 -0.1430
25031SOL    HW175671   4.818   4.570   5.919 -1.1375 -0.2638 -0.3158
25031SOL    HW275672   4.809   4.607   6.065  4.2984  0.7749 -0.0264
25032SOL     OW75673   2.629   5.112   1.127  0.3073 -0.5614  0.8164
25032SOL    HW175674   2.628   5.184   1.064 -1.6488 -1.6075 -0.4347
25032SOL    HW275675   2.646   5.155   1.211  0.8099  1.1376 -0.1005
25033SOL     OW75676   9.908   2.490   8.472 -0.7336 -0.1851  0.1127
25033SOL    HW175677   9.985   2.435   8.463 -1.4543 -1.2794  0.4943
25033SOL    HW275678   9.834   2.431   8.457 -1.4883  1.2224 -2.3047
25034SOL     OW75679   5.543   4.758   8.726  0.2330  0.3827 -0.0755
25034SOL    HW175680   5.611   4.816   8.760 -0.4021  0.5588  0.9469
25034SOL    HW275681   5.583   4.671   8.726  0.2690  0.3881  1.0964
25035SOL     OW75682   1.095   3.217   9.063  0.5803  0.1650  0.0685
25035SOL    HW175683   1.064   3.218   9.153  0.7804 -0.3308  0.1494
25035SOL    HW275684   1.079   3.128   9.033 -0.2407  0.5527 -0.6628
25036SOL     OW75685   1.849   6.242   0.770 -0.0203  0.6185  0.0263
25036SOL    HW175686   1.896   6.220   0.850 -0.7273  0.2978  0.3647
25036SOL    HW275687   1.845   6.160   0.721 -0.9582  0.4350  0.3923
25037SOL     OW75688   2.021   5.827   2.650  0.0607 -0.2476  0.0331
25037SOL    HW175689   1.966   5.903   2.668  0.5452  0.5077 -1.5065
25037SOL    HW275690   2.110   5.855   2.671  0.2093 -0.4924 -0.2524
25038SOL     OW75691   4.231   5.948   4.765 -0.0210  0.4610 -0.4366
25038SOL    HW175692   4.307   5.933   4.822  0.8773  2.9596 -0.8531
25038SOL    HW275693   4.157   5.914   4.815  0.8911  1.4104  1.6979
25039SOL     OW75694   1.263   5.699   8.817 -0.0937  0.2163 -0.6952
25039SOL    HW175695   1.320   5.775   8.832  0.4680 -0.3214 -0.0868
25039SOL    HW275696   1.323   5.626   8.803 -0.6290 -0.4907  0.6155
25040SOL     OW75697   6.977   9.930   1.895 -0.3456  0.1657 -0.3533
25040SOL    HW175698   7.011   9.849   1.858  1.6254  0.9327 -0.3159
25040SOL    HW275699   6.913   9.902   1.961 -0.2663 -1.3091 -0.8673
25041SOL     OW75700   3.415   8.094   0.079  0.6810  0.0938  0.7594
25041SOL    HW175701   3.481   8.128   0.139 -0.0502  0.0479  1.6121
25041SOL    HW275702   3.341   8.154   0.086  0.7114  0.2939 -0.3808
25042SOL     OW75703   7.258   9.664   6.724  0.1279 -0.3416  0.0442
25042SOL    HW175704   7.288   9.682   6.813  0.5873 -1.7152  0.1977
25042SOL    HW275705   7.334   9.624   6.681 -0.4628 -0.8109 -0.5794
25043SOL     OW75706   8.936   3.278   5.758  0.3539 -0.9408  0.4143
25043SOL    HW175707   8.873   3.270   5.829  0.8725 -0.9273  0.8874
25043SOL    HW275708   8.887   3.318   5.686  0.0248 -0.1966  1.0374
25044SOL     OW75709   9.853   6.877   5.391  0.1447  0.1121  0.0982
25044SOL    HW175710   9.930   6.928   5.416  0.0032  0.3997 -0.0477
25044SOL    HW275711   9.889   6.796   5.354  0.6142  2.1232 -4.4680
25045SOL     OW75712   0.840   3.492   0.067 -0.3414 -0.7261  0.3663
25045SOL    HW175713   0.783   3.484  -0.009  1.1001 -2.0421 -0.6276
25045SOL    HW275714   0.879   3.405   0.078  0.0412 -0.3804  2.1777
25046SOL     OW75715   8.328   0.166   6.679 -0.6065  0.0799 -0.6633
25046SOL    HW175716   8.234   0.182   6.673 -0.5824  0.5745  0.1939
25046SOL    HW275717   8.368   0.252   6.667 -0.1930 -0.2783 -2.1270
25047SOL     OW75718   9.700   5.855   9.735  0.4311  0.4270  0.7712
25047SOL    HW175719   9.741   5.853   9.648 -1.1518  1.5535 -0.0548
25047SOL    HW275720   9.726   5.940   9.771 -1.5104  1.4176 -0.0016
25048SOL     OW75721   6.632   2.179   6.796 -0.2551 -0.6415  0.3654
25048SOL    HW175722   6.703   2.210   6.852  1.6722  0.1320 -2.3100
25048SOL    HW275723   6.568   2.250   6.797  0.8235  0.3846 -0.1367
25049SOL     OW75724   3.010   6.777   0.425  0.0122 -0.1768 -0.1497
25049SOL    HW175725   2.952   6.810   0.356 -0.1610  0.9264  0.4980
25049SOL    HW275726   3.046   6.696   0.389  0.9814  1.0382 -2.1089
25050SOL     OW75727   5.267   3.269   1.779 -0.0148 -0.3935 -0.0775
25050SOL    HW175728   5.320   3.330   1.830  1.6827 -0.5218 -1.5966
25050SOL    HW275729   5.313   3.185   1.786 -0.7936 -0.8471 -0.2880
25051SOL     OW75730   9.588   4.544   0.232 -0.0478 -0.1750  0.5112
25051SOL    HW175731   9.613   4.617   0.288  1.4074  0.5433 -0.9953
25051SOL    HW275732   9.670   4.499   0.213 -0.4008 -0.0629 -1.4619
25052SOL     OW75733   1.544   5.850   7.802  0.3213 -0.1531  0.3494
25052SOL    HW175734   1.626   5.814   7.768 -0.4231 -1.3681 -0.2173
25052SOL    HW275735   1.482   5.841   7.729 -0.4656  0.2237  0.9581
25053SOL     OW75736   8.718   6.811   0.895 -0.4572 -0.0503  0.1749
25053SOL    HW175737   8.710   6.829   0.802 -1.2631  1.4944  0.5132
25053SOL    HW275738   8.718   6.715   0.901 -0.5740 -0.1748 -1.3782
25054SOL     OW75739   2.800   6.096   9.386 -0.0601  0.1423 -0.3705
25054SOL    HW175740   2.771   6.005   9.379  0.8331 -0.1825 -0.0181
25054SOL    HW275741   2.810   6.110   9.480  0.4977  0.3763 -0.4636
25055SOL     OW75742   1.590   2.848   7.884  0.6663  0.0371  0.4128
25055SOL    HW175743   1.549   2.816   7.804 -0.4622 -1.7231  1.6089
25055SOL    HW275744   1.616   2.938   7.865 -1.6290  0.4215 -1.1772
25056SOL     OW75745   1.741   1.015   7.774  0.0169  0.2633 -0.0400
25056SOL    HW175746   1.804   0.984   7.839 -0.9554 -0.8535  0.4211
25056SOL    HW275747   1.659   0.971   7.798 -0.5969  0.5721 -1.4595
25057SOL     OW75748   7.808   2.723   8.387 -0.2571 -0.4155 -0.0418
25057SOL    HW175749   7.832   2.642   8.343 -0.0389  0.4955 -1.6514
25057SOL    HW275750   7.892   2.768   8.401 -0.4014 -0.3301  0.6109
25058SOL     OW75751   2.125   3.746   5.232  0.2561  0.3710  0.1028
25058SOL    HW175752   2.179   3.751   5.311  1.4186 -1.3768 -0.5075
25058SOL    HW275753   2.158   3.815   5.176  0.7926  0.3302  0.3630
25059SOL     OW75754   7.842   2.191   5.573 -0.6314  0.2442 -0.0721
25059SOL    HW175755   7.841   2.284   5.554 -2.1907  0.3609  0.4821
25059SOL    HW275756   7.759   2.158   5.539 -2.0473 -0.1463  3.3683
25060SOL     OW75757   6.715   3.647   7.449  0.3420  0.1002 -0.9836
25060SOL    HW175758   6.776   3.655   7.376  1.5582 -0.6232 -0.0854
25060SOL    HW275759   6.681   3.736   7.461  1.3285  0.5580 -1.4225
25061SOL     OW75760   3.756   9.009   1.550 -0.2935 -0.5052  1.0123
25061SOL    HW175761   3.719   9.088   1.510  0.9973 -0.5710 -0.3961
25061SOL    HW275762   3.711   8.936   1.507 -0.4810 -0.5549  1.2902
25062SOL     OW75763   5.313   4.366   1.202  0.1180  0.2230  0.0318
25062SOL    HW175764   5.263   4.419   1.264 -1.1506  0.6847 -1.3267
25062SOL    HW275765   5.368   4.429   1.155  3.7536 -0.4587  2.8844
25063SOL     OW75766   0.570   8.794   3.628 -0.3309  0.3752 -0.2339
25063SOL    HW175767   0.489   8.837   3.655  1.0801  1.5209  2.4434
25063SOL    HW275768   0.543   8.704   3.608 -2.3282  0.8559  0.0674
25064SOL     OW75769   5.888   9.750   8.879 -0.2394 -0.1573 -0.1757
25064SOL    HW175770   5.795   9.767   8.892  0.1832  0.8757  1.8476
25064SOL    HW275771   5.891   9.665   8.834 -2.1794  0.9896 -2.6990
25065SOL     OW75772   5.120   1.340   6.080  0.6671  0.2643  0.2242
25065SOL    HW175773   5.130   1.250   6.047 -0.0561  0.9370 -2.0281
25065SOL    HW275774   5.063   1.382   6.016  0.5979  2.2212  1.4961
25066SOL     OW75775   1.230   1.651   2.209  0.2627 -0.2830 -0.0711
25066SOL    HW175776   1.201   1.626   2.296 -0.9908  1.4887  0.0752
25066SOL    HW275777   1.152   1.646   2.154  1.3490 -3.0144 -1.5738
25067SOL     OW75778   8.292   1.190   1.459 -0.2226 -0.1850 -0.0640
25067SOL    HW175779   8.380   1.170   1.491 -0.1351  1.5619  0.9108
25067SOL    HW275780   8.273   1.120   1.396  0.6769 -2.2790  1.8395
25068SOL     OW75781   9.763   6.172   4.862 -0.0926  0.3876 -0.8042
25068SOL    HW175782   9.728   6.086   4.885  2.3513 -0.1850  1.2002
25068SOL    HW275783   9.827   6.154   4.793  1.9838  0.1485  1.0507
25069SOL     OW75784   3.751   5.290   0.051  0.0304  0.4936  0.6857
25069SOL    HW175785   3.807   5.213   0.053 -0.0743  0.0940 -3.1738
25069SOL    HW275786   3.665   5.259   0.080  0.5990 -0.1395  1.7236
25070SOL     OW75787   3.412   6.442   2.756 -0.2724 -0.1393  0.1759
25070SOL    HW175788   3.372   6.486   2.681  1.0301 -0.4829 -0.7520
25070SOL    HW275789   3.352   6.370   2.777 -1.0505  0.4449 -0.0007
25071SOL     OW75790   6.182   5.158   6.254  0.3247 -1.0801 -0.0899
25071SOL    HW175791   6.170   5.216   6.179  2.6637  0.4951  0.6411
25071SOL    HW275792   6.275   5.164   6.274 -0.0032 -2.4503  2.1703
25072SOL     OW75793   8.137   7.155   8.105 -0.2997  0.8258  0.3429
25072SOL    HW175794   8.129   7.166   8.010 -1.8322  2.4367  0.6006
25072SOL    HW275795   8.090   7.074   8.124  0.2028  0.3750 -0.2694
25073SOL     OW75796   2.950   8.866   5.802  0.0921  0.1899  0.4456
25073SOL    HW175797   2.859   8.885   5.827  0.0400 -0.5455  0.8339
25073SOL    HW275798   2.955   8.894   5.711 -0.3539  0.8011  0.5999
25074SOL     OW75799   3.651   9.232   7.208  0.5517 -0.1575 -0.2223
25074SOL    HW175800   3.580   9.178   7.173  0.9883 -0.6250 -0.3968
25074SOL    HW275801   3.707   9.170   7.255  2.1573 -0.2303 -2.1142
25075SOL     OW75802   0.992   5.097   2.099 -0.0153  0.1804  0.7410
25075SOL    HW175803   1.039   5.135   2.025  1.0475  0.1644  1.3988
25075SOL    HW275804   1.005   5.159   2.171  1.6776 -1.3341  1.8051
25076SOL     OW75805   7.081   2.632   2.948  0.1952 -0.0576  0.2928
25076SOL    HW175806   7.050   2.659   2.861 -0.7957  2.8194  1.4017
25076SOL    HW275807   7.003   2.597   2.991  1.0929 -3.3822 -0.5054
25077SOL     OW75808   1.470   6.349   7.439  0.1946 -0.8203 -0.1553
25077SOL    HW175809   1.560   6.367   7.465  0.3918 -0.5653 -0.9920
25077SOL    HW275810   1.420   6.424   7.474  0.2828 -0.9978  0.3699
25078SOL     OW75811   4.820   2.822   2.034  1.0492 -0.1935  0.7965
25078SOL    HW175812   4.913   2.835   2.047  1.0732  1.5382 -0.6836
25078SOL    HW275813   4.809   2.823   1.938 -0.3332 -1.6655  0.8969
25079SOL     OW75814   9.454   6.548   7.829 -0.0928 -0.3447  0.1701
25079SOL    HW175815   9.395   6.475   7.812 -1.8429  0.8797  0.7247
25079SOL    HW275816   9.437   6.611   7.759  1.6957 -0.5921 -0.5453
25080SOL     OW75817   1.854   7.795   9.278  0.1300 -0.3805 -0.1641
25080SOL    HW175818   1.877   7.750   9.196  1.2343 -0.3382  0.0968
25080SOL    HW275819   1.929   7.853   9.294 -0.4267  0.1614  0.4828
25081SOL     OW75820   3.477   6.148   3.149 -0.3501 -0.3311 -0.0687
25081SOL    HW175821   3.442   6.236   3.163 -1.3228 -0.9091  1.3160
25081SOL    HW275822   3.461   6.131   3.056 -1.4411  0.4057 -0.0381
25082SOL     OW75823   7.401   6.436   3.294 -0.0876  0.7065 -0.5130
25082SOL    HW175824   7.353   6.364   3.336  0.1899  0.0851 -1.2293
25082SOL    HW275825   7.346   6.513   3.307 -1.1240  0.0712 -1.0143
25083SOL     OW75826   6.940   7.094   0.750  0.1946 -0.4612 -0.1890
25083SOL    HW175827   6.974   7.080   0.838  0.1823  2.3754  0.3548
25083SOL    HW275828   6.899   7.010   0.726  2.0354 -1.9654  1.6130
25084SOL     OW75829   3.711   0.353   6.161  0.0016  0.5463  0.5381
25084SOL    HW175830   3.683   0.444   6.159  0.4957  0.6858 -0.2053
25084SOL    HW275831   3.806   0.357   6.159  0.0701  0.0403  1.7904
25085SOL     OW75832   1.200   8.459   5.041  0.0757  0.6631 -0.7134
25085SOL    HW175833   1.178   8.521   4.972  2.2277  1.1805 -0.9908
25085SOL    HW275834   1.295   8.453   5.039  0.0609 -0.9218  0.8308
25086SOL     OW75835   2.856   3.575   1.217 -0.2031  0.5024  0.0309
25086SOL    HW175836   2.912   3.497   1.218  1.1209  1.3652  2.7136
25086SOL    HW275837   2.918   3.648   1.218 -1.3987  1.5442  0.2018
25087SOL     OW75838   3.316   7.314   3.734  0.0986 -0.2343  0.4764
25087SOL    HW175839   3.362   7.386   3.690  1.0796 -0.6298  0.8416
25087SOL    HW275840   3.353   7.235   3.696 -0.3226 -0.5583  0.7338
25088SOL     OW75841   5.724   9.229   9.120  0.2632  0.1282 -0.5798
25088SOL    HW175842   5.693   9.165   9.057 -0.3367 -2.2521  1.9650
25088SOL    HW275843   5.814   9.203   9.140  0.7062  1.2984 -0.9080
25089SOL     OW75844   0.716   3.879   2.399  0.1296 -0.0666 -0.0697
25089SOL    HW175845   0.648   3.931   2.441 -0.5909 -0.2923 -0.9085
25089SOL    HW275846   0.708   3.792   2.438  0.1573 -0.0094  0.0636
25090SOL     OW75847   6.964   4.923   0.753 -0.1926  0.3119 -0.0531
25090SOL    HW175848   7.017   4.909   0.674 -0.3273  0.3096 -0.1445
25090SOL    HW275849   6.996   4.857   0.815 -0.5508 -0.1468 -0.3452
25091SOL     OW75850   5.131   8.384   2.540  0.3806  0.4133 -0.0700
25091SOL    HW175851   5.183   8.356   2.616 -1.4391 -0.9642  0.7452
25091SOL    HW275852   5.052   8.422   2.578 -1.4504 -2.0199 -1.1782
25092SOL     OW75853   0.904   3.009   2.358  0.0811 -0.3862  0.2715
25092SOL    HW175854   0.885   3.033   2.448  2.3356 -0.6480  0.8888
25092SOL    HW275855   0.998   3.022   2.349 -0.2987  1.3387 -2.5890
25093SOL     OW75856   4.960   9.867   6.018 -0.3192 -0.5367  0.1637
25093SOL    HW175857   4.993   9.882   6.107 -0.9386 -2.1709  0.7270
25093SOL    HW275858   5.035   9.881   5.961  0.4266 -0.7242  1.0850
25094SOL     OW75859   1.834   5.990   5.420 -0.5869  0.3115  0.1902
25094SOL    HW175860   1.881   5.916   5.382 -0.8582  0.4719 -0.4611
25094SOL    HW275861   1.902   6.056   5.434 -0.6780  0.7182 -1.1899
25095SOL     OW75862   4.224   8.559   0.269  0.3534 -0.8831 -0.3957
25095SOL    HW175863   4.245   8.612   0.345  1.2106 -0.6930 -0.7537
25095SOL    HW275864   4.262   8.473   0.288 -1.8724 -1.7374  0.6238
25096SOL     OW75865   8.279   1.230   6.434  0.3726 -0.3753 -0.6174
25096SOL    HW175866   8.353   1.255   6.489 -0.2445 -0.3191  0.2083
25096SOL    HW275867   8.292   1.136   6.419  1.8201  0.0681 -2.3817
25097SOL     OW75868   3.138   1.532   5.996  0.0582  0.2507  0.5181
25097SOL    HW175869   3.182   1.447   5.997  0.6961  0.5741  0.4466
25097SOL    HW275870   3.149   1.566   6.084  0.6383  0.6753  0.2871
25098SOL     OW75871   5.840   2.025   7.206 -0.0166  0.0204  0.2621
25098SOL    HW175872   5.829   2.058   7.117 -0.4570 -0.3431  0.1764
25098SOL    HW275873   5.918   2.069   7.239 -0.4047  0.8844  0.0368
25099SOL     OW75874   0.226   1.876   7.508 -0.3859  0.5109  0.0145
25099SOL    HW175875   0.284   1.948   7.481  0.1175  0.0700 -0.0891
25099SOL    HW275876   0.223   1.883   7.604  0.1550  0.3003  0.0521
25100SOL     OW75877   3.935   9.718   8.855  0.5573  0.6287  0.1689
25100SOL    HW175878   3.915   9.751   8.767  0.1466 -0.1814 -0.0479
25100SOL    HW275879   3.983   9.637   8.839 -0.5920 -0.1774  0.6781
25101SOL     OW75880   9.257   5.927   6.346  0.0476  0.1847  0.2634
25101SOL    HW175881   9.291   5.846   6.384  2.0439  1.1279  0.6302
25101SOL    HW275882   9.180   5.900   6.297 -0.7713 -1.5742  2.3231
25102SOL     OW75883   7.279   7.402   3.275 -0.2744  0.1707 -0.1255
25102SOL    HW175884   7.190   7.366   3.278 -0.1489 -0.2145 -0.8016
25102SOL    HW275885   7.267   7.492   3.246 -0.2172 -0.8979 -3.9202
25103SOL     OW75886   4.217   0.620   1.304  0.2977 -0.9077  0.0733
25103SOL    HW175887   4.259   0.677   1.368 -2.1355 -0.7750  1.6777
25103SOL    HW275888   4.176   0.679   1.241 -0.2828 -0.9298  0.4244
25104SOL     OW75889   0.205   7.419   2.529 -0.0124 -0.5766 -0.1384
25104SOL    HW175890   0.165   7.455   2.608 -0.3090  0.3022 -0.6718
25104SOL    HW275891   0.162   7.335   2.516 -0.6029 -0.3171  0.1324
25105SOL     OW75892   0.663   6.620   1.627  0.3404  0.7496  0.0427
25105SOL    HW175893   0.693   6.709   1.648  3.1278 -0.6448  2.7953
25105SOL    HW275894   0.572   6.618   1.658 -0.3186  3.0071 -1.4931
25106SOL     OW75895   1.256   8.806   5.854 -0.3694  0.1534 -0.4007
25106SOL    HW175896   1.233   8.778   5.943  2.3953  1.0775  0.7036
25106SOL    HW275897   1.297   8.892   5.865  0.7706 -0.0576 -2.4512
25107SOL     OW75898   0.861   5.987   7.494  0.0455  0.1514  0.5365
25107SOL    HW175899   0.927   6.047   7.459 -0.7839 -0.2474 -1.9690
25107SOL    HW275900   0.857   6.007   7.587  0.0954  3.6900 -0.0917
25108SOL     OW75901   4.314   5.306   8.953  0.6040 -0.2991 -0.5253
25108SOL    HW175902   4.273   5.328   9.037  0.3270 -1.5835 -0.3042
25108SOL    HW275903   4.283   5.375   8.893 -0.9558 -0.5701 -0.0882
25109SOL     OW75904   0.795   7.562   2.549  0.0101 -0.2796  0.1302
25109SOL    HW175905   0.717   7.574   2.604 -0.0741 -0.2393  0.0018
25109SOL    HW275906   0.853   7.507   2.601  0.3710  0.6130  0.7136
25110SOL     OW75907   5.241   9.972   8.010  0.0926  0.0821  0.1493
25110SOL    HW175908   5.166   9.913   8.018  1.4635 -1.6278  1.0440
25110SOL    HW275909   5.252   9.985   7.916 -0.8093 -0.3106 -0.0194
25111SOL     OW75910   5.472   4.503   4.361 -0.4535  0.2623 -0.1166
25111SOL    HW175911   5.556   4.512   4.316 -0.6990 -0.1008 -0.6600
25111SOL    HW275912   5.441   4.417   4.336 -1.4143  0.7536 -0.6412
25112SOL     OW75913   0.188   2.529   4.376 -0.0301 -0.0922  0.6386
25112SOL    HW175914   0.217   2.438   4.389 -2.4448 -0.7796  1.7312
25112SOL    HW275915   0.157   2.557   4.462  0.7164  1.8338  0.3327
25113SOL     OW75916   9.901   2.064   2.308  0.0694  0.1698  0.0815
25113SOL    HW175917   9.862   1.978   2.289  0.3533 -0.0938  0.6642
25113SOL    HW275918   9.829   2.114   2.347 -1.3683  1.6661 -3.9524
25114SOL     OW75919   6.182   9.475   7.209  0.0396 -0.3592  0.3207
25114SOL    HW175920   6.250   9.430   7.259  0.4429 -0.0888  0.0305
25114SOL    HW275921   6.177   9.562   7.248  1.0269  0.1759 -0.6893
25115SOL     OW75922   3.495   7.172   2.123  0.1795  0.2173  0.0436
25115SOL    HW175923   3.479   7.257   2.165 -0.3009 -0.9200  2.3638
25115SOL    HW275924   3.590   7.163   2.121  0.3394 -0.8846  3.8465
25116SOL     OW75925   0.930   5.091   0.218 -0.2150  0.0718 -0.2396
25116SOL    HW175926   0.923   5.003   0.180 -1.1973  0.3722 -0.8027
25116SOL    HW275927   0.994   5.136   0.162  2.2785 -1.0009  1.5539
25117SOL     OW75928   0.675   1.056   9.533  0.0191 -0.2724 -0.0263
25117SOL    HW175929   0.734   1.119   9.575 -0.1154  1.4334 -2.2483
25117SOL    HW275930   0.588   1.093   9.544 -0.1104 -0.2753 -1.0073
25118SOL     OW75931   6.581   6.746   5.373 -0.1409  0.5481  0.1781
25118SOL    HW175932   6.556   6.774   5.285 -0.6543 -0.9469 -0.1799
25118SOL    HW275933   6.676   6.730   5.367 -0.4152 -1.0373 -0.5738
25119SOL     OW75934   3.420   2.863   8.712 -0.0424 -0.3909  0.2888
25119SOL    HW175935   3.334   2.864   8.669 -0.2459 -1.3347  0.6488
25119SOL    HW275936   3.460   2.781   8.682  1.9594  1.3699 -2.2057
25120SOL     OW75937   3.641   6.206   0.311  0.3818 -0.0163  0.4763
25120SOL    HW175938   3.663   6.242   0.396  0.4070  1.3897 -0.0987
25120SOL    HW275939   3.563   6.255   0.283  0.3066 -0.5326 -0.2620
25121SOL     OW75940   5.884   8.523   6.443 -0.4257 -0.4914  0.1822
25121SOL    HW175941   5.792   8.504   6.427  0.0194 -2.1454 -0.6138
25121SOL    HW275942   5.931   8.462   6.387  1.1653  0.3115  0.5885
25122SOL     OW75943   8.674   8.778   9.543  0.2373 -0.3935  0.2245
25122SOL    HW175944   8.620   8.847   9.580  0.6725  0.2966 -0.3818
25122SOL    HW275945   8.701   8.812   9.457  1.2909 -0.8816  0.3377
25123SOL     OW75946   5.701   8.583   2.484 -0.0770 -0.4186  0.2102
25123SOL    HW175947   5.692   8.636   2.405  2.0652 -2.1771 -1.3272
25123SOL    HW275948   5.779   8.618   2.528 -0.3047 -0.5141  0.7014
25124SOL     OW75949   4.167   6.813   1.367 -0.2911 -0.2828  0.6466
25124SOL    HW175950   4.176   6.778   1.279  1.6511  0.0316  0.6839
25124SOL    HW275951   4.081   6.782   1.396 -2.0027  1.4394 -2.1411
25125SOL     OW75952   2.585   7.538   0.043  0.0673 -0.3416 -0.3972
25125SOL    HW175953   2.530   7.569  -0.028  1.5137  0.8541 -1.0454
25125SOL    HW275954   2.654   7.604   0.051  1.9357 -2.1958 -0.2385
25126SOL     OW75955   7.609   5.642   7.522 -0.1674  0.1908 -0.3902
25126SOL    HW175956   7.582   5.648   7.613 -0.3996 -2.5191 -0.1886
25126SOL    HW275957   7.704   5.629   7.525  0.0023  1.3065 -0.6231
25127SOL     OW75958   8.570   1.092   5.820 -0.1913 -0.5014  0.1115
25127SOL    HW175959   8.648   1.054   5.779  2.1124  0.9409  2.8215
25127SOL    HW275960   8.552   1.171   5.769 -1.2069 -1.8492 -1.7412
25128SOL     OW75961   5.306   0.646   8.840  0.1830 -0.2527  0.0857
25128SOL    HW175962   5.271   0.559   8.859  0.6511 -0.3273  0.6126
25128SOL    HW275963   5.353   0.636   8.758 -0.5945 -0.2648 -0.3765
25129SOL     OW75964   0.036   2.064   3.403  0.2092 -0.0051 -0.1536
25129SOL    HW175965   0.122   2.026   3.384 -0.0315 -0.4354 -0.4028
25129SOL    HW275966   0.055   2.154   3.428  0.6435  0.2283 -1.2531
25130SOL     OW75967   8.654   6.168   2.048  0.1508  0.3727  0.3708
25130SOL    HW175968   8.737   6.186   2.003  0.2439 -1.1131 -0.0918
25130SOL    HW275969   8.602   6.120   1.984 -0.6829  0.4093  1.0072
25131SOL     OW75970   8.786   0.609   9.654  0.0089  0.7761 -0.0116
25131SOL    HW175971   8.745   0.554   9.587 -0.6282  1.5726 -0.2908
25131SOL    HW275972   8.781   0.698   9.618 -0.4740  1.2404  1.1563
25132SOL     OW75973   5.712   6.474   7.941  0.1555  0.0456  0.2192
25132SOL    HW175974   5.778   6.475   7.872  0.4799  0.0044  0.5245
25132SOL    HW275975   5.762   6.462   8.022 -0.1415  0.8925  0.5404
25133SOL     OW75976   2.086   2.584   2.189  0.3044 -0.0036 -0.1329
25133SOL    HW175977   2.001   2.542   2.182 -1.0226  2.7127 -3.0421
25133SOL    HW275978   2.124   2.550   2.271 -2.6171 -2.8516  0.2259
25134SOL     OW75979   3.441   9.739   9.016  0.4578  0.1960  0.0877
25134SOL    HW175980   3.417   9.742   8.924  0.3070  0.8241  0.1416
25134SOL    HW275981   3.527   9.698   9.017  1.6008  2.4339 -0.5804
25135SOL     OW75982   5.620   4.491   3.159  0.4475 -0.0005 -0.7211
25135SOL    HW175983   5.665   4.529   3.083  0.8145 -0.4920 -0.7604
25135SOL    HW275984   5.689   4.447   3.208  0.3549  1.0175  0.3614
25136SOL     OW75985   7.375   5.579   5.707 -0.1570  0.3497  0.0448
25136SOL    HW175986   7.374   5.635   5.630 -0.1721  0.6118  0.2355
25136SOL    HW275987   7.303   5.612   5.762  0.2020  0.5153  0.4226
25137SOL     OW75988   8.711   9.951   8.270 -0.1413  0.1252  0.3482
25137SOL    HW175989   8.723  10.017   8.202 -2.2469  0.6791  0.4426
25137SOL    HW275990   8.707   9.868   8.222  0.3878  0.2984  0.0021
25138SOL     OW75991   1.493   1.460   3.717 -0.6704  0.2492  0.7218
25138SOL    HW175992   1.574   1.494   3.678 -0.3623  0.2113  1.3115
25138SOL    HW275993   1.503   1.477   3.811 -0.1943 -2.0988  1.1391
25139SOL     OW75994   4.268   0.235   5.652 -0.4862 -0.1172  0.0275
25139SOL    HW175995   4.212   0.164   5.683 -1.9083  0.6152 -0.7210
25139SOL    HW275996   4.357   0.204   5.665 -1.0629 -2.0075 -0.2196
25140SOL     OW75997   5.820   8.023   7.779  0.2026 -0.4055  0.1371
25140SOL    HW175998   5.850   8.027   7.688 -0.5661  0.7905 -0.0802
25140SOL    HW275999   5.901   8.014   7.830  0.8918  1.5664 -0.5114
25141SOL     OW76000   2.821   3.862   3.726 -0.3848  0.0223 -0.7021
25141SOL    HW176001   2.782   3.798   3.666 -1.5594  0.6789 -0.6701
25141SOL    HW276002   2.765   3.939   3.718  0.5117  0.7543 -0.1062
25142SOL     OW76003   1.150   9.443   9.800 -0.1235 -0.3008 -0.1806
25142SOL    HW176004   1.221   9.452   9.736  1.1085 -1.5208  0.9473
25142SOL    HW276005   1.107   9.529   9.800  3.1074  1.5153  1.0816
25143SOL     OW76006   7.172   7.276   7.890 -0.4922 -0.1584 -0.8271
25143SOL    HW176007   7.207   7.203   7.942 -0.9769  0.3427  0.2345
25143SOL    HW276008   7.077   7.259   7.887 -0.5863  0.3304 -0.7104
25144SOL     OW76009   2.968   6.283   7.240 -0.0356 -0.1401  0.0560
25144SOL    HW176010   2.926   6.211   7.286 -2.8370  0.9952 -0.5188
25144SOL    HW276011   2.998   6.342   7.309 -0.3545 -0.4746  0.4812
25145SOL     OW76012   7.071   8.891   2.054 -0.3423  0.1229  0.1720
25145SOL    HW176013   7.158   8.907   2.018 -0.3779  1.0186  0.4651
25145SOL    HW276014   7.082   8.903   2.149 -0.7027 -0.1622  0.2526
25146SOL     OW76015   1.408   5.795   0.074 -0.3312 -0.5969 -0.4401
25146SOL    HW176016   1.400   5.704   0.045  1.5794 -1.0332  0.2356
25146SOL    HW276017   1.438   5.843  -0.003 -0.2654 -0.7568 -0.5146
25147SOL     OW76018   9.796   8.673   9.198  0.4151  0.0088 -0.4404
25147SOL    HW176019   9.746   8.632   9.128  0.0782  0.5686 -0.5273
25147SOL    HW276020   9.866   8.610   9.217 -1.9744 -2.2006  1.7279
25148SOL     OW76021   6.402   6.668   4.470 -0.3243  0.2357 -0.1106
25148SOL    HW176022   6.386   6.681   4.564 -1.5487 -0.1053 -0.2470
25148SOL    HW276023   6.320   6.632   4.437  0.7030 -1.3951 -0.9924
25149SOL     OW76024   5.057   3.310   2.353  0.1599  0.0314 -0.1036
25149SOL    HW176025   4.987   3.281   2.411  0.4407  0.2145  0.3310
25149SOL    HW276026   5.018   3.308   2.266  0.7704 -3.7090 -0.4408
25150SOL     OW76027   3.547   4.346   8.227 -0.0611  0.1253  0.2198
25150SOL    HW176028   3.457   4.377   8.233  0.1326  0.4644  1.5922
25150SOL    HW276029   3.588   4.404   8.163 -0.7346  0.1447 -0.2015
25151SOL     OW76030   6.847   4.592   3.971  0.4286 -0.4747  0.1954
25151SOL    HW176031   6.773   4.532   3.971 -0.3803  0.4854  0.1240
25151SOL    HW276032   6.809   4.676   3.943  1.4328  0.1596  0.6913
25152SOL     OW76033   5.611   1.647   6.866  0.1710  0.4015  0.3550
25152SOL    HW176034   5.582   1.570   6.914 -1.0667  0.0987 -0.7961
25152SOL    HW276035   5.635   1.614   6.779 -0.9346  1.3542 -0.3480
25153SOL     OW76036   7.280   6.119   5.161  0.0798  0.0848  0.5971
25153SOL    HW176037   7.193   6.140   5.193  0.2395 -1.3493  2.1035
25153SOL    HW276038   7.336   6.186   5.200 -0.2257  0.5240  0.2908
25154SOL     OW76039   4.706   0.185   1.458 -0.0917 -0.5716  0.1104
25154SOL    HW176040   4.691   0.093   1.478  0.0149 -0.6185 -0.0304
25154SOL    HW276041   4.655   0.201   1.379  1.3931 -0.9878 -0.9792
25155SOL     OW76042   6.825   2.047   5.754 -0.1198  0.1392  0.2106
25155SOL    HW176043   6.766   2.026   5.826 -0.4873 -0.1986 -0.1879
25155SOL    HW276044   6.781   2.116   5.705 -0.5503 -0.6277 -0.5195
25156SOL     OW76045   2.583   6.824   8.220  0.2652 -0.5056 -0.3031
25156SOL    HW176046   2.610   6.735   8.201 -1.2016 -1.2868  1.0514
25156SOL    HW276047   2.490   6.826   8.198  0.4219  0.9155 -0.9698
25157SOL     OW76048   6.984   3.086   1.047 -0.0010  0.7353  0.6067
25157SOL    HW176049   6.940   3.166   1.020  0.8527  1.0246  0.0466
25157SOL    HW276050   7.065   3.084   0.996 -0.6176 -1.1552 -0.4072
25158SOL     OW76051   8.235   2.794   2.486 -0.0342 -0.6566 -0.5205
25158SOL    HW176052   8.327   2.781   2.509 -0.3538 -1.2149  0.5043
25158SOL    HW276053   8.237   2.861   2.418  1.0241  0.7089  0.7862
25159SOL     OW76054   5.527   7.825   8.352  0.6976  0.0217 -0.3238
25159SOL    HW176055   5.585   7.769   8.405  1.5097  0.4246 -0.7698
25159SOL    HW276056   5.471   7.763   8.304  0.1579 -0.3562  0.7526
25160SOL     OW76057   5.563   0.623   9.495 -0.0205  0.2795 -0.4676
25160SOL    HW176058   5.508   0.597   9.569 -0.4518 -0.2844 -0.9829
25160SOL    HW276059   5.651   0.597   9.520 -0.2543 -0.4672 -0.4060
25161SOL     OW76060   0.995   5.556   3.638 -0.1065 -0.3181  0.1827
25161SOL    HW176061   0.941   5.635   3.651 -0.1080  0.0899 -1.8799
25161SOL    HW276062   1.073   5.571   3.692 -0.1696  1.0569 -0.0660
25162SOL     OW76063   0.840   2.229   3.870 -0.0300 -0.7613  0.0394
25162SOL    HW176064   0.809   2.138   3.877  0.7090 -1.0517 -0.3409
25162SOL    HW276065   0.777   2.271   3.811 -0.5623 -0.9338  0.4693
25163SOL     OW76066   3.576   0.123   6.313 -0.5045 -0.3002  0.4676
25163SOL    HW176067   3.626   0.195   6.274  1.5644 -1.3104  1.1489
25163SOL    HW276068   3.514   0.167   6.372 -1.0742  1.0231 -1.0346
25164SOL     OW76069   2.459   8.282   3.555 -0.1086 -0.1344 -0.0189
25164SOL    HW176070   2.492   8.328   3.632 -1.8149 -0.5756  1.0376
25164SOL    HW276071   2.487   8.335   3.481  2.8228 -0.4410  0.7418
25165SOL     OW76072   4.017   3.769   5.558 -0.2682  0.2922  0.4614
25165SOL    HW176073   4.084   3.700   5.565 -0.5357  0.0574  0.7191
25165SOL    HW276074   3.998   3.793   5.649 -1.6817 -0.7589  0.4784
25166SOL     OW76075   7.946   8.150   3.790  0.0696  0.1867 -0.1831
25166SOL    HW176076   7.927   8.134   3.882 -0.4091 -0.2897 -0.3601
25166SOL    HW276077   7.996   8.073   3.762  1.0351  0.7579 -0.0949
25167SOL     OW76078   3.561   0.683   3.573  0.0378  0.3517 -0.3075
25167SOL    HW176079   3.617   0.741   3.626  1.3610 -0.0555 -1.2271
25167SOL    HW276080   3.589   0.699   3.483 -2.3402  1.2048 -0.9717
25168SOL     OW76081   5.680   7.157   7.224 -0.2568 -0.2100  0.9663
25168SOL    HW176082   5.675   7.064   7.200 -0.0794  0.4010 -1.7821
25168SOL    HW276083   5.774   7.174   7.229 -0.1761  0.3600 -1.2897
25169SOL     OW76084   2.215   3.109   4.254 -0.4163 -0.4315  0.3199
25169SOL    HW176085   2.212   3.028   4.305  1.0664 -1.2701 -0.8322
25169SOL    HW276086   2.250   3.174   4.315 -0.3947 -0.9787  0.8997
25170SOL     OW76087   0.012   8.779   3.279 -0.5072 -0.7060 -0.1497
25170SOL    HW176088   0.083   8.812   3.334 -1.2706  2.9900 -1.0572
25170SOL    HW276089   0.050   8.705   3.232  1.8976 -0.4683  1.2566
25171SOL     OW76090   6.005   3.980   2.320  0.2844  0.0093 -0.1747
25171SOL    HW176091   5.999   4.074   2.337  1.9955  0.4750 -1.8826
25171SOL    HW276092   6.084   3.970   2.267 -0.3658 -2.2955 -0.8116
25172SOL     OW76093   6.340   3.219   1.370  0.0677  0.1139  0.2069
25172SOL    HW176094   6.258   3.266   1.354  0.8600  1.5353  0.1269
25172SOL    HW276095   6.313   3.139   1.415 -1.6029 -0.7559 -2.1228
25173SOL     OW76096   6.028   5.450   0.866 -0.4119  0.0850  0.5779
25173SOL    HW176097   6.051   5.385   0.800  0.0224 -2.4707  3.0800
25173SOL    HW276098   6.112   5.484   0.898 -0.5376 -0.0463  1.0635
25174SOL     OW76099   2.135   8.170   5.097 -0.2139  0.3975 -0.0964
25174SOL    HW176100   2.197   8.177   5.170 -0.8425  1.8534  0.3357
25174SOL    HW276101   2.142   8.079   5.069  0.1672 -0.1718  1.6730
25175SOL     OW76102   2.936   0.770   8.725 -0.4815  0.3418 -0.2482
25175SOL    HW176103   2.954   0.683   8.762 -2.6091 -0.6473 -1.3995
25175SOL    HW276104   2.975   0.831   8.788  0.6376 -1.4081  0.8443
25176SOL     OW76105   0.350   0.077   7.290 -0.1217 -0.0802  0.2402
25176SOL    HW176106   0.376  -0.002   7.244 -0.8008  0.1354 -0.5410
25176SOL    HW276107   0.254   0.077   7.285 -0.1507  0.5466  0.6422
25177SOL     OW76108   4.585   6.669   7.791 -0.1834  0.0610 -0.4326
25177SOL    HW176109   4.580   6.574   7.777  0.5956  0.0145 -0.4312
25177SOL    HW276110   4.506   6.703   7.749  0.4737 -0.4012 -2.1094
25178SOL     OW76111   9.794   6.590   6.987  0.0339  0.7040  0.3881
25178SOL    HW176112   9.732   6.564   6.919 -0.0714 -0.2691  0.8406
25178SOL    HW276113   9.821   6.678   6.963 -1.3670  1.0638  0.0636
25179SOL     OW76114   8.909   9.961   5.714 -0.3815 -0.1414  0.8606
25179SOL    HW176115   8.832   9.908   5.734  0.4064 -4.2752 -4.7466
25179SOL    HW276116   8.885  10.008   5.634  1.1751  3.2534  2.2115
25180SOL     OW76117   0.055   9.440   5.427  0.5912  0.0554 -0.0487
25180SOL    HW176118   0.089   9.423   5.515 -2.5263 -1.4353  0.9831
25180SOL    HW276119   0.038   9.354   5.389  0.7013  0.6892 -1.6591
25181SOL     OW76120   3.696   4.078   0.787  0.6268 -1.1583 -0.2215
25181SOL    HW176121   3.695   3.999   0.840 -1.3029 -1.8188 -1.1674
25181SOL    HW276122   3.747   4.055   0.709 -0.0131 -1.5002 -0.5388
25182SOL     OW76123   3.644   4.873   9.330  0.2547 -0.0167 -0.1169
25182SOL    HW176124   3.677   4.858   9.241  1.1601  2.6834 -0.3267
25182SOL    HW276125   3.641   4.785   9.369  1.9603 -1.0595 -2.0786
25183SOL     OW76126   8.270   7.750   1.872  0.0782  0.0439  0.0040
25183SOL    HW176127   8.192   7.707   1.837 -0.1054 -0.1611  0.6611
25183SOL    HW276128   8.260   7.745   1.967  1.2454 -0.6315  0.1037
25184SOL     OW76129   6.404   4.455   7.391  0.3468  0.2234 -0.0118
25184SOL    HW176130   6.479   4.512   7.374  1.7653 -1.0123  1.6678
25184SOL    HW276131   6.369   4.434   7.304  2.2052  0.5285 -0.8720
25185SOL     OW76132   1.541   0.981   3.216 -0.3838 -0.0973  0.2557
25185SOL    HW176133   1.566   0.925   3.143  0.2203 -0.6148  0.8529
25185SOL    HW276134   1.595   0.951   3.289 -2.3523 -0.9034  1.4564
25186SOL     OW76135   9.873   3.562   1.632 -0.1968 -0.0253 -0.0283
25186SOL    HW176136   9.796   3.507   1.636  0.1352 -0.5675 -0.8296
25186SOL    HW276137   9.841   3.647   1.602 -0.4968 -0.2138 -0.2375
25187SOL     OW76138   1.440   2.644   3.991  0.2403 -0.2183 -0.5022
25187SOL    HW176139   1.375   2.656   4.061 -0.4377  0.6445 -1.2519
25187SOL    HW276140   1.396   2.589   3.927  1.4524 -2.4288  0.4528
25188SOL     OW76141   1.071   7.217   0.555 -0.3178 -0.0950 -0.3658
25188SOL    HW176142   0.985   7.177   0.572  0.0622 -0.7382  0.1010
25188SOL    HW276143   1.116   7.212   0.639 -0.0470  0.8191 -0.4486
25189SOL     OW76144   0.331   3.240   5.864 -0.3559  0.4333  0.3303
25189SOL    HW176145   0.326   3.299   5.790  0.2195  1.2612  0.9283
25189SOL    HW276146   0.251   3.258   5.915  0.1473  1.2149  0.8704
25190SOL     OW76147   9.326   8.358   7.388  0.1456 -0.2885 -0.1998
25190SOL    HW176148   9.392   8.354   7.319  1.0903  1.8225  0.5195
25190SOL    HW276149   9.365   8.311   7.462 -0.6094 -1.9932 -0.8214
25191SOL     OW76150   7.191   2.716   6.302 -0.2739 -0.2857  0.1752
25191SOL    HW176151   7.149   2.730   6.217  1.5803  0.6963 -0.6309
25191SOL    HW276152   7.284   2.734   6.287  0.2229 -0.7789  2.2564
25192SOL     OW76153   6.727   7.701   1.621  0.6059  0.2102 -0.0605
25192SOL    HW176154   6.791   7.647   1.574 -0.9354  0.1735 -2.3024
25192SOL    HW276155   6.659   7.639   1.647  0.1929  0.6267 -0.1293
25193SOL     OW76156   4.127   5.364   9.627 -0.1233 -0.3281  0.3179
25193SOL    HW176157   4.040   5.333   9.602  0.6743 -0.5025 -2.5563
25193SOL    HW276158   4.111   5.448   9.670 -1.7684 -0.9085  0.9146
25194SOL     OW76159   6.166   7.338   5.270  0.3099 -0.0966 -0.7933
25194SOL    HW176160   6.148   7.404   5.204 -1.3997  1.0284  0.7031
25194SOL    HW276161   6.225   7.381   5.332 -0.4627 -0.0945 -0.0437
25195SOL     OW76162   9.322   2.981   9.625  0.1500  0.8951  0.1361
25195SOL    HW176163   9.258   2.920   9.663  1.3645  0.4607  1.6121
25195SOL    HW276164   9.270   3.042   9.574 -1.1463 -1.3193 -1.3810
25196SOL     OW76165   7.724   1.048   7.868 -0.8026 -0.2676 -0.5467
25196SOL    HW176166   7.807   1.046   7.820  0.4905  0.3348  1.5477
25196SOL    HW276167   7.742   1.001   7.949 -2.9694 -1.3781 -0.6474
25197SOL     OW76168   5.109   9.065   7.184  0.3629  0.0314  0.1755
25197SOL    HW176169   5.136   9.084   7.094 -1.0681  1.4726  0.0168
25197SOL    HW276170   5.165   8.991   7.210  2.4249  1.0414 -1.0858
25198SOL     OW76171   3.887   5.885   7.549 -0.4235 -0.3849 -0.6141
25198SOL    HW176172   3.903   5.863   7.457  4.9990 -2.5368  0.4669
25198SOL    HW276173   3.874   5.800   7.592  1.6999  0.0493  1.0972
25199SOL     OW76174   5.904   6.546   3.158  0.7245  0.2816 -0.4405
25199SOL    HW176175   5.825   6.492   3.158  0.3392  0.7509  1.6789
25199SOL    HW276176   5.958   6.511   3.088 -0.3242 -1.6457 -0.3268
25200SOL     OW76177   3.882   7.161   7.875 -0.0366  0.4938  0.0628
25200SOL    HW176178   3.836   7.185   7.955  1.0655  0.7013  0.6612
25200SOL    HW276179   3.843   7.077   7.849  0.3727 -0.1785  1.4941
25201SOL     OW76180   7.956   3.877   7.996  0.3527 -0.1467 -0.9467
25201SOL    HW176181   7.913   3.911   8.075  0.2334 -0.1847 -0.9966
25201SOL    HW276182   7.986   3.789   8.022 -0.6760 -0.6166 -1.2943
25202SOL     OW76183   2.899   7.788   6.170 -0.0440  0.1564  0.1057
25202SOL    HW176184   2.948   7.862   6.134  0.8126 -0.6084 -0.3199
25202SOL    HW276185   2.807   7.817   6.167  0.2874  1.2166 -0.0021
25203SOL     OW76186   2.709   7.432   3.289  1.4223 -0.0573 -0.1546
25203SOL    HW176187   2.650   7.496   3.248  0.4491  0.4017  1.8473
25203SOL    HW276188   2.730   7.371   3.219 -1.3586 -0.1910 -0.9917
25204SOL     OW76189   6.396   9.334   1.266 -0.3921 -0.2997 -0.3406
25204SOL    HW176190   6.393   9.429   1.253 -0.3720 -0.6370 -3.5263
25204SOL    HW276191   6.463   9.321   1.333  0.0248  1.8719 -0.2749
25205SOL     OW76192   3.593   0.860   7.895 -0.2573 -0.4493 -0.4770
25205SOL    HW176193   3.585   0.872   7.800 -0.6729 -2.5728 -0.7711
25205SOL    HW276194   3.677   0.900   7.917  1.2797 -2.4090 -2.3026
25206SOL     OW76195   1.390   6.571   9.105 -0.0934 -0.2855 -0.2389
25206SOL    HW176196   1.391   6.482   9.141  0.5071 -0.2716 -0.2000
25206SOL    HW276197   1.300   6.585   9.077 -0.2369 -0.8383 -0.0706
25207SOL     OW76198   6.907   2.103   1.019  0.1327 -0.0742 -0.3509
25207SOL    HW176199   6.853   2.037   1.063  1.3330 -0.3841  0.7137
25207SOL    HW276200   6.950   2.055   0.948  0.7389 -0.3628  0.2079
25208SOL     OW76201   4.380   8.431   9.649 -0.0209 -0.5533  0.1958
25208SOL    HW176202   4.359   8.487   9.574  1.4028 -1.1881 -0.7295
25208SOL    HW276203   4.474   8.446   9.664  0.5082 -2.9035 -0.3372
25209SOL     OW76204   4.682   3.286   6.445  0.0607 -0.3051  0.0669
25209SOL    HW176205   4.602   3.314   6.400 -1.6937  1.6439  3.9357
25209SOL    HW276206   4.726   3.368   6.469  2.0892 -1.3123  0.0079
25210SOL     OW76207   3.600   0.514   5.788  0.1399  0.2999 -0.4792
25210SOL    HW176208   3.517   0.556   5.765 -1.1284 -0.1976  2.5777
25210SOL    HW276209   3.574   0.427   5.819  1.7972  0.0878  0.4138
25211SOL     OW76210   9.035   6.471   7.073  0.6105 -0.0686  0.8659
25211SOL    HW176211   9.005   6.413   7.143 -1.1791 -0.3115 -0.0450
25211SOL    HW276212   9.040   6.415   6.995  1.3480  0.4551  0.5284
25212SOL     OW76213   1.225   2.569   5.292 -0.2157 -0.4028  0.4507
25212SOL    HW176214   1.165   2.520   5.235 -2.3685 -0.2363  2.4226
25212SOL    HW276215   1.258   2.639   5.237  1.0489 -2.5437 -1.7379
25213SOL     OW76216   9.616   2.773   0.010  0.5450 -0.0490 -0.5410
25213SOL    HW176217   9.698   2.753   0.055  0.1025  2.3650  1.6146
25213SOL    HW276218   9.631   2.860  -0.029 -0.4789 -0.2843 -1.4985
25214SOL     OW76219   7.109   4.324   0.779  0.1790  0.0992 -0.2644
25214SOL    HW176220   7.158   4.254   0.821 -0.8226 -1.0973 -1.0312
25214SOL    HW276221   7.041   4.347   0.843  0.5675  0.4534  0.0266
25215SOL     OW76222   1.245   0.867   2.512 -0.5132  0.1364  0.0823
25215SOL    HW176223   1.328   0.859   2.559 -0.0490  1.3711 -0.4944
25215SOL    HW276224   1.179   0.869   2.581 -0.0465 -0.5629  0.5627
25216SOL     OW76225   1.924   2.351   4.916 -0.0323  0.2949  0.1786
25216SOL    HW176226   1.942   2.414   4.985  0.5753  2.0122 -1.4639
25216SOL    HW276227   1.976   2.274   4.939  1.7801  1.5891  0.5582
25217SOL     OW76228   9.677   4.952   7.729  0.1125 -0.7232 -0.2756
25217SOL    HW176229   9.728   4.900   7.792  0.8690  0.7803  0.4145
25217SOL    HW276230   9.616   5.001   7.784  0.2967  0.0773 -0.7786
25218SOL     OW76231   7.854   3.458   7.969  0.6190 -0.6578 -0.0882
25218SOL    HW176232   7.919   3.478   7.902  0.4812 -3.1090 -1.0621
25218SOL    HW276233   7.771   3.451   7.920 -0.0922  0.6361  0.8648
25219SOL     OW76234   9.783   3.409   5.313  0.3474 -0.1396 -0.4901
25219SOL    HW176235   9.772   3.321   5.351  1.3337  0.0529  0.2901
25219SOL    HW276236   9.801   3.465   5.389  2.0002  0.3309 -1.2101
25220SOL     OW76237   6.570   4.978   4.340  0.4470 -0.5594  0.2313
25220SOL    HW176238   6.646   5.021   4.299  0.5881 -1.5732 -0.6053
25220SOL    HW276239   6.512   5.051   4.364  0.6160  0.1030 -1.2744
25221SOL     OW76240   3.040   1.496   9.163 -0.4954 -0.3071 -0.1053
25221SOL    HW176241   3.020   1.563   9.098 -0.2363  0.0970  0.2282
25221SOL    HW276242   3.058   1.544   9.243 -3.0099 -0.8841  0.8902
25222SOL     OW76243   6.780   4.962   2.322 -0.5060  0.0879 -0.1031
25222SOL    HW176244   6.754   4.932   2.409 -0.5998  1.4725  0.3838
25222SOL    HW276245   6.721   5.036   2.304 -0.2429  0.0509 -1.1846
25223SOL     OW76246   6.664   4.561   7.597  0.4784 -0.2588 -0.3585
25223SOL    HW176247   6.573   4.577   7.571  0.5324 -1.8758 -1.7591
25223SOL    HW276248   6.697   4.501   7.530  2.1701 -0.7920  0.9018
25224SOL     OW76249   6.100   3.827   1.954  0.3955  0.0201  0.3110
25224SOL    HW176250   6.115   3.849   1.862  0.5527  1.3357  0.6274
25224SOL    HW276251   6.182   3.788   1.983  1.1459  1.5943  0.4331
25225SOL     OW76252   1.817   4.285   0.361  0.4089  0.2395  0.0413
25225SOL    HW176253   1.785   4.223   0.427  1.8587  0.0731  0.6250
25225SOL    HW276254   1.761   4.362   0.372  0.5385  0.1700  1.3982
25226SOL     OW76255   5.303   3.139   0.035 -0.2653 -0.3411  0.5392
25226SOL    HW176256   5.293   3.160   0.128  0.4422 -0.0453  0.5533
25226SOL    HW276257   5.355   3.211  -0.000  0.9876 -1.3400  0.2870
25227SOL     OW76258   0.973   2.295   0.749 -0.0462  0.1066  0.2557
25227SOL    HW176259   0.922   2.214   0.753 -0.9538  0.6579  0.1908
25227SOL    HW276260   0.916   2.361   0.789 -0.2420  1.1644 -1.6370
25228SOL     OW76261   9.929   3.435   1.069  0.0960 -0.3013 -0.5238
25228SOL    HW176262   9.912   3.403   1.158  2.0918 -1.0846 -0.3747
25228SOL    HW276263   9.928   3.356   1.015  1.8080 -0.2329 -0.6982
25229SOL     OW76264   3.437   4.492   2.311  0.6617  0.0415 -0.1426
25229SOL    HW176265   3.462   4.581   2.337 -0.7666  1.0376 -1.8795
25229SOL    HW276266   3.497   4.470   2.239  0.6947 -0.1945 -0.0428
25230SOL     OW76267   9.334   1.693   5.125 -0.3265 -0.3819  0.0345
25230SOL    HW176268   9.323   1.678   5.031 -1.5519  0.4353  0.0250
25230SOL    HW276269   9.377   1.778   5.131 -0.9296 -0.0868  0.2181
25231SOL     OW76270   9.439   0.641   3.292 -0.1622 -0.4142 -0.6396
25231SOL    HW176271   9.391   0.602   3.218 -0.3423 -0.9352 -0.2534
25231SOL    HW276272   9.469   0.725   3.259  0.0351 -0.7819 -1.4236
25232SOL     OW76273   6.084   6.779   8.915 -0.9417  0.1798  0.0822
25232SOL    HW176274   6.109   6.859   8.961 -0.4228  1.1472 -1.7623
25232SOL    HW276275   5.994   6.762   8.944 -0.2421  0.0303  2.3195
25233SOL     OW76276   8.998   5.684   8.171  0.1060 -0.5065 -0.9531
25233SOL    HW176277   9.004   5.588   8.175  0.5522 -0.4645  2.3841
25233SOL    HW276278   9.086   5.713   8.148  1.1090 -0.9305  1.9139
25234SOL     OW76279   2.458   3.426   3.742  0.6465 -0.7432 -0.2976
25234SOL    HW176280   2.370   3.434   3.780  0.6524  2.1308 -0.6422
25234SOL    HW276281   2.512   3.392   3.814 -0.5152 -1.4213  0.2819
25235SOL     OW76282   7.896   3.777   2.800  0.2213  0.5269 -0.1713
25235SOL    HW176283   7.926   3.715   2.733 -0.3022 -0.4722  0.4968
25235SOL    HW276284   7.952   3.854   2.788 -0.1501  0.5487 -2.0383
25236SOL     OW76285   9.066   5.382   8.200  0.2692  0.1972 -0.1973
25236SOL    HW176286   8.974   5.394   8.221  0.2285 -2.2383  1.3473
25236SOL    HW276287   9.069   5.300   8.151  1.4434  1.1852 -1.8536
25237SOL     OW76288   7.628   9.249   7.642 -0.2485 -0.7610 -0.2153
25237SOL    HW176289   7.696   9.227   7.579 -0.3339  0.7204 -0.8764
25237SOL    HW276290   7.670   9.240   7.727  1.2408  1.4241 -0.6436
25238SOL     OW76291   3.613   4.476   6.264 -0.2538 -0.1870  0.8715
25238SOL    HW176292   3.668   4.415   6.215  0.8831  0.5890  1.1371
25238SOL    HW276293   3.596   4.433   6.347 -0.0733 -0.4496  0.7730
25239SOL     OW76294   0.606   5.451   1.443 -0.0526 -0.2443  0.1021
25239SOL    HW176295   0.616   5.420   1.533  0.1323  0.5693  0.3667
25239SOL    HW276296   0.586   5.372   1.393 -0.6204 -0.6389  0.9299
25240SOL     OW76297   9.432   4.570   7.069  0.0405  0.0262  0.1524
25240SOL    HW176298   9.372   4.627   7.021  0.9395  0.1256 -0.8917
25240SOL    HW276299   9.468   4.511   7.003  0.3676 -0.6704  0.9313
25241SOL     OW76300   6.511   5.564   5.631 -0.5113  0.4376  0.0686
25241SOL    HW176301   6.431   5.544   5.582 -1.5833 -0.6334  2.1255
25241SOL    HW276302   6.536   5.481   5.672  1.8466  0.6859 -0.7208
25242SOL     OW76303   9.458   6.440   8.835 -0.2383  0.4556  0.7662
25242SOL    HW176304   9.442   6.528   8.800 -4.1198 -0.0586  0.7447
25242SOL    HW276305   9.467   6.384   8.757  1.0689  0.6533  0.7670
25243SOL     OW76306   8.495   2.432   8.916 -0.0157 -0.1025  0.0500
25243SOL    HW176307   8.433   2.483   8.968  1.1226  1.7060 -0.2583
25243SOL    HW276308   8.463   2.441   8.826 -0.2080 -0.5315  0.0759
25244SOL     OW76309   6.206   9.312   4.234 -0.2147  0.3186 -0.2867
25244SOL    HW176310   6.291   9.270   4.218  0.7434  2.9797 -3.2883
25244SOL    HW276311   6.223   9.376   4.303  0.4721  1.2958 -1.3221
25245SOL     OW76312   3.554   1.427   3.058  0.1221  0.3364  0.2068
25245SOL    HW176313   3.588   1.508   3.019  0.4919 -0.0191 -0.2290
25245SOL    HW276314   3.485   1.398   2.998 -1.1183  1.1613  1.1947
25246SOL     OW76315   9.824   5.581   4.985 -0.0964 -0.3523 -0.1426
25246SOL    HW176316   9.850   5.643   5.053  0.3283  0.7234 -1.2392
25246SOL    HW276317   9.879   5.605   4.909 -2.5380  0.4168 -1.7953
25247SOL     OW76318   4.485   6.639   2.828  0.1216 -0.1736  0.2543
25247SOL    HW176319   4.509   6.560   2.779 -1.3563 -1.0589  0.9194
25247SOL    HW276320   4.537   6.708   2.787  0.1394 -1.1703 -1.4994
25248SOL     OW76321   9.440   7.889   1.557  0.3443  0.3621 -0.3823
25248SOL    HW176322   9.392   7.884   1.639 -2.0552  0.4153 -1.6960
25248SOL    HW276323   9.422   7.806   1.513  0.2647  0.9502 -1.5099
25249SOL     OW76324   5.169   7.862   4.622 -0.4953  0.0574  0.2360
25249SOL    HW176325   5.168   7.782   4.675  0.6780 -0.6976 -0.8238
25249SOL    HW276326   5.119   7.840   4.544  0.0309  0.2731 -0.1685
25250SOL     OW76327   6.134   9.201   7.205 -0.4558 -0.2339  0.2880
25250SOL    HW176328   6.093   9.195   7.291 -2.5158  0.1384 -0.6064
25250SOL    HW276329   6.129   9.294   7.183  0.4257 -0.2666 -0.0660
25251SOL     OW76330   0.688   5.286   5.344  0.0450 -0.5002  0.3116
25251SOL    HW176331   0.641   5.337   5.279 -0.3384 -0.6385  0.4774
25251SOL    HW276332   0.781   5.299   5.323 -0.0665 -0.1986  0.0069
25252SOL     OW76333   0.734   9.176   8.686  0.8141 -0.1454  0.4771
25252SOL    HW176334   0.808   9.236   8.688  0.0953  0.8846 -1.2387
25252SOL    HW276335   0.752   9.112   8.755  1.9272  1.6430  1.9010
25253SOL     OW76336   3.142   5.295   6.568 -0.5245 -0.4235 -0.2857
25253SOL    HW176337   3.087   5.287   6.491 -0.3958 -0.3138 -0.3884
25253SOL    HW276338   3.216   5.237   6.551 -0.6771 -0.6775 -0.0878
25254SOL     OW76339   3.985   9.509   3.072  0.0131  0.0026  0.2381
25254SOL    HW176340   3.907   9.453   3.063 -0.1362  0.1571  0.5820
25254SOL    HW276341   3.951   9.596   3.091  0.2894 -0.1160  1.3533
25255SOL     OW76342   6.730   0.169   7.427  0.0207  0.6751 -0.4138
25255SOL    HW176343   6.758   0.243   7.373 -1.0712  2.2880  1.1021
25255SOL    HW276344   6.778   0.094   7.392  0.1015  1.8036 -2.9434
25256SOL     OW76345   6.596   8.666   6.526  0.0065  0.3818 -0.5570
25256SOL    HW176346   6.658   8.738   6.538  1.2959 -0.4021 -2.1160
25256SOL    HW276347   6.593   8.622   6.611 -0.5608  2.0547  0.3290
25257SOL     OW76348   3.741   1.913   5.504 -0.0332 -0.3372 -0.0325
25257SOL    HW176349   3.678   1.984   5.511 -1.1073 -1.3930  2.2196
25257SOL    HW276350   3.774   1.918   5.414 -1.1004  2.0888 -0.3535
25258SOL     OW76351   1.098   8.389   8.555  0.1336  0.0641  0.1528
25258SOL    HW176352   1.053   8.448   8.616 -0.4065 -1.5937  1.4164
25258SOL    HW276353   1.038   8.382   8.481 -0.2343  0.3597  0.4135
25259SOL     OW76354   0.453   0.903   1.741  0.2952  0.2706 -0.1965
25259SOL    HW176355   0.517   0.969   1.766  0.1302  0.3690 -0.0286
25259SOL    HW276356   0.372   0.953   1.729  0.3904  0.2467 -1.0259
25260SOL     OW76357   2.924   2.321   0.131  0.6234 -0.0432 -0.1887
25260SOL    HW176358   3.005   2.333   0.082  0.5436  0.0957 -0.2882
25260SOL    HW276359   2.858   2.368   0.080  0.7915  1.2588  0.7506
25261SOL     OW76360   2.999   1.055   9.336 -0.5599  0.1455  0.8840
25261SOL    HW176361   2.960   1.136   9.302 -1.3473 -0.4307  0.3835
25261SOL    HW276362   2.993   0.993   9.263 -0.0700 -0.3989  1.3008
25262SOL     OW76363   4.054   6.329   7.473  0.5588  0.3463  0.9313
25262SOL    HW176364   4.006   6.314   7.555 -1.7835  2.2571  0.0037
25262SOL    HW276365   4.007   6.276   7.408  0.9699  0.6652  0.3671
25263SOL     OW76366   0.476   9.748   6.320 -0.1609 -0.0462  0.1364
25263SOL    HW176367   0.509   9.837   6.335 -1.1519  0.5457 -1.0080
25263SOL    HW276368   0.382   9.755   6.332 -0.3021 -0.8255 -0.4344
25264SOL     OW76369   6.197   3.405   8.960 -0.7157 -0.1054 -0.0457
25264SOL    HW176370   6.198   3.458   9.040  0.7915  0.3305 -0.3059
25264SOL    HW276371   6.273   3.347   8.969 -2.1544 -2.0685  0.0876
25265SOL     OW76372   4.293   2.854   0.435  0.1117 -0.0718  0.6839
25265SOL    HW176373   4.359   2.911   0.475 -0.4628  0.8878  0.3111
25265SOL    HW276374   4.217   2.862   0.493 -0.5576  0.9359 -0.2882
25266SOL     OW76375   3.346   7.479   6.748  0.5342 -0.6472 -0.5110
25266SOL    HW176376   3.369   7.437   6.831 -0.2101 -2.6463 -1.2576
25266SOL    HW276377   3.358   7.410   6.683 -1.0656  0.2237 -1.7791
25267SOL     OW76378   6.812   1.465   3.756 -1.1038 -0.3009 -0.1627
25267SOL    HW176379   6.857   1.384   3.779  0.0248  0.9689  2.4565
25267SOL    HW276380   6.881   1.530   3.744 -2.0465  0.7231 -0.3065
25268SOL     OW76381   2.171   1.235   8.167  0.8508  0.5662 -0.2563
25268SOL    HW176382   2.090   1.186   8.158  0.2603  1.2937  0.8600
25268SOL    HW276383   2.143   1.324   8.188  1.9076  1.2804 -1.7461
25269SOL     OW76384   4.856   8.440   9.724 -0.6609  0.0201 -0.0005
25269SOL    HW176385   4.831   8.529   9.749  0.3958  0.0609  0.9635
25269SOL    HW276386   4.794   8.384   9.770 -1.4439  0.2413 -0.7504
25270SOL     OW76387   1.063   9.527   1.199 -0.2673  0.4341 -0.3572
25270SOL    HW176388   1.119   9.542   1.123 -0.1221  0.7339 -0.1957
25270SOL    HW276389   1.060   9.432   1.209 -0.9151  0.3589 -1.1956
25271SOL     OW76390   2.786   2.200   1.691  0.3774  0.2282 -0.6141
25271SOL    HW176391   2.784   2.148   1.611 -1.3991 -0.8646  0.0735
25271SOL    HW276392   2.762   2.288   1.662  1.4288  0.2429 -1.5075
25272SOL     OW76393   3.112   7.439   0.262 -1.0102 -0.2173 -0.0422
25272SOL    HW176394   3.140   7.358   0.305 -1.4934 -0.4727 -0.2024
25272SOL    HW276395   3.188   7.497   0.269 -1.0462 -0.2865  1.0598
25273SOL     OW76396   2.892   5.824   1.679 -0.5060 -0.7227  0.0747
25273SOL    HW176397   2.808   5.867   1.699 -0.8310 -0.3917 -1.7934
25273SOL    HW276398   2.958   5.890   1.700 -0.9047  0.0644 -1.0343
25274SOL     OW76399   7.443   7.274   9.029 -0.2615  0.5986  0.0660
25274SOL    HW176400   7.452   7.335   8.956 -0.4539 -1.4097 -1.7436
25274SOL    HW276401   7.382   7.207   8.997 -0.0171 -0.5830  1.9086
25275SOL     OW76402   7.843   0.267   2.133 -0.2644 -0.2995  0.2711
25275SOL    HW176403   7.756   0.300   2.112  0.0811  1.3382  1.2742
25275SOL    HW276404   7.903   0.333   2.097  0.5909 -1.4476 -0.4902
25276SOL     OW76405   5.795   5.112   2.921 -0.6415  0.4301 -0.1065
25276SOL    HW176406   5.813   5.183   2.982  0.6391 -1.2790  1.6237
25276SOL    HW276407   5.846   5.135   2.843  2.1113  0.1049  1.4713
25277SOL     OW76408   2.654   5.082   3.112  0.0099  0.0362  0.1314
25277SOL    HW176409   2.573   5.033   3.125 -0.7435  0.7845 -1.3357
25277SOL    HW276410   2.717   5.017   3.082 -0.5247 -0.3021 -0.2875
25278SOL     OW76411   6.095   2.404   4.572  0.6317  0.0880  0.1784
25278SOL    HW176412   6.170   2.439   4.523  1.0509 -0.6452  0.2806
25278SOL    HW276413   6.082   2.466   4.643  0.6432  0.6431 -0.3004
25279SOL     OW76414   6.486   0.071   9.753  0.3249  0.1022 -0.4733
25279SOL    HW176415   6.434   0.145   9.783 -1.2791 -0.7065 -1.1181
25279SOL    HW276416   6.456  -0.003   9.806  1.9472 -0.1117  0.2084
25280SOL     OW76417   0.919   2.479   3.047 -0.3746  0.4105 -0.2030
25280SOL    HW176418   0.911   2.420   2.972  1.4443  0.6674 -0.6410
25280SOL    HW276419   0.904   2.566   3.010 -1.0290  0.4144  0.0533
25281SOL     OW76420   0.345   2.934   1.198  0.1985 -0.5779 -0.7732
25281SOL    HW176421   0.286   2.939   1.122  0.8479 -0.2403 -1.2736
25281SOL    HW276422   0.343   3.022   1.236 -0.8111 -0.9826  0.1506
25282SOL     OW76423   4.492   1.010   4.187 -0.1920  0.3721  0.2801
25282SOL    HW176424   4.533   0.943   4.132  0.1500  1.2250 -0.5359
25282SOL    HW276425   4.496   1.090   4.134 -2.9454  0.5089  0.1508
25283SOL     OW76426   3.117   7.468   8.699 -0.0674  0.3171  0.1907
25283SOL    HW176427   3.023   7.450   8.707  0.0888 -0.9784 -0.6445
25283SOL    HW276428   3.154   7.445   8.784 -0.4257  0.3538  0.3571
25284SOL     OW76429   2.561   2.438   5.467 -1.1131 -0.3837 -0.3681
25284SOL    HW176430   2.523   2.510   5.517  0.0728 -0.8414  1.2761
25284SOL    HW276431   2.651   2.430   5.500 -0.7338 -1.6106 -1.6041
25285SOL     OW76432   9.088   8.005   9.527 -0.6453 -0.1916  0.5189
25285SOL    HW176433   9.040   7.956   9.594  0.9739 -0.2272  1.6960
25285SOL    HW276434   9.066   8.096   9.545 -0.8686 -0.2554  0.5745
25286SOL     OW76435   5.912   4.935   8.426 -0.1099 -0.5478 -0.7102
25286SOL    HW176436   5.939   5.009   8.370 -0.4717 -0.5151 -0.8463
25286SOL    HW276437   5.822   4.956   8.451  0.3056 -0.1853  0.5217
25287SOL     OW76438   7.603   2.789   8.583  0.0230 -0.4651  1.2022
25287SOL    HW176439   7.664   2.765   8.514  0.4908  1.6855  0.8009
25287SOL    HW276440   7.517   2.760   8.550  0.1614  0.9423 -0.5433
25288SOL     OW76441   4.324   2.877   4.795  0.4283  0.4643  0.1832
25288SOL    HW176442   4.366   2.935   4.732 -0.0132  0.3141 -0.2560
25288SOL    HW276443   4.248   2.927   4.826 -0.4912 -0.2147 -0.8915
25289SOL     OW76444   7.109   2.937   5.236  0.1239 -0.3187  0.4842
25289SOL    HW176445   7.159   3.010   5.197 -0.1911  0.1667  0.9757
25289SOL    HW276446   7.122   2.947   5.330  0.0873 -0.9150  0.5519
25290SOL     OW76447   3.794   9.113   2.406  0.0468  0.5684  0.1397
25290SOL    HW176448   3.861   9.121   2.473  1.0898  1.3918 -0.9536
25290SOL    HW276449   3.832   9.156   2.329 -1.5805  0.7069 -0.6285
25291SOL     OW76450   0.986   0.810   9.004  0.7029  0.0258 -0.1978
25291SOL    HW176451   1.039   0.733   9.024  0.5058  0.0021  0.2444
25291SOL    HW276452   1.046   0.884   9.015  0.0688  0.2155  2.7733
25292SOL     OW76453   4.280   5.266   4.630 -0.2642  0.2166 -0.1733
25292SOL    HW176454   4.223   5.289   4.703  0.2095  0.3394  0.1603
25292SOL    HW276455   4.361   5.316   4.645  0.3406 -0.7700 -0.0561
25293SOL     OW76456   6.393   7.759   2.856  0.0835  0.0826  0.0422
25293SOL    HW176457   6.338   7.832   2.884 -0.8139 -0.7612  0.5340
25293SOL    HW276458   6.337   7.681   2.867  0.6748 -0.5840 -1.3686
25294SOL     OW76459   3.312   0.727   7.628  0.7542 -0.2855 -0.1552
25294SOL    HW176460   3.347   0.642   7.601 -0.2908 -0.8225  0.1277
25294SOL    HW276461   3.236   0.706   7.681 -0.2938  0.8383 -1.1482
25295SOL     OW76462   9.513   3.450   5.648  0.5313  0.5370 -0.2522
25295SOL    HW176463   9.479   3.437   5.560 -1.1902 -1.2345  0.5827
25295SOL    HW276464   9.605   3.424   5.643  0.6315  1.0928 -1.6317
25296SOL     OW76465   5.913   1.762   3.220  0.0601 -0.1623  0.2547
25296SOL    HW176466   6.004   1.747   3.247 -0.2156 -1.5745  0.4475
25296SOL    HW276467   5.860   1.718   3.286 -0.7585  0.0898 -0.2167
25297SOL     OW76468   1.383   3.293   5.152  0.3351  0.0624 -0.3380
25297SOL    HW176469   1.334   3.363   5.109 -0.0682 -0.6240 -1.0454
25297SOL    HW276470   1.465   3.333   5.177 -0.0519  0.8923 -0.3628
25298SOL     OW76471   4.333   3.117   3.087  0.7520 -0.2421  0.0256
25298SOL    HW176472   4.252   3.134   3.135  0.6567  0.8830 -0.5159
25298SOL    HW276473   4.320   3.159   3.002  2.2461  0.7047  0.2498
25299SOL     OW76474   0.466   1.656   3.594 -0.4825  0.0689  0.6179
25299SOL    HW176475   0.551   1.678   3.557 -1.0798 -0.2256 -0.9944
25299SOL    HW276476   0.484   1.636   3.686  0.7044  3.0207  1.1285
25300SOL     OW76477   6.332   7.400   8.729 -0.1522 -0.1862  0.4881
25300SOL    HW176478   6.414   7.372   8.767 -0.6488 -1.0544  0.9474
25300SOL    HW276479   6.356   7.471   8.669  0.8537 -0.0731  1.0075
25301SOL     OW76480   8.252   0.062   0.439  0.0240 -0.2808 -0.0833
25301SOL    HW176481   8.284  -0.025   0.417 -1.4879 -0.7938 -0.3775
25301SOL    HW276482   8.198   0.087   0.364  0.3331  0.8757  0.0530
25302SOL     OW76483   5.583   5.049   1.223 -0.1474  0.5784 -0.0659
25302SOL    HW176484   5.577   5.064   1.129 -0.1878 -1.8790 -0.5134
25302SOL    HW276485   5.645   5.115   1.254  1.4750  0.1438 -2.1653
25303SOL     OW76486   3.160   3.786   8.582  0.3048 -0.5224 -0.4300
25303SOL    HW176487   3.111   3.732   8.520 -3.3499  1.0078  0.8247
25303SOL    HW276488   3.246   3.744   8.588 -0.6872 -3.3121 -3.0616
25304SOL     OW76489   1.250   6.353   6.873  0.2778  0.5618 -0.2764
25304SOL    HW176490   1.206   6.398   6.801 -1.1629 -0.1047  0.1650
25304SOL    HW276491   1.191   6.282   6.897  1.4950 -0.2242  0.5002
25305SOL     OW76492   8.299   1.254   0.071  0.2697 -0.4924  0.5537
25305SOL    HW176493   8.341   1.267   0.156  0.1070 -1.3604  0.7737
25305SOL    HW276494   8.352   1.305   0.010  1.0097 -0.7068  1.0062
25306SOL     OW76495   5.714   8.444   9.889  0.0254  0.1952 -0.1319
25306SOL    HW176496   5.712   8.400   9.805  0.6803  0.7133 -0.4316
25306SOL    HW276497   5.707   8.537   9.867  0.3718  0.3442  0.3713
25307SOL     OW76498   6.530   7.766   7.625 -0.2367  0.3352  0.1962
25307SOL    HW176499   6.503   7.821   7.699  0.9665  2.5868 -0.9357
25307SOL    HW276500   6.449   7.734   7.587 -0.9715  1.4032  0.8356
25308SOL     OW76501   1.140   5.322   3.843  0.2611  0.6068  0.2408
25308SOL    HW176502   1.193   5.401   3.857  3.1439 -0.5921 -2.5843
25308SOL    HW276503   1.164   5.265   3.916  2.2143  0.4890 -0.4286
25309SOL     OW76504   0.826   1.807   8.469 -0.1073  0.3929  0.4337
25309SOL    HW176505   0.754   1.836   8.524 -0.0479 -1.9277  1.8242
25309SOL    HW276506   0.885   1.760   8.528  1.6388  0.6640 -1.0068
25310SOL     OW76507   9.540   6.052   8.926 -0.4159  0.2462 -0.1707
25310SOL    HW176508   9.602   5.980   8.933 -0.2984  0.0592 -2.3931
25310SOL    HW276509   9.455   6.010   8.915 -0.5326  0.4605 -0.0915
25311SOL     OW76510   6.429   9.173   0.162  0.6646  0.5700  0.3170
25311SOL    HW176511   6.450   9.086   0.197 -0.2630  0.1078 -0.2532
25311SOL    HW276512   6.354   9.202   0.214 -0.1959  0.2288 -0.6947
25312SOL     OW76513   3.360   5.096   8.451  0.2350 -0.6398 -0.1173
25312SOL    HW176514   3.449   5.071   8.475 -0.1532 -0.0709  2.2509
25312SOL    HW276515   3.370   5.158   8.379  1.8239  0.1408  0.7283
25313SOL     OW76516   3.437   4.717   8.721 -0.9520 -0.1887 -0.2835
25313SOL    HW176517   3.476   4.678   8.642  0.0688  0.1296  0.0488
25313SOL    HW276518   3.399   4.643   8.767 -0.1847 -0.6205 -0.3158
25314SOL     OW76519   1.692   1.055   3.782 -0.1160  0.5009  0.6072
25314SOL    HW176520   1.618   0.999   3.806  1.6423 -1.3297  2.1029
25314SOL    HW276521   1.740   1.003   3.717 -0.2662  1.8198 -0.6072
25315SOL     OW76522   2.685   0.126   9.484 -0.2669  0.0689 -0.3698
25315SOL    HW176523   2.661   0.108   9.575 -2.9790  1.9748 -0.5739
25315SOL    HW276524   2.780   0.118   9.482  0.1437  1.9901  3.1503
25316SOL     OW76525   5.254   3.875   8.082  0.2630 -0.3056  0.2517
25316SOL    HW176526   5.298   3.948   8.126  1.0315 -0.8458  0.3964
25316SOL    HW276527   5.167   3.873   8.122  0.3239  0.3622  0.4365
25317SOL     OW76528   5.987   0.242   1.726 -0.2930  0.1086 -0.7414
25317SOL    HW176529   5.905   0.286   1.704 -0.4813  0.8012  1.1623
25317SOL    HW276530   5.966   0.148   1.720 -1.6468  0.2537  0.9788
25318SOL     OW76531   3.842   4.268   0.898 -0.1015  0.1799  0.8346
25318SOL    HW176532   3.797   4.199   0.850 -0.4536  0.7884  0.2823
25318SOL    HW276533   3.809   4.350   0.860  1.3263  0.6465  0.5179
25319SOL     OW76534   6.967   2.123   2.352  0.2625 -0.0334  0.1541
25319SOL    HW176535   6.893   2.067   2.376 -0.2510  1.2257  1.6010
25319SOL    HW276536   7.040   2.062   2.342 -0.8885 -1.2700 -1.0617
25320SOL     OW76537   6.936   5.191   1.079  0.3346  0.0991 -0.2130
25320SOL    HW176538   6.999   5.170   1.011  0.3776  1.8053 -0.7504
25320SOL    HW276539   6.856   5.146   1.052  1.2310 -1.9924  0.4204
25321SOL     OW76540   7.261   4.256   8.108 -0.5337  0.0990  0.6995
25321SOL    HW176541   7.265   4.163   8.131 -1.4366 -0.7135 -2.0780
25321SOL    HW276542   7.338   4.269   8.052 -0.4257  1.0455  1.0553
25322SOL     OW76543   6.627   7.106   7.456 -0.4733 -0.3404 -0.2303
25322SOL    HW176544   6.591   7.179   7.507 -0.6395 -1.0953  0.7727
25322SOL    HW276545   6.695   7.146   7.401 -0.8894  0.6388 -0.0511
25323SOL     OW76546   3.463   8.890   9.095  0.0735  0.5146 -0.8766
25323SOL    HW176547   3.432   8.903   9.006 -0.6711 -0.8697 -0.8572
25323SOL    HW276548   3.523   8.816   9.089  1.0249  1.2250 -0.4161
25324SOL     OW76549   1.528   2.904   4.542 -0.1149 -0.2352 -0.2240
25324SOL    HW176550   1.459   2.845   4.513 -0.7393 -0.4553  1.5938
25324SOL    HW276551   1.596   2.846   4.577 -0.7662  0.0606  1.6499
25325SOL     OW76552   3.582   0.399   3.393  0.0996  0.1764 -0.1028
25325SOL    HW176553   3.620   0.402   3.305 -0.6673 -0.6249 -0.4750
25325SOL    HW276554   3.495   0.436   3.383  0.5423  1.4522  0.6311
25326SOL     OW76555   0.651   0.841   7.942 -0.2718  0.4978  0.4954
25326SOL    HW176556   0.654   0.828   7.847 -0.8962 -1.2483  0.6674
25326SOL    HW276557   0.610   0.927   7.953  0.7010  1.1565 -0.8169
25327SOL     OW76558   3.937   0.199   0.389 -0.4343 -0.3028 -0.4615
25327SOL    HW176559   3.904   0.117   0.353 -1.6611 -0.2789  0.5320
25327SOL    HW276560   3.930   0.262   0.317 -6.6075  0.7820  0.5699
25328SOL     OW76561   8.297   0.257   8.620  0.3180 -0.3705 -0.2253
25328SOL    HW176562   8.203   0.271   8.618  0.1565 -1.0500  1.0191
25328SOL    HW276563   8.333   0.321   8.559 -1.0233 -0.8140 -1.5302
25329SOL     OW76564   1.842   7.628   1.926  0.3539  0.1429 -0.8670
25329SOL    HW176565   1.928   7.658   1.956  0.3437  1.1557 -1.7844
25329SOL    HW276566   1.784   7.702   1.945 -0.2107 -0.3228 -0.7619
25330SOL     OW76567   7.524   5.628   3.847  0.2613 -0.2949  0.1352
25330SOL    HW176568   7.520   5.710   3.798  1.4633 -0.2822  0.0418
25330SOL    HW276569   7.532   5.560   3.779  2.0957 -0.2659  0.2754
25331SOL     OW76570   8.512   2.202   7.686 -0.0185 -0.1341 -0.5464
25331SOL    HW176571   8.478   2.113   7.685 -0.2909 -0.0483  0.0737
25331SOL    HW276572   8.434   2.258   7.678  0.1173  0.0476 -0.6142
25332SOL     OW76573   9.559   9.659   4.879 -0.0489 -0.3086 -0.3602
25332SOL    HW176574   9.578   9.565   4.873 -0.0884 -0.3257 -0.2149
25332SOL    HW276575   9.605   9.688   4.957 -1.5526 -0.5842  0.6668
25333SOL     OW76576   4.294   6.841   5.897  0.2972  0.2041 -0.2986
25333SOL    HW176577   4.370   6.899   5.892  0.9030 -0.4973  0.5084
25333SOL    HW276578   4.330   6.757   5.927 -1.0427  0.3959  2.0643
25334SOL     OW76579   1.638   5.663   8.706 -0.4551  0.2559 -0.0275
25334SOL    HW176580   1.604   5.717   8.634  0.6512 -0.2857 -0.9766
25334SOL    HW276581   1.583   5.584   8.704 -1.0303  0.6393  0.3344
25335SOL     OW76582   6.013   3.528   2.772 -0.5458  0.2136  0.0537
25335SOL    HW176583   6.100   3.568   2.777 -1.1977  1.7155 -0.1382
25335SOL    HW276584   6.013   3.482   2.689  0.4512 -0.7677  0.5758
25336SOL     OW76585   0.962   3.582   9.535 -0.2051 -0.6802  0.2172
25336SOL    HW176586   1.012   3.653   9.495 -1.4505 -1.0283 -2.1217
25336SOL    HW276587   1.020   3.547   9.603  0.8578  1.8286  0.7050
25337SOL     OW76588   1.091   2.549   1.056  0.1678 -0.3328 -0.5886
25337SOL    HW176589   1.024   2.597   1.007 -0.1106  2.4604  2.2012
25337SOL    HW276590   1.162   2.613   1.068  0.5596 -1.1283  1.8379
25338SOL     OW76591   5.534   2.253   1.482  0.4923 -0.0873  0.2455
25338SOL    HW176592   5.474   2.320   1.448 -1.0080 -0.7687  1.3870
25338SOL    HW276593   5.557   2.201   1.406  0.4554  0.8134 -0.3950
25339SOL     OW76594   7.606   0.825   7.346 -0.5017 -0.6612  0.2341
25339SOL    HW176595   7.541   0.879   7.391  0.0797 -1.3395  1.9309
25339SOL    HW276596   7.613   0.865   7.259 -0.3552  1.8106  1.2849
25340SOL     OW76597   3.359   4.967   9.954  0.1815 -0.2011 -0.4467
25340SOL    HW176598   3.342   4.878   9.985  0.1001  0.6198  2.1663
25340SOL    HW276599   3.272   5.002   9.934  0.1271 -0.4003 -0.5599
25341SOL     OW76600   0.520   7.719   2.181  0.3156 -0.4186  0.0950
25341SOL    HW176601   0.554   7.657   2.245 -1.3963 -0.8972  0.5953
25341SOL    HW276602   0.572   7.799   2.195  0.1867 -0.6106  1.8816
25342SOL     OW76603   5.479   0.937   8.355 -0.9243  0.2174  0.2103
25342SOL    HW176604   5.394   0.921   8.396  0.2674 -1.5597  2.2047
25342SOL    HW276605   5.522   0.852   8.355  1.5961  1.3985  1.0071
25343SOL     OW76606   7.474   3.726   2.080  0.0780 -0.4197 -0.1093
25343SOL    HW176607   7.542   3.755   2.141 -1.4247 -0.3948  1.6318
25343SOL    HW276608   7.471   3.794   2.013  1.2923 -0.0955  0.1421
25344SOL     OW76609   4.483   3.074   8.810  0.2809 -0.2973  0.5931
25344SOL    HW176610   4.463   3.149   8.754  1.5094 -0.2749  0.1569
25344SOL    HW276611   4.433   3.002   8.772  0.3044 -0.0477  0.0796
25345SOL     OW76612   1.028   1.414   0.788  0.2059  0.0010 -0.4301
25345SOL    HW176613   1.007   1.483   0.725  2.3174 -0.6102 -1.9534
25345SOL    HW276614   1.016   1.332   0.739 -1.3073 -0.7040  1.0308
25346SOL     OW76615   9.513   4.059   3.693 -0.0175 -0.5466 -0.1103
25346SOL    HW176616   9.557   3.995   3.636 -0.4119  0.5191 -1.6758
25346SOL    HW276617   9.554   4.143   3.672 -3.0461  0.6104 -2.1179
25347SOL     OW76618   1.010   3.919   1.341 -0.2147  0.2324 -0.2468
25347SOL    HW176619   0.934   3.955   1.387  0.1555 -0.4930  0.9683
25347SOL    HW276620   1.020   3.976   1.265 -2.1320  0.1794 -0.5997
25348SOL     OW76621   8.943   8.846   1.731  0.2705  0.0912  0.4494
25348SOL    HW176622   8.952   8.913   1.664  1.4042  1.9112  2.2951
25348SOL    HW276623   9.013   8.784   1.712  0.3992  0.4260 -0.2075
25349SOL     OW76624   9.325   2.840   3.676 -0.7755  0.3098  0.3914
25349SOL    HW176625   9.284   2.915   3.632 -1.5522 -0.7219 -0.6951
25349SOL    HW276626   9.360   2.787   3.604  0.4464 -0.0044  1.1885
25350SOL     OW76627   8.916   2.319   5.826  0.2259 -0.2259  0.0523
25350SOL    HW176628   8.837   2.279   5.861  0.7626 -2.2065 -0.8975
25350SOL    HW276629   8.897   2.334   5.734  0.7415 -0.1112 -0.0377
25351SOL     OW76630   6.547   1.361   3.319  0.1937  0.7416  0.0471
25351SOL    HW176631   6.591   1.310   3.251 -1.3508 -1.7160  0.7302
25351SOL    HW276632   6.613   1.372   3.387  0.9386  0.7852 -0.6660
25352SOL     OW76633   5.736   4.082   1.437  0.1804  0.0782 -0.0293
25352SOL    HW176634   5.653   4.056   1.476 -0.7773  1.2584 -1.2352
25352SOL    HW276635   5.755   4.168   1.474  0.3472  0.2680 -0.5511
25353SOL     OW76636   2.936   0.053   0.634  0.2996 -0.1344 -0.4819
25353SOL    HW176637   2.885   0.100   0.701  1.8886  0.4258  0.4009
25353SOL    HW276638   3.001   0.116   0.606  1.2237 -1.1803 -0.7438
25354SOL     OW76639   1.793   7.385   2.078 -0.0147  0.3975  0.2531
25354SOL    HW176640   1.728   7.439   2.033  0.6495 -0.8149 -2.4189
25354SOL    HW276641   1.877   7.418   2.047  0.4900 -0.4602  0.6718
25355SOL     OW76642   7.734   0.972   2.572 -0.3169 -0.4493 -0.3756
25355SOL    HW176643   7.708   0.949   2.483 -2.5147  0.1288  0.0548
25355SOL    HW276644   7.744   0.887   2.616  0.5064 -0.7307 -1.0764
25356SOL     OW76645   4.414   4.209   1.310  0.3836  0.0897 -0.2072
25356SOL    HW176646   4.444   4.183   1.223  0.0812 -1.2631  0.0671
25356SOL    HW276647   4.492   4.202   1.365 -0.1737 -2.6784  0.3497
25357SOL     OW76648   6.300   7.984   3.403  0.0408  0.1262 -0.6388
25357SOL    HW176649   6.365   7.935   3.453  0.5202 -0.2398 -1.5861
25357SOL    HW276650   6.326   8.075   3.413 -1.6430  0.4121  2.2660
25358SOL     OW76651   4.788   3.026   0.780  0.7119  0.2049  0.2033
25358SOL    HW176652   4.874   3.009   0.819  0.2997 -0.9984  0.6450
25358SOL    HW276653   4.738   2.947   0.799 -0.5418  0.9521  0.0872
25359SOL     OW76654   3.095   4.062   9.582 -0.4082  0.0410 -0.4966
25359SOL    HW176655   3.189   4.054   9.570 -0.4712 -0.7905 -0.4669
25359SOL    HW276656   3.071   3.991   9.641 -1.3418 -0.9745 -2.0263
25360SOL     OW76657   9.971   7.527   6.141 -0.0540  0.0228  0.1304
25360SOL    HW176658   9.878   7.541   6.154  0.0173  0.1430  0.5242
25360SOL    HW276659   9.978   7.486   6.055 -0.5450 -0.8327  0.4898
25361SOL     OW76660   1.114   6.228   5.201  0.1234  0.1299  0.4206
25361SOL    HW176661   1.127   6.211   5.295 -1.1014 -1.5933  0.3286
25361SOL    HW276662   1.051   6.161   5.173 -0.0562  1.0325 -1.4995
25362SOL     OW76663   2.765   4.848   9.210 -0.2414 -0.2997 -0.3881
25362SOL    HW176664   2.732   4.938   9.209 -0.5950 -0.3453  1.8816
25362SOL    HW276665   2.829   4.846   9.281 -0.2456 -1.8415 -0.3867
25363SOL     OW76666   6.263   5.219   6.515  0.5567 -0.3117  0.0112
25363SOL    HW176667   6.358   5.232   6.516  0.5325 -0.1493  0.8914
25363SOL    HW276668   6.232   5.272   6.442  1.0548  0.3006  0.2346
25364SOL     OW76669   9.595   1.165   0.116 -0.0392 -0.6433 -0.4571
25364SOL    HW176670   9.636   1.084   0.086  0.9197 -0.3183 -0.0465
25364SOL    HW276671   9.585   1.154   0.210 -1.0370 -0.7713 -0.5669
25365SOL     OW76672   3.213   1.366   1.761 -0.4469  0.5941  0.4952
25365SOL    HW176673   3.144   1.429   1.740 -0.1680  1.0436  0.9149
25365SOL    HW276674   3.182   1.322   1.840 -0.9533 -0.2850 -0.1592
25366SOL     OW76675   8.367   8.262   5.137  0.6013  0.1314  0.5597
25366SOL    HW176676   8.403   8.285   5.222  0.3657  0.1524  0.6534
25366SOL    HW276677   8.428   8.197   5.102  1.9500  1.7712 -0.2372
25367SOL     OW76678   2.299   0.178   4.063 -0.1175  0.0271  0.0096
25367SOL    HW176679   2.385   0.216   4.048  0.3303 -1.1235 -0.5089
25367SOL    HW276680   2.240   0.230   4.008  0.3466  0.4263 -0.1184
25368SOL     OW76681   8.510   0.054   7.678 -0.2298 -0.3829  0.0770
25368SOL    HW176682   8.469   0.113   7.615 -0.9740 -0.8855  0.0781
25368SOL    HW276683   8.462   0.068   7.760 -0.0992 -0.6467  0.2002
25369SOL     OW76684   1.197   8.132   7.826 -0.1612 -0.2692 -0.3034
25369SOL    HW176685   1.203   8.219   7.786  0.0434 -0.3701 -0.4968
25369SOL    HW276686   1.267   8.082   7.785  0.7395 -0.0784  0.9308
25370SOL     OW76687   8.873   6.837   5.413  0.2828 -0.4016  0.4186
25370SOL    HW176688   8.919   6.753   5.410  0.4812 -0.4463  2.9606
25370SOL    HW276689   8.934   6.896   5.457  0.7073  1.5404 -2.5142
25371SOL     OW76690   8.224   4.643   9.347  0.2739  0.5963  0.0255
25371SOL    HW176691   8.279   4.716   9.321 -1.0039  1.0423 -1.6147
25371SOL    HW276692   8.217   4.589   9.267  0.7495 -1.0554  1.0408
25372SOL     OW76693   1.334   3.214   7.475 -0.3919  0.3059 -0.0241
25372SOL    HW176694   1.304   3.279   7.538 -1.5347 -0.4888  0.2882
25372SOL    HW276695   1.372   3.144   7.529 -0.1447  0.2238 -0.2988
25373SOL     OW76696   4.031   8.773   2.590 -0.2517 -0.3126  0.3369
25373SOL    HW176697   4.030   8.728   2.505 -0.9869 -0.8926  0.6379
25373SOL    HW276698   3.960   8.732   2.639 -0.6971  0.9388  0.7658
25374SOL     OW76699   7.780   0.561   7.835  0.3001 -0.2062  0.2005
25374SOL    HW176700   7.739   0.625   7.777  0.4987  0.1583  0.4631
25374SOL    HW276701   7.773   0.478   7.787 -0.4766 -0.1002  0.1137
25375SOL     OW76702   2.331   4.503   2.587  0.4634 -0.0369 -0.2118
25375SOL    HW176703   2.418   4.462   2.585  1.1825  1.3152  0.8926
25375SOL    HW276704   2.315   4.530   2.497  0.3927 -1.8089 -0.7744
25376SOL     OW76705   1.360   0.289   8.129  0.5768 -0.2275  0.1131
25376SOL    HW176706   1.298   0.248   8.069  0.5681 -0.6661  0.4182
25376SOL    HW276707   1.346   0.383   8.118 -1.3742 -0.3049  1.4247
25377SOL     OW76708   1.375   3.661   5.133 -0.3685 -0.1464 -0.2215
25377SOL    HW176709   1.305   3.607   5.169 -0.6783 -0.1640 -0.8382
25377SOL    HW276710   1.361   3.747   5.171 -0.3589 -0.2954  0.1297
25378SOL     OW76711   6.380   6.190   0.956  0.2322 -0.2570 -0.0553
25378SOL    HW176712   6.465   6.174   0.914  0.3341 -1.8972  0.6833
25378SOL    HW276713   6.330   6.109   0.939 -0.1299 -0.5112  1.9612
25379SOL     OW76714   7.363   1.068   2.824  0.2317  0.3638 -0.0479
25379SOL    HW176715   7.458   1.058   2.822  0.1452 -0.9757 -3.0218
25379SOL    HW276716   7.350   1.160   2.848  2.1990  0.3392  1.3971
25380SOL     OW76717   4.289   3.647   5.602  0.1513 -0.4008 -0.1936
25380SOL    HW176718   4.343   3.574   5.571 -0.9384 -1.3232  0.0276
25380SOL    HW276719   4.313   3.720   5.545 -2.3982 -2.2043 -4.0167
25381SOL     OW76720   7.756   2.292   7.952 -0.2935  0.4766  0.2924
25381SOL    HW176721   7.814   2.223   7.987  0.0829  1.6250  2.0739
25381SOL    HW276722   7.702   2.317   8.027 -0.2351  2.2885 -0.2388
25382SOL     OW76723   2.833   3.349   2.166  0.0577  0.4585  0.3143
25382SOL    HW176724   2.868   3.433   2.133  1.1424  0.2064  0.7724
25382SOL    HW276725   2.802   3.369   2.254  0.3135  0.3846  0.4224
25383SOL     OW76726   8.972   6.625   4.767 -0.2136  0.0176 -0.3842
25383SOL    HW176727   8.945   6.695   4.707 -1.0638 -0.7457 -0.9099
25383SOL    HW276728   8.921   6.641   4.847  0.5627  0.7510 -0.0216
25384SOL     OW76729   9.368   3.712   5.431  0.3652  0.4762 -0.0177
25384SOL    HW176730   9.405   3.627   5.452 -2.5092 -0.6535  0.9552
25384SOL    HW276731   9.288   3.693   5.383  0.4503  2.7113 -1.1826
25385SOL     OW76732   9.929   7.856   4.873  0.1261 -0.2646  0.0818
25385SOL    HW176733   9.912   7.877   4.781 -0.8914 -1.0060  0.0908
25385SOL    HW276734  10.024   7.870   4.883  0.2460 -0.1529 -1.0647
25386SOL     OW76735   9.015   7.549   3.569 -0.3967  0.3737  0.2196
25386SOL    HW176736   8.994   7.638   3.539 -0.6281 -0.1591 -1.2609
25386SOL    HW276737   8.932   7.513   3.599 -0.3275  0.5947  0.6917
25387SOL     OW76738   6.947   9.059   5.728 -0.4192  0.0321 -0.0431
25387SOL    HW176739   6.875   9.077   5.667 -0.6807  1.7686  0.7214
25387SOL    HW276740   6.980   8.973   5.701 -3.5800 -1.4591  0.3887
25388SOL     OW76741   8.666   1.980   6.717  0.1443 -0.0231 -0.2118
25388SOL    HW176742   8.582   1.979   6.765 -0.6604 -0.1761 -1.5776
25388SOL    HW276743   8.696   2.071   6.723 -0.7408  0.3183 -0.7262
25389SOL     OW76744   2.968   6.504   1.519 -0.4372  0.1806  0.0062
25389SOL    HW176745   3.049   6.517   1.469  0.0069  0.6707  0.8450
25389SOL    HW276746   2.996   6.494   1.609 -1.3756  1.2451  0.4400
25390SOL     OW76747   3.471   5.211   1.829  0.1205 -0.3973  0.2484
25390SOL    HW176748   3.380   5.242   1.823 -0.0413 -0.8974  0.0388
25390SOL    HW276749   3.492   5.216   1.922 -0.3846 -0.9940  0.4073
25391SOL     OW76750   4.449   0.578   6.648 -0.4370 -0.4966  0.2210
25391SOL    HW176751   4.502   0.641   6.696 -0.1568 -0.5043 -0.0732
25391SOL    HW276752   4.464   0.600   6.555 -0.9308 -0.5103  0.1359
25392SOL     OW76753   6.227   3.056   8.752  0.1876 -0.3880  0.3101
25392SOL    HW176754   6.275   3.000   8.691 -0.4202 -0.7171  0.1279
25392SOL    HW276755   6.242   3.145   8.720 -1.2904 -0.6254 -1.2078
25393SOL     OW76756   9.643   8.373   3.613  0.0328 -0.2876 -0.3980
25393SOL    HW176757   9.633   8.401   3.522  1.7033  1.4181 -0.1184
25393SOL    HW276758   9.729   8.330   3.616  0.7293  1.0927  0.6435
25394SOL     OW76759   6.960   3.430   2.674 -0.1405  0.4930 -0.1681
25394SOL    HW176760   6.923   3.493   2.612 -0.1986  0.9683  0.3447
25394SOL    HW276761   7.024   3.380   2.622 -0.2718  0.8087 -0.6367
25395SOL     OW76762   3.210   2.519   0.364 -0.3255 -0.5220  0.8674
25395SOL    HW176763   3.304   2.534   0.357 -0.1303 -2.0416 -0.2418
25395SOL    HW276764   3.200   2.425   0.349 -1.8692 -0.7061  2.6831
25396SOL     OW76765   6.505   8.130   1.024 -0.2551 -0.8306 -0.5728
25396SOL    HW176766   6.525   8.041   1.051 -0.9708 -0.7763  0.1690
25396SOL    HW276767   6.411   8.129   1.005 -0.6550  0.1552  1.1214
25397SOL     OW76768   3.999   1.673   4.873  0.2846 -0.0996  0.3308
25397SOL    HW176769   4.078   1.663   4.819  0.2399 -1.5738  0.4919
25397SOL    HW276770   4.031   1.705   4.957  0.7236 -0.6181  0.3708
25398SOL     OW76771   2.812   6.522   6.511 -0.3998 -0.1656  0.1448
25398SOL    HW176772   2.863   6.499   6.433 -1.7124 -1.0026 -0.4995
25398SOL    HW276773   2.765   6.601   6.486 -0.2668 -0.0231  0.3462
25399SOL     OW76774   1.878   8.239   4.357 -0.3934  0.1946  0.1700
25399SOL    HW176775   1.960   8.276   4.322 -0.1155  1.2547  1.8373
25399SOL    HW276776   1.901   8.150   4.382 -0.2726 -0.1627 -1.1383
25400SOL     OW76777   4.212   6.234   0.996 -0.2050  0.1551 -0.0705
25400SOL    HW176778   4.199   6.144   0.966  1.1147 -0.3241  0.7177
25400SOL    HW276779   4.150   6.244   1.068 -0.9647  0.1752 -0.7129
25401SOL     OW76780   9.824   9.446   7.065  0.0184 -0.1857 -0.1966
25401SOL    HW176781   9.878   9.518   7.033  1.2582 -1.2266 -0.5043
25401SOL    HW276782   9.734   9.473   7.044  0.3684  1.6255  0.4235
25402SOL     OW76783   2.206   8.494   5.055  0.5085 -0.0676 -0.1431
25402SOL    HW176784   2.225   8.552   4.982  0.5533 -1.1430 -1.0229
25402SOL    HW276785   2.114   8.469   5.043  0.6556 -0.6385 -0.1184
25403SOL     OW76786   2.738   6.495   0.098 -0.2531  0.6618  0.5082
25403SOL    HW176787   2.668   6.476   0.160 -0.1430 -0.1047  0.4184
25403SOL    HW276788   2.693   6.514   0.016 -0.3624 -0.6008  0.2492
25404SOL     OW76789   1.080   0.401   2.147  0.4652 -0.3894 -0.3145
25404SOL    HW176790   1.126   0.367   2.223 -1.0782 -2.7671 -0.3594
25404SOL    HW276791   1.110   0.347   2.074 -0.0849  0.0926 -0.9139
25405SOL     OW76792   9.124   3.857   6.789  0.3781  0.7214  0.1840
25405SOL    HW176793   9.088   3.782   6.742  0.7686  1.6499 -1.7255
25405SOL    HW276794   9.062   3.874   6.859 -0.8920 -0.0215 -0.7103
25406SOL     OW76795   3.249   9.431   5.038  0.1149  0.1748  0.7676
25406SOL    HW176796   3.225   9.441   5.131 -2.5746 -1.8023  0.4188
25406SOL    HW276797   3.337   9.393   5.040  0.1998  0.3576  2.5058
25407SOL     OW76798   1.115   6.721   0.993 -0.8116 -0.2555 -0.7348
25407SOL    HW176799   1.191   6.734   0.936 -0.1054 -0.9302  0.0297
25407SOL    HW276800   1.069   6.805   0.993  0.4773  0.4595 -0.4207
25408SOL     OW76801   5.321   9.320   0.953 -0.4336 -0.0036 -0.3651
25408SOL    HW176802   5.299   9.405   0.991 -1.2710 -0.5971  0.5178
25408SOL    HW276803   5.378   9.341   0.879 -1.1627  1.3718 -0.5702
25409SOL     OW76804   8.613   4.473   3.010  0.2265 -0.7137 -0.4031
25409SOL    HW176805   8.547   4.408   3.036 -0.1408  0.6635  2.5084
25409SOL    HW276806   8.671   4.479   3.086  1.7072  0.6099 -1.5723
25410SOL     OW76807   5.731   5.755   1.025 -0.4215 -0.0501  0.1813
25410SOL    HW176808   5.683   5.765   0.943  0.3473 -1.6322 -0.5097
25410SOL    HW276809   5.680   5.690   1.074  1.4748 -2.7221 -1.0810
25411SOL     OW76810   4.335   2.417   5.926 -0.5204  0.0159  0.6044
25411SOL    HW176811   4.411   2.394   5.979  0.1824  1.1103  0.1048
25411SOL    HW276812   4.275   2.343   5.936  0.2310 -0.4588  1.7157
25412SOL     OW76813   6.334   0.580   6.051 -0.7255  0.3668  0.1187
25412SOL    HW176814   6.290   0.513   6.103 -2.6414 -0.6653 -2.5819
25412SOL    HW276815   6.287   0.580   5.968  1.1665  2.9762 -1.0917
25413SOL     OW76816   1.730   0.252   3.605  0.5079  0.1465  0.0502
25413SOL    HW176817   1.694   0.238   3.693  2.4579 -1.3330  0.6842
25413SOL    HW276818   1.819   0.219   3.611  0.8383  0.4752 -2.3828
25414SOL     OW76819   6.718   0.251   0.126  0.2649 -0.0001  0.1261
25414SOL    HW176820   6.624   0.241   0.143 -0.1109  0.9425 -1.1758
25414SOL    HW276821   6.728   0.225   0.034  0.7160  2.6309 -0.6741
25415SOL     OW76822   3.774   4.902   8.602 -0.3079 -0.1304  0.6653
25415SOL    HW176823   3.837   4.905   8.674 -0.1721  1.7136  0.5190
25415SOL    HW276824   3.814   4.844   8.537  1.8549  1.8559  0.0872
25416SOL     OW76825   4.651   2.592   7.490 -0.2401 -0.3992  0.3468
25416SOL    HW176826   4.661   2.609   7.396 -0.1977 -0.6110  0.3124
25416SOL    HW276827   4.634   2.498   7.496  2.0976 -0.8585  0.7163
25417SOL     OW76828   8.439   0.867   5.913  0.0069  0.1431 -0.0336
25417SOL    HW176829   8.345   0.867   5.898 -0.0599 -2.2463 -0.0453
25417SOL    HW276830   8.468   0.954   5.885 -2.1134  0.8024 -0.3875
25418SOL     OW76831   2.002   8.850   0.911  0.1157 -0.6831 -0.2718
25418SOL    HW176832   2.053   8.782   0.954 -0.1750 -2.2331 -2.2479
25418SOL    HW276833   2.022   8.841   0.818 -1.2696  0.7933 -0.7727
25419SOL     OW76834   6.311   5.310   7.217  0.2357  0.0771  0.2129
25419SOL    HW176835   6.392   5.270   7.184  0.0607 -1.3803  1.4257
25419SOL    HW276836   6.248   5.238   7.219 -0.5648  0.7822  0.9669
25420SOL     OW76837   3.634   7.518   6.430 -0.5752  0.0161 -0.4667
25420SOL    HW176838   3.546   7.555   6.421 -0.7570 -0.1596  0.4992
25420SOL    HW276839   3.654   7.483   6.343 -1.4519  0.0796 -0.7067
25421SOL     OW76840   1.162   1.204   9.418  0.1131 -0.0527 -0.0451
25421SOL    HW176841   1.108   1.213   9.340 -1.4455  0.7217  1.0674
25421SOL    HW276842   1.126   1.128   9.464  0.0798  0.3547  0.6164
25422SOL     OW76843   7.298   9.810   2.625 -0.4772  0.5659 -0.3875
25422SOL    HW176844   7.262   9.880   2.680 -0.2130  0.8004 -0.5122
25422SOL    HW276845   7.382   9.844   2.595 -0.7262  0.5380 -1.1405
25423SOL     OW76846   2.245   7.645   0.871 -0.5152  0.0029 -0.2436
25423SOL    HW176847   2.323   7.699   0.854  0.0668 -0.4937  0.7294
25423SOL    HW276848   2.281   7.560   0.897 -1.3068  0.2899  2.0057
25424SOL     OW76849   9.060   5.290   3.660  0.0943 -0.5767 -0.0430
25424SOL    HW176850   9.133   5.308   3.601  0.8357  1.1795  1.3112
25424SOL    HW276851   9.099   5.242   3.733  0.0309  0.6872  0.8628
25425SOL     OW76852   1.121   9.267   4.585  0.0780  0.1905 -0.2430
25425SOL    HW176853   1.132   9.172   4.589  0.1470  0.1747 -0.7485
25425SOL    HW276854   1.155   9.291   4.499  0.0423  0.6699 -0.1213
25426SOL     OW76855   5.424   6.436   8.389 -0.0427  0.0526 -0.3069
25426SOL    HW176856   5.465   6.421   8.303  1.8000 -0.9471  0.6726
25426SOL    HW276857   5.360   6.366   8.397 -1.0925  0.8532 -1.3220
25427SOL     OW76858   5.845   9.893   3.202 -0.5522 -0.0635  0.0110
25427SOL    HW176859   5.843   9.975   3.252 -0.4115  0.6262 -1.0760
25427SOL    HW276860   5.753   9.867   3.194 -0.6540  0.3894 -0.2810
25428SOL     OW76861   4.109   1.965   7.295  0.0332 -0.2753  0.0933
25428SOL    HW176862   4.133   1.876   7.322  0.5114 -0.3309 -0.4862
25428SOL    HW276863   4.027   1.954   7.246 -0.2627 -0.3103  0.5978
25429SOL     OW76864   0.919   0.736   8.661 -0.0987 -0.0200  0.1879
25429SOL    HW176865   0.925   0.714   8.754 -2.3092 -1.2923  0.0996
25429SOL    HW276866   0.866   0.666   8.623  0.7847  0.4488 -2.0593
25430SOL     OW76867   2.034   1.524   7.428  0.4719 -0.0765 -0.1958
25430SOL    HW176868   1.944   1.496   7.411  0.9479 -1.8478  0.0144
25430SOL    HW276869   2.025   1.602   7.483 -0.9381  0.7163 -1.4638
25431SOL     OW76870   4.076   1.882   2.901 -0.1319 -0.1766  0.4078
25431SOL    HW176871   4.142   1.877   2.832 -1.0707 -1.1425 -0.4493
25431SOL    HW276872   4.117   1.837   2.976 -0.5331 -2.6971 -0.7676
25432SOL     OW76873   7.976   0.658   9.649  0.4417 -0.7382 -0.0395
25432SOL    HW176874   7.883   0.681   9.644  0.6422  0.3427  0.8139
25432SOL    HW276875   8.000   0.639   9.558 -0.2782  0.4194 -0.5053
25433SOL     OW76876   1.182   5.438   6.399 -0.2071  0.7442 -0.2413
25433SOL    HW176877   1.114   5.497   6.431  0.0487  0.6438  0.5112
25433SOL    HW276878   1.176   5.444   6.303 -0.3652  1.7661 -0.1813
25434SOL     OW76879   5.749   2.004   0.746 -0.0881  0.5855 -0.0312
25434SOL    HW176880   5.683   2.033   0.684  1.2880  1.2851 -1.2213
25434SOL    HW276881   5.781   2.084   0.787  1.0127  0.4212 -0.5242
25435SOL     OW76882   8.080   3.137   4.585  0.3449 -0.2487  0.2567
25435SOL    HW176883   8.048   3.088   4.509  2.4781 -0.6385 -0.4389
25435SOL    HW276884   8.168   3.165   4.561  0.2150  1.6424  1.7021
25436SOL     OW76885   6.370   7.731   6.767 -0.1501 -0.2206 -0.1403
25436SOL    HW176886   6.372   7.719   6.862  0.9697 -1.8827 -0.3351
25436SOL    HW276887   6.345   7.646   6.732 -0.2480  0.2881 -1.3650
25437SOL     OW76888   8.890   5.742   9.673  0.3619 -0.1533  0.5385
25437SOL    HW176889   8.917   5.660   9.713  0.8932 -0.6485 -0.7951
25437SOL    HW276890   8.927   5.810   9.731 -0.1280 -0.8243  1.6739
25438SOL     OW76891   9.396   3.661   3.060  0.1704  0.3689  0.0790
25438SOL    HW176892   9.434   3.650   3.148  1.4350  0.8792 -0.3746
25438SOL    HW276893   9.388   3.571   3.027  0.0764  0.1949  0.5559
25439SOL     OW76894   3.565   5.372   1.631 -0.6964  0.0837  0.5970
25439SOL    HW176895   3.652   5.336   1.616 -0.9161 -0.2641  0.1383
25439SOL    HW276896   3.526   5.315   1.698 -1.2120 -0.8354 -0.4503
25440SOL     OW76897   7.189   1.473   0.778  0.0345  0.1353 -0.2471
25440SOL    HW176898   7.212   1.438   0.864 -1.8633  0.8289  0.6061
25440SOL    HW276899   7.208   1.566   0.783  0.5486  0.0690 -0.8295
25441SOL     OW76900   6.760   6.604   0.484  0.3953  0.1385 -0.2157
25441SOL    HW176901   6.807   6.636   0.407 -0.4448  0.0984 -0.7588
25441SOL    HW276902   6.710   6.679   0.514 -1.3514 -0.5306 -1.3133
25442SOL     OW76903   4.830   5.379   5.224 -0.0353 -0.0881  0.1134
25442SOL    HW176904   4.770   5.311   5.193 -0.9147 -0.2488  1.9919
25442SOL    HW276905   4.908   5.370   5.169 -0.5752 -1.8661 -0.4271
25443SOL     OW76906   8.262   8.728   3.327 -0.4512  0.1662 -0.6036
25443SOL    HW176907   8.285   8.694   3.413 -3.1987 -1.3958 -0.3486
25443SOL    HW276908   8.304   8.667   3.265 -0.2521 -0.0011 -0.3034
25444SOL     OW76909   7.312   6.747   4.198 -0.1488  0.6650 -0.6963
25444SOL    HW176910   7.247   6.783   4.258 -2.3641 -0.6091 -2.1953
25444SOL    HW276911   7.285   6.778   4.112  0.7059 -0.6339 -1.4582
25445SOL     OW76912   8.963   7.618   9.788  0.2265  0.1576 -0.0861
25445SOL    HW176913   8.951   7.709   9.762 -0.5080  0.1441  0.1655
25445SOL    HW276914   8.897   7.604   9.856 -0.2438 -0.7923 -0.7104
25446SOL     OW76915   0.816   1.359   1.484  0.0310  0.5955 -0.0709
25446SOL    HW176916   0.744   1.360   1.422  0.4651  0.0590 -0.5897
25446SOL    HW276917   0.875   1.291   1.452  0.1404  0.1272  1.0618
25447SOL     OW76918   8.776   1.986   5.576 -0.2289 -0.3167 -0.4259
25447SOL    HW176919   8.695   1.983   5.627 -0.1521  3.7007  0.2875
25447SOL    HW276920   8.830   2.051   5.622  1.4166  0.6840 -3.5033
25448SOL     OW76921   5.139   0.834   7.580  0.6354  1.0087  0.5476
25448SOL    HW176922   5.118   0.893   7.507 -0.0708  0.9855  0.7209
25448SOL    HW276923   5.215   0.785   7.550 -1.6117 -1.4641 -1.6750
25449SOL     OW76924   6.709   1.796   2.770 -0.2189 -0.4799  0.2248
25449SOL    HW176925   6.636   1.734   2.763 -0.4404 -0.4227  1.6556
25449SOL    HW276926   6.676   1.866   2.826 -0.3560  1.5951 -2.2427
25450SOL     OW76927   4.151   9.026   3.835  0.5559 -0.2951  0.1518
25450SOL    HW176928   4.179   8.960   3.770  2.5287 -1.4159  1.9943
25450SOL    HW276929   4.204   9.103   3.815  1.5810 -0.8291  0.7352
25451SOL     OW76930   3.355   1.044   2.311  0.4083 -0.5383  0.4087
25451SOL    HW176931   3.303   1.025   2.233  1.0765 -2.4324  0.3602
25451SOL    HW276932   3.431   0.986   2.303  1.5008  0.7026  1.4767
25452SOL     OW76933   5.638   1.800   9.913 -0.5220  0.2488  0.1575
25452SOL    HW176934   5.678   1.807  10.000 -1.2012 -2.4581  0.7871
25452SOL    HW276935   5.544   1.801   9.930 -0.6604 -0.3189 -0.5121
25453SOL     OW76936   2.829   1.549   5.073  0.4605 -0.9763 -0.1587
25453SOL    HW176937   2.741   1.547   5.109  0.2349 -2.9475 -0.7151
25453SOL    HW276938   2.816   1.547   4.978  1.0909 -2.4962 -0.2342
25454SOL     OW76939   0.909   3.508   6.479 -0.0294 -0.1475  0.1288
25454SOL    HW176940   0.898   3.413   6.489  2.2112 -0.4332  0.3584
25454SOL    HW276941   1.003   3.521   6.473 -0.3164  2.0151 -0.7380
25455SOL     OW76942   7.188   7.754   8.063 -0.0887  0.0375  1.0308
25455SOL    HW176943   7.203   7.830   8.007 -0.9245 -0.3751  0.2230
25455SOL    HW276944   7.235   7.682   8.019  0.4125  0.0097  1.6052
25456SOL     OW76945   8.548   1.605   9.545  0.5740  0.7170 -0.1588
25456SOL    HW176946   8.478   1.567   9.598  1.4532 -0.2054  0.3826
25456SOL    HW276947   8.504   1.664   9.485 -0.8688 -1.1010 -0.9891
25457SOL     OW76948   0.211   9.020   5.533 -0.6059  0.6403  0.0413
25457SOL    HW176949   0.203   8.990   5.624 -3.3211  0.3392 -0.2279
25457SOL    HW276950   0.298   9.059   5.529  0.0232 -0.3075  2.4762
25458SOL     OW76951   0.523   2.446   9.184 -0.2795 -0.3283 -0.2668
25458SOL    HW176952   0.523   2.429   9.090  2.6278 -0.3423 -0.3443
25458SOL    HW276953   0.614   2.433   9.211 -1.0119 -0.2779  2.5558
25459SOL     OW76954   5.437   6.407   2.628  0.0848 -0.1269  0.1972
25459SOL    HW176955   5.407   6.394   2.538 -1.2673  1.2987  0.4031
25459SOL    HW276956   5.517   6.354   2.634  0.6214  0.3163 -2.0555
25460SOL     OW76957   2.691   7.388   3.894 -0.2681 -0.0015 -0.4072
25460SOL    HW176958   2.743   7.390   3.975  1.0075  1.4495 -1.2026
25460SOL    HW276959   2.660   7.478   3.883 -1.3391 -0.4287 -0.9773
25461SOL     OW76960   8.883   2.896   3.122  0.0612 -0.0892 -0.2270
25461SOL    HW176961   8.900   2.880   3.029  0.0176 -1.8681  0.0420
25461SOL    HW276962   8.801   2.946   3.123  1.1028  1.7598 -1.1887
25462SOL     OW76963   9.698   6.473   9.679 -0.4034 -0.3435 -0.0830
25462SOL    HW176964   9.779   6.514   9.710  0.2456  0.1131 -2.1860
25462SOL    HW276965   9.639   6.476   9.754  0.8674  1.1531  0.9210
25463SOL     OW76966   6.529   7.924   9.772  0.3112 -0.5953  0.3313
25463SOL    HW176967   6.491   7.968   9.848  0.7764 -1.4160  1.0661
25463SOL    HW276968   6.460   7.867   9.740  0.3059 -0.6859  0.5038
25464SOL     OW76969   3.706   5.288   3.442  0.2864  0.2568  0.6975
25464SOL    HW176970   3.710   5.271   3.348 -0.3824 -0.0961  0.7252
25464SOL    HW276971   3.653   5.216   3.477  0.4192  0.4607  1.3249
25465SOL     OW76972   6.458   9.889   0.421 -0.2338 -0.8080  0.4027
25465SOL    HW176973   6.516   9.829   0.375 -0.0452 -0.2412 -0.0949
25465SOL    HW276974   6.457   9.857   0.512 -0.4962 -1.8389  0.0491
25466SOL     OW76975   8.528   3.055   1.359 -1.0836 -0.0663  0.1436
25466SOL    HW176976   8.536   2.968   1.318  0.9742 -0.3499  0.9783
25466SOL    HW276977   8.518   3.036   1.453 -0.4649  0.5847  0.3500
25467SOL     OW76978   1.641   1.576   5.707 -0.7337  0.1914  0.2132
25467SOL    HW176979   1.630   1.488   5.671  0.8119 -0.9592  2.3784
25467SOL    HW276980   1.553   1.600   5.738 -0.9357 -1.0561  0.6390
25468SOL     OW76981   3.135   5.266   4.180  0.2992  0.0290  0.2826
25468SOL    HW176982   3.167   5.265   4.271  0.0796  0.9601  0.3850
25468SOL    HW276983   3.158   5.353   4.148 -0.2245 -0.0552 -0.3385
25469SOL     OW76984   5.869   1.864   5.300 -0.9318 -0.0905 -0.3069
25469SOL    HW176985   5.914   1.780   5.290 -0.8688 -0.0529 -0.3380
25469SOL    HW276986   5.839   1.885   5.212 -0.3755  0.2417 -0.4202
25470SOL     OW76987   2.432   3.992   8.814  0.4225 -0.3096 -0.1419
25470SOL    HW176988   2.516   3.955   8.786  1.0099  1.6421 -1.0674
25470SOL    HW276989   2.452   4.082   8.840 -1.2089 -0.1407  0.6632
25471SOL     OW76990   6.893   6.250   2.061 -0.0917 -0.2233  0.2743
25471SOL    HW176991   6.923   6.172   2.014  1.3437 -0.7571  1.9620
25471SOL    HW276992   6.800   6.235   2.076  0.1305 -1.5811  0.4450
25472SOL     OW76993   4.595   0.426   7.600  0.1892 -0.2882 -0.3747
25472SOL    HW176994   4.618   0.335   7.585 -1.0925 -0.3257 -2.3559
25472SOL    HW276995   4.679   0.473   7.595  0.5883 -1.0966 -1.6241
25473SOL     OW76996   8.056   8.542   9.076  0.3644  0.0819 -0.5812
25473SOL    HW176997   8.132   8.484   9.070  0.9391  0.5288  1.5741
25473SOL    HW276998   8.090   8.623   9.115 -1.1723  0.3876  0.1980
25474SOL     OW76999   1.046   8.813   3.979 -0.0234  0.8799 -0.3976
25474SOL    HW177000   1.084   8.825   3.892  1.6844  0.7056  0.2968
25474SOL    HW277001   1.035   8.719   3.989  1.0804  0.7914  0.0893
25475SOL     OW77002   8.121   5.778   5.202  0.5674 -0.1022 -0.3357
25475SOL    HW177003   8.068   5.806   5.127  0.6658  0.5769 -0.1599
25475SOL    HW277004   8.211   5.789   5.173  0.6098 -0.3910 -0.3165
25476SOL     OW77005   4.206   8.373   4.896 -0.0671  0.4709 -0.5078
25476SOL    HW177006   4.195   8.344   4.806 -0.0225  0.1271 -0.4023
25476SOL    HW277007   4.286   8.426   4.895 -0.6568  1.3882 -0.8889
25477SOL     OW77008   4.164   3.329   3.196 -0.2628  0.0198  0.3580
25477SOL    HW177009   4.249   3.367   3.217  0.2171 -0.1872 -1.0798
25477SOL    HW277010   4.116   3.401   3.153  0.5506 -0.8332 -2.1341
25478SOL     OW77011   5.664   1.626   3.417  1.2074  0.0888 -0.1867
25478SOL    HW177012   5.668   1.646   3.511 -0.5681 -0.4552  0.0433
25478SOL    HW277013   5.599   1.686   3.382  0.6279 -0.8303 -0.7374
25479SOL     OW77014   8.972   8.284   2.079  0.5882 -0.0153 -0.3672
25479SOL    HW177015   9.039   8.215   2.075  0.5308 -0.1881  1.0864
25479SOL    HW277016   9.004   8.344   2.146 -0.2462  0.4192 -0.3529
25480SOL     OW77017   0.009   6.192   1.695  0.0455  0.3635  0.7852
25480SOL    HW177018   0.048   6.279   1.703 -1.0221  0.9634 -0.3190
25480SOL    HW277019  -0.055   6.200   1.625  0.2900 -1.4572  0.3059
25481SOL     OW77020   0.578   4.633   8.669 -0.0973 -0.3655  0.3952
25481SOL    HW177021   0.503   4.662   8.721  0.3961 -0.1699  1.0107
25481SOL    HW277022   0.540   4.582   8.598 -0.9239  0.9727 -0.1557
25482SOL     OW77023   3.154   5.522   5.757 -0.1095  0.4025 -0.3162
25482SOL    HW177024   3.165   5.466   5.833 -1.2247 -0.5455 -0.8167
25482SOL    HW277025   3.215   5.488   5.692 -0.5526 -0.0295 -0.5081
25483SOL     OW77026   0.850   0.996   9.347  0.3486 -1.0894 -0.7929
25483SOL    HW177027   0.784   1.028   9.408  1.3612 -0.8394  0.1887
25483SOL    HW277028   0.860   1.068   9.284  1.0516 -0.3322  0.1594
25484SOL     OW77029   2.259   5.930   0.558 -0.4081 -0.1433  1.2585
25484SOL    HW177030   2.337   5.967   0.599  0.6788 -1.0767  0.1551
25484SOL    HW277031   2.220   6.003   0.510  1.0052 -0.0737  0.1120
25485SOL     OW77032   1.827   3.380   1.852  0.3812  0.1877  0.0140
25485SOL    HW177033   1.742   3.412   1.821  0.7106 -0.6954 -1.9264
25485SOL    HW277034   1.805   3.326   1.928 -0.6442  1.0243  0.3475
25486SOL     OW77035   8.569   8.315   0.461  0.1489 -0.2413 -0.3568
25486SOL    HW177036   8.501   8.318   0.394 -0.1879  1.0794  0.0225
25486SOL    HW277037   8.523   8.292   0.542  0.1786  0.4273 -0.1438
25487SOL     OW77038   6.403   0.127   7.408 -0.3454 -0.0505  0.2127
25487SOL    HW177039   6.490   0.086   7.408 -0.2163  0.2145  0.4056
25487SOL    HW277040   6.359   0.090   7.484 -0.4986 -0.3846 -0.0385
25488SOL     OW77041   0.202   5.667   1.677  0.3468  0.1568 -0.2044
25488SOL    HW177042   0.265   5.595   1.668  2.2265  1.6079  0.5194
25488SOL    HW277043   0.223   5.725   1.604  0.1094  0.8378  0.2607
25489SOL     OW77044   8.310   3.086   2.479  0.0808 -0.2789  0.4506
25489SOL    HW177045   8.217   3.106   2.488 -0.4633 -2.4792  0.4062
25489SOL    HW277046   8.329   3.026   2.552  0.8501 -1.7062 -0.8588
25490SOL     OW77047   3.672   5.883   7.861  0.2926  0.0575 -0.2895
25490SOL    HW177048   3.755   5.929   7.844 -0.5932  0.7649 -3.2065
25490SOL    HW277049   3.668   5.815   7.795 -2.2615  1.2244 -1.4560
25491SOL     OW77050   1.700   4.969   7.668 -0.2501 -0.0054 -0.3495
25491SOL    HW177051   1.692   4.938   7.578 -2.9381  0.8930 -0.5320
25491SOL    HW277052   1.703   4.890   7.721  1.3322 -0.5485 -1.1904
25492SOL     OW77053   5.373   7.231   1.371  0.3879 -0.3661 -0.0538
25492SOL    HW177054   5.345   7.241   1.462  0.5832  1.1171 -0.1428
25492SOL    HW277055   5.299   7.263   1.319  1.5163  1.9660 -0.3226
25493SOL     OW77056   2.315   6.983   2.200  0.3148  0.6246 -0.0452
25493SOL    HW177057   2.353   6.896   2.215  1.8986  1.6908  3.0634
25493SOL    HW277058   2.223   6.974   2.225  0.1269 -0.4179 -1.0262
25494SOL     OW77059   9.219   7.879   3.344 -0.3587  0.0048 -0.0547
25494SOL    HW177060   9.241   7.969   3.366 -0.9265  0.0510  0.3263
25494SOL    HW277061   9.198   7.881   3.251 -1.2140  0.4338  0.1388
25495SOL     OW77062   6.728   1.067   0.167  0.0061  0.4078  0.2147
25495SOL    HW177063   6.706   1.107   0.082  2.4358  0.3517 -0.5245
25495SOL    HW277064   6.644   1.052   0.209 -1.4447 -0.8977 -2.8019
25496SOL     OW77065   1.839   7.946   8.507 -0.0119 -0.0934 -0.2911
25496SOL    HW177066   1.793   7.866   8.484 -1.3054  0.4348  0.3606
25496SOL    HW277067   1.875   7.978   8.425  0.9895 -1.6129 -0.4707
25497SOL     OW77068   6.122   9.528   3.463  0.3330 -0.3470 -0.4621
25497SOL    HW177069   6.130   9.612   3.419  3.0112 -1.3559 -2.1743
25497SOL    HW277070   6.063   9.477   3.406  0.1835 -0.2141 -0.4261
25498SOL     OW77071   5.229   7.198   9.009  0.2880  0.0590 -0.6264
25498SOL    HW177072   5.290   7.172   8.939  0.4865  0.8150 -0.7371
25498SOL    HW277073   5.281   7.253   9.067 -0.2502  0.5997 -0.6463
25499SOL     OW77074   6.196   5.169   4.993  0.2582 -0.0270  0.4957
25499SOL    HW177075   6.116   5.118   5.003  0.5620 -0.5333  0.3614
25499SOL    HW277076   6.167   5.253   4.957 -0.0973 -0.6038 -0.6073
25500SOL     OW77077   0.820   6.243   7.045 -0.0584  0.7056 -0.1363
25500SOL    HW177078   0.805   6.158   7.085  0.6967 -1.3469 -3.7621
25500SOL    HW277079   0.915   6.249   7.035 -0.1261  1.8350 -0.2906
25501SOL     OW77080   3.112   5.541   9.554  0.0986  0.2322  0.7750
25501SOL    HW177081   3.169   5.617   9.538 -1.5657  1.1148 -1.6490
25501SOL    HW277082   3.055   5.568   9.626 -0.6664  1.4673 -0.2503
25502SOL     OW77083   4.359   8.351   4.227 -0.1222  0.7137  0.1025
25502SOL    HW177084   4.350   8.290   4.301 -0.1535  0.7110  0.0965
25502SOL    HW277085   4.444   8.331   4.189 -0.4787  0.1184 -0.4025
25503SOL     OW77086   2.333   2.694   9.640  0.2963 -0.3136 -0.3066
25503SOL    HW177087   2.368   2.779   9.615  0.3827 -0.0236  0.7796
25503SOL    HW277088   2.243   2.696   9.609  0.0015  0.5580  0.5605
25504SOL     OW77089   9.747   5.154   0.832  0.5354 -0.1885  0.1388
25504SOL    HW177090   9.795   5.214   0.775 -1.5652 -0.4355 -2.0437
25504SOL    HW277091   9.728   5.205   0.911  0.6560  1.2775 -0.7585
25505SOL     OW77092   9.567  -0.015   5.480  0.1813  0.4100  0.6735
25505SOL    HW177093   9.509   0.032   5.420  0.5289 -0.0437 -0.0294
25505SOL    HW277094   9.651   0.031   5.473  0.6578 -0.5473 -0.3698
25506SOL     OW77095   4.067   1.953   9.525  0.2018  0.0101  0.1342
25506SOL    HW177096   4.055   1.865   9.488 -0.4038  0.3010 -0.3676
25506SOL    HW277097   4.062   1.939   9.620  1.8945 -0.7547  0.1476
25507SOL     OW77098   3.644   7.296   5.379  0.0563  0.0091  0.0615
25507SOL    HW177099   3.633   7.248   5.460 -0.3645  0.3326  0.2012
25507SOL    HW277100   3.562   7.283   5.331 -0.4069  1.2588  0.4720
25508SOL     OW77101   3.033   6.616   7.332 -0.0681 -0.5156  0.2579
25508SOL    HW177102   3.044   6.707   7.359 -0.3118 -0.2573 -0.4786
25508SOL    HW277103   3.012   6.569   7.413  1.2492 -0.1330  0.8488
25509SOL     OW77104   7.899   6.817   1.656 -0.6392  0.0911 -0.3751
25509SOL    HW177105   7.864   6.838   1.569 -0.4084 -0.5950 -0.6385
25509SOL    HW277106   7.993   6.812   1.644 -0.7018 -1.5847 -0.4584
25510SOL     OW77107   8.724   6.144   0.253  0.2881  0.1663 -0.3283
25510SOL    HW177108   8.667   6.068   0.263 -2.4883  2.1208 -0.2016
25510SOL    HW277109   8.746   6.170   0.342  0.1791  0.2584 -0.3282
25511SOL     OW77110   6.928   3.087   1.575 -0.1835 -0.4436  0.3967
25511SOL    HW177111   6.991   3.056   1.510  1.1747  0.8713  1.0084
25511SOL    HW277112   6.845   3.091   1.528 -0.0076 -2.8404 -0.2673
25512SOL     OW77113   1.108   1.220   2.622 -0.9191  0.2306 -0.4616
25512SOL    HW177114   1.146   1.207   2.535  0.7809  2.6606 -0.1932
25512SOL    HW277115   1.181   1.255   2.675 -1.6943 -1.7868  2.1655
25513SOL     OW77116   9.936   7.893   1.792  0.2148  0.3063 -0.2653
25513SOL    HW177117   9.979   7.925   1.713  1.6588 -0.5633  0.1515
25513SOL    HW277118   9.995   7.828   1.829 -1.3052 -0.7166  0.5152
25514SOL     OW77119   0.728   7.943   4.003  0.1261  0.0036  0.5641
25514SOL    HW177120   0.817   7.968   4.030 -0.0169 -0.7956  1.8939
25514SOL    HW277121   0.701   8.011   3.942  2.5115 -0.9105 -1.7174
25515SOL     OW77122   2.316   2.053   4.181  0.0472 -0.8018 -0.1457
25515SOL    HW177123   2.220   2.049   4.183  0.0597 -1.0808 -0.1505
25515SOL    HW277124   2.345   1.972   4.222  0.2815 -0.9944 -0.6822
25516SOL     OW77125   3.617   9.098   7.507 -0.1049  0.6849 -0.1867
25516SOL    HW177126   3.648   9.152   7.581  1.2103  0.6865 -0.7203
25516SOL    HW277127   3.691   9.095   7.447 -1.7963  2.4438 -2.5468
25517SOL     OW77128   3.148   5.044   2.188 -0.0469 -0.6562  0.0933
25517SOL    HW177129   3.188   5.131   2.185 -0.0750 -0.6203  0.6742
25517SOL    HW277130   3.158   5.016   2.278 -0.7532 -0.9216  0.1010
25518SOL     OW77131   4.426   4.649   3.550 -1.0538 -0.0991  0.0987
25518SOL    HW177132   4.501   4.601   3.516 -0.2170  0.3040  1.3488
25518SOL    HW277133   4.463   4.718   3.603 -2.1713  2.6593 -2.4133
25519SOL     OW77134   0.254   1.845   1.996  0.2456  0.2926  0.1143
25519SOL    HW177135   0.305   1.849   1.915  1.3182  3.0921  0.7986
25519SOL    HW277136   0.284   1.765   2.039  1.9349  0.3346 -0.8877
25520SOL     OW77137   0.651   2.432   4.927 -0.2026  0.1457 -0.3907
25520SOL    HW177138   0.603   2.349   4.927 -0.2139  0.1523 -0.4215
25520SOL    HW277139   0.625   2.474   5.009 -0.3863  0.2266 -0.4890
25521SOL     OW77140   6.103   1.928   7.418 -0.4329  0.6744  0.3712
25521SOL    HW177141   6.162   1.856   7.440  0.4042  1.2939  0.1731
25521SOL    HW277142   6.016   1.887   7.416  0.0674 -0.4058 -0.0987
25522SOL     OW77143   6.430   7.807   5.571 -0.0452 -0.4978 -0.0499
25522SOL    HW177144   6.517   7.839   5.546 -0.3556 -0.3448 -0.9744
25522SOL    HW277145   6.422   7.722   5.527  0.7405 -1.8879  2.3168
25523SOL     OW77146   6.963   0.416   4.446  0.0870  0.3778 -0.1223
25523SOL    HW177147   6.968   0.348   4.379  1.1680  0.7195 -0.4214
25523SOL    HW277148   7.055   0.432   4.470 -0.1485  1.6640 -0.0011
25524SOL     OW77149   2.356   5.289   3.338 -0.8721  0.2271  0.2087
25524SOL    HW177150   2.352   5.383   3.323 -0.4115  0.2197 -0.0004
25524SOL    HW277151   2.367   5.251   3.251  0.9188  0.1227  0.4398
25525SOL     OW77152   6.938   2.492   4.152  0.5106  0.7623  0.1019
25525SOL    HW177153   6.968   2.401   4.156 -0.1455  0.4072 -1.9887
25525SOL    HW277154   6.852   2.491   4.194  0.1380  0.2330 -0.6603
25526SOL     OW77155   2.829   9.319   0.911 -0.1145  0.1662  0.2242
25526SOL    HW177156   2.758   9.330   0.974 -0.9027 -0.2161 -0.5848
25526SOL    HW277157   2.906   9.354   0.956 -0.7907  0.5146  1.1411
25527SOL     OW77158   7.278   4.133   4.128  0.6166  0.2842 -0.1486
25527SOL    HW177159   7.366   4.118   4.095  1.3110  0.7974  1.3827
25527SOL    HW277160   7.257   4.054   4.178  0.3335  0.2912 -0.2564
25528SOL     OW77161   1.735   0.142   7.686  0.0995  0.1814  0.1815
25528SOL    HW177162   1.723   0.145   7.592 -0.2901 -0.3497  0.2058
25528SOL    HW277163   1.781   0.223   7.708  0.5035  0.1417 -0.5034
25529SOL     OW77164   9.561   2.008   3.732  0.3563 -0.4681 -0.2199
25529SOL    HW177165   9.649   2.046   3.729  0.4310 -0.6455 -0.2859
25529SOL    HW277166   9.518   2.051   3.806  0.0369  0.6213 -1.0156
25530SOL     OW77167   6.119   0.175   5.340  0.1051  0.9439 -0.2597
25530SOL    HW177168   6.072   0.228   5.404 -0.1331  1.2113 -0.6474
25530SOL    HW277169   6.053   0.152   5.275  0.2818  0.4467 -0.2691
25531SOL     OW77170   5.659   2.815   0.051 -0.0682 -0.3839 -0.4045
25531SOL    HW177171   5.636   2.858  -0.031  1.7985  1.0887 -0.2180
25531SOL    HW277172   5.734   2.759   0.028 -0.9346 -1.6881 -0.1338
25532SOL     OW77173   0.976   4.030   8.116  0.3605  0.2735  0.1442
25532SOL    HW177174   0.963   4.095   8.046 -1.7730 -1.4895 -1.2304
25532SOL    HW277175   1.060   4.053   8.155  1.3719  1.7098 -2.6216
25533SOL     OW77176   4.694   6.492   3.388 -0.2790  0.4774  0.4665
25533SOL    HW177177   4.607   6.457   3.411  0.0801 -0.0251  1.0922
25533SOL    HW277178   4.751   6.416   3.392 -0.0868  0.4760 -1.5723
25534SOL     OW77179   2.541   9.772   1.838 -0.1440 -0.7928  0.9349
25534SOL    HW177180   2.499   9.838   1.893 -0.6580  0.9332 -1.3469
25534SOL    HW277181   2.629   9.763   1.874  0.2888  1.9559  0.7965
25535SOL     OW77182   8.585   2.601   9.589  0.8098 -0.0061  0.0921
25535SOL    HW177183   8.611   2.540   9.519  0.4487 -0.3032  0.2133
25535SOL    HW277184   8.538   2.546   9.651  2.0333  0.0457  1.0883
25536SOL     OW77185   2.421   4.181   3.918 -0.3660 -0.2199 -0.1161
25536SOL    HW177186   2.474   4.107   3.948  0.6357  0.1596 -0.8945
25536SOL    HW277187   2.374   4.148   3.842 -0.8375 -0.3950  0.2465
25537SOL     OW77188   3.031   9.228   4.641  0.2613  0.2422  0.6867
25537SOL    HW177189   3.093   9.251   4.571  1.8552 -1.1938  1.5464
25537SOL    HW277190   3.063   9.276   4.717 -0.4532  0.4764  0.8413
25538SOL     OW77191   0.385   0.918   2.279 -0.3434  0.3325  0.2238
25538SOL    HW177192   0.444   0.984   2.242  0.8977 -0.1255  1.3262
25538SOL    HW277193   0.369   0.858   2.206  0.4852  0.5003 -0.1059
25539SOL     OW77194   2.015   0.040   4.102  0.2389 -0.0189  0.5481
25539SOL    HW177195   1.932   0.024   4.057 -0.9463  1.5750  2.0313
25539SOL    HW277196   2.078   0.056   4.032 -0.7401 -1.0357 -0.6068
25540SOL     OW77197   2.225   8.084   3.145  0.0957 -0.1806  0.3701
25540SOL    HW177198   2.189   8.062   3.059  0.0308  0.6761  0.1750
25540SOL    HW277199   2.253   8.175   3.137  0.8233 -0.3389  1.0143
25541SOL     OW77200   4.177   3.927   2.982  0.2198  0.0915 -0.3797
25541SOL    HW177201   4.194   3.882   2.899 -0.0960 -1.9445  0.6069
25541SOL    HW277202   4.230   4.006   2.978 -1.6552  1.3692 -3.5703
25542SOL     OW77203   5.821   7.544   0.231 -0.2890  0.0482  0.7340
25542SOL    HW177204   5.862   7.474   0.180 -0.7207 -0.0415  0.5074
25542SOL    HW277205   5.887   7.613   0.233 -1.0532  0.9829 -1.8696
25543SOL     OW77206   0.353   5.195   7.888  0.1866  0.2651  0.0600
25543SOL    HW177207   0.362   5.239   7.804  2.2315 -0.4860 -0.1576
25543SOL    HW277208   0.288   5.247   7.935  0.4654  1.8606 -1.2206
25544SOL     OW77209   8.911   8.924   9.220 -0.5617  0.3061 -0.3312
25544SOL    HW177210   8.817   8.907   9.220 -0.6336  0.5006  1.6578
25544SOL    HW277211   8.919   9.018   9.210 -0.6685  0.4844  1.0877
25545SOL     OW77212   7.748   2.075   4.224  0.2962  0.5427  0.0665
25545SOL    HW177213   7.664   2.105   4.189  0.3264 -0.2228 -0.7074
25545SOL    HW277214   7.803   2.153   4.225  0.1202  0.7105 -1.1012
25546SOL     OW77215   4.307   8.727   1.048  0.4979  0.2934 -0.2300
25546SOL    HW177216   4.304   8.635   1.075 -0.5453  0.5571  0.6354
25546SOL    HW277217   4.246   8.732   0.975 -3.8002  1.2386  3.0429
25547SOL     OW77218   4.149   8.715   8.779  0.3112 -0.3844  0.2779
25547SOL    HW177219   4.217   8.664   8.822 -0.0777 -3.0592 -1.9815
25547SOL    HW277220   4.074   8.655   8.772 -0.6629  0.9270 -1.3342
25548SOL     OW77221   0.600   4.407   3.274 -0.1985  0.1268 -0.0287
25548SOL    HW177222   0.530   4.463   3.308 -0.8910 -1.0933  0.6145
25548SOL    HW277223   0.586   4.407   3.179 -0.5119  0.6145  0.0121
25549SOL     OW77224   8.616   1.602   8.668 -0.5731  0.3198  0.0459
25549SOL    HW177225   8.633   1.692   8.697  0.9603  0.7425 -1.9797
25549SOL    HW277226   8.591   1.611   8.576 -1.3353 -1.2771  0.0667
25550SOL     OW77227   7.878   3.546   3.297  0.1612  0.2340 -0.4745
25550SOL    HW177228   7.814   3.550   3.369  1.6029 -2.4394  1.1484
25550SOL    HW277229   7.858   3.464   3.253  1.4411  0.1813 -0.9809
25551SOL     OW77230   8.512   9.046   7.124  0.0417 -0.0791 -0.2572
25551SOL    HW177231   8.500   8.983   7.053 -1.5161 -1.1273  0.8484
25551SOL    HW277232   8.449   9.115   7.104  1.0335  0.6624 -0.9281
25552SOL     OW77233   5.716   4.783   9.550 -0.2157 -0.0910  0.1179
25552SOL    HW177234   5.651   4.836   9.504 -1.2509 -0.7751  0.7551
25552SOL    HW277235   5.790   4.842   9.562 -0.1601  0.3190 -1.7997
25553SOL     OW77236   6.959   4.849   7.705  0.6181  0.5002  0.1223
25553SOL    HW177237   6.961   4.860   7.610  0.5380 -0.7992 -0.0567
25553SOL    HW277238   6.960   4.938   7.740  0.2347  1.0084 -1.1022
25554SOL     OW77239   9.034   3.295   8.713  0.2522  0.1582 -0.0006
25554SOL    HW177240   8.968   3.244   8.666  0.3115  0.7152 -0.7194
25554SOL    HW277241   9.033   3.261   8.802 -0.3368 -0.4784 -0.2440
25555SOL     OW77242   5.583   4.341   1.304  0.3227  0.1817 -0.1569
25555SOL    HW177243   5.573   4.407   1.236 -1.0015 -0.7082 -0.8781
25555SOL    HW277244   5.507   4.284   1.293  2.8753 -3.2463 -1.5333
25556SOL     OW77245   2.974   8.749   6.501 -0.1683 -0.6809  0.1418
25556SOL    HW177246   2.952   8.783   6.588 -0.7739 -0.2425 -0.1800
25556SOL    HW277247   2.966   8.825   6.443 -2.4558 -1.5215 -0.7474
25557SOL     OW77248   6.103   0.616   5.831 -1.0729  0.3834 -0.3548
25557SOL    HW177249   6.068   0.607   5.920 -0.5569  2.6591  0.1575
25557SOL    HW277250   6.161   0.692   5.837 -1.2170  0.7313 -2.6917
25558SOL     OW77251   4.586   8.307   5.519  0.4803 -0.1868 -0.0360
25558SOL    HW177252   4.504   8.260   5.501  0.5869  0.0139 -1.1133
25558SOL    HW277253   4.588   8.378   5.455  1.8308 -0.6177 -0.5124
25559SOL     OW77254   0.675   1.298   1.216  0.1713  0.4287 -0.2230
25559SOL    HW177255   0.612   1.332   1.153  1.9567  3.5511 -0.5053
25559SOL    HW277256   0.751   1.272   1.163  0.4682  0.0398  0.3833
25560SOL     OW77257   0.303   1.675   9.788  0.2498  0.2143  0.4858
25560SOL    HW177258   0.322   1.765   9.764  0.2890  0.3349  0.9613
25560SOL    HW277259   0.208   1.670   9.793  0.2893  0.7443  2.3644
25561SOL     OW77260   2.548   3.260   0.841 -0.5899  0.2569 -0.1688
25561SOL    HW177261   2.517   3.300   0.922  1.4771  1.1614  0.2451
25561SOL    HW277262   2.542   3.165   0.857 -1.6692  0.4101  0.4136
25562SOL     OW77263   8.564   3.998   8.740  0.1357  0.5130 -0.0221
25562SOL    HW177264   8.514   3.918   8.752  1.1630 -0.2259 -0.5735
25562SOL    HW277265   8.655   3.969   8.733  0.6381  1.8038  0.7537
25563SOL     OW77266   4.405   9.626   7.407  0.4188  0.1649 -0.2298
25563SOL    HW177267   4.324   9.671   7.381  0.4046 -0.3012 -1.0163
25563SOL    HW277268   4.380   9.575   7.484  0.5148  1.7301  0.8792
25564SOL     OW77269   2.355   2.820   4.901  0.2495  0.1553 -0.7161
25564SOL    HW177270   2.290   2.880   4.863  0.4648  0.3522 -0.7732
25564SOL    HW277271   2.302   2.749   4.939 -0.0970  1.0275  0.5121
25565SOL     OW77272   8.114   3.426   9.805 -0.1236 -0.2976  0.3990
25565SOL    HW177273   8.028   3.468   9.814 -0.1160  0.1760 -1.3263
25565SOL    HW277274   8.167   3.465   9.874 -1.6240 -1.5624  2.3627
25566SOL     OW77275   9.669   1.601   6.024 -0.4930 -0.0223 -0.1822
25566SOL    HW177276   9.649   1.512   6.054  0.7406 -0.3072 -0.1782
25566SOL    HW277277   9.737   1.632   6.083 -1.5035  1.2657  0.3577
25567SOL     OW77278   6.096   5.034   5.912  0.5765  0.0057  0.0333
25567SOL    HW177279   6.099   5.114   5.860 -2.1810  1.0233  1.2301
25567SOL    HW277280   6.017   5.043   5.965  1.2084 -2.6745  1.6276
25568SOL     OW77281   4.808   8.692   5.545  0.0747 -0.0902  0.0680
25568SOL    HW177282   4.855   8.656   5.470  0.7828  0.9809 -0.0291
25568SOL    HW277283   4.783   8.616   5.597  2.0013 -0.7030  0.1705
25569SOL     OW77284   3.845   6.439   8.895 -0.3116  0.1971  0.0749
25569SOL    HW177285   3.751   6.426   8.908 -0.1544  0.0178  1.1264
25569SOL    HW277286   3.855   6.534   8.887 -0.3910  0.3975  1.8805
25570SOL     OW77287   6.881   0.316   8.627  0.6409 -0.6129 -0.0070
25570SOL    HW177288   6.942   0.382   8.593  0.9956 -0.2643  1.2682
25570SOL    HW277289   6.807   0.367   8.660  0.6418 -0.8945  0.4296
25571SOL     OW77290   8.070   4.791   3.452 -0.1932 -0.2549 -0.0798
25571SOL    HW177291   8.094   4.855   3.519  1.4949  0.4653 -1.2869
25571SOL    HW277292   7.983   4.818   3.422  0.3731  1.3799 -0.3822
25572SOL     OW77293   6.584   4.473   9.674 -0.1690  0.6214 -0.3521
25572SOL    HW177294   6.676   4.475   9.701 -0.3538  1.5529  0.2108
25572SOL    HW277295   6.535   4.498   9.752 -0.8335  1.2935 -0.9751
25573SOL     OW77296   2.214   2.332   9.122  0.2237  0.3580  0.1510
25573SOL    HW177297   2.119   2.316   9.119  0.0794  1.2319 -0.4577
25573SOL    HW277298   2.237   2.325   9.214 -0.1314 -1.5111  0.1304
25574SOL     OW77299   7.100   1.400   3.162 -0.0149 -0.3927  0.6114
25574SOL    HW177300   7.044   1.341   3.211  0.8869 -1.0387  0.8768
25574SOL    HW277301   7.187   1.362   3.168  0.4347  0.5106  0.0711
25575SOL     OW77302   3.773   7.204   9.892 -0.0558 -0.6593  0.0439
25575SOL    HW177303   3.791   7.233   9.981 -1.7845  0.9578 -0.0498
25575SOL    HW277304   3.677   7.195   9.889 -0.0499 -0.5194 -1.6727
25576SOL     OW77305   0.314   2.408   7.264 -0.4618 -0.1683  0.5849
25576SOL    HW177306   0.303   2.315   7.244 -0.3986 -0.0811  0.1494
25576SOL    HW277307   0.284   2.416   7.355 -0.9985 -0.5137  0.4443
25577SOL     OW77308   3.509   2.593   9.954 -0.6149 -0.1948  0.4035
25577SOL    HW177309   3.595   2.586   9.913 -1.1888 -0.1500 -0.8400
25577SOL    HW277310   3.455   2.528   9.908 -1.8860  1.4407 -0.5103
25578SOL     OW77311   8.243   4.968   2.575  0.1785  0.1242 -0.1286
25578SOL    HW177312   8.331   4.993   2.547 -0.0167 -0.0863 -0.9751
25578SOL    HW277313   8.210   5.044   2.622  1.0668 -0.0551  0.8085
25579SOL     OW77314   8.818   5.876   4.882 -0.4531  0.7296  0.0259
25579SOL    HW177315   8.804   5.913   4.794  1.9540  0.0911 -0.7124
25579SOL    HW277316   8.913   5.865   4.888 -0.7708 -3.2557  1.0051
25580SOL     OW77317   0.470   7.454   0.836  0.4248 -0.1192  0.2884
25580SOL    HW177318   0.523   7.522   0.795 -0.7919  0.0190 -1.1601
25580SOL    HW277319   0.524   7.375   0.831  0.1971 -0.1852 -1.9953
25581SOL     OW77320   9.600   7.215   3.501 -0.0940 -0.1922  0.1617
25581SOL    HW177321   9.567   7.127   3.480  0.4090 -0.4695  0.5354
25581SOL    HW277322   9.539   7.274   3.456  0.0681 -0.7436 -0.8169
25582SOL     OW77323   6.218   9.649   6.845  0.0034 -0.2944  0.0335
25582SOL    HW177324   6.192   9.667   6.755 -2.4871 -0.0049  0.7326
25582SOL    HW277325   6.293   9.707   6.861 -0.0378  0.2395 -1.5780
25583SOL     OW77326   5.164   2.327   1.261  0.3043  0.2696  0.1682
25583SOL    HW177327   5.077   2.351   1.229  1.0339 -0.5886 -2.7318
25583SOL    HW277328   5.149   2.252   1.318 -0.8275 -0.3289 -0.8747
25584SOL     OW77329   7.079   9.486   0.093  0.1420  0.5815  0.4662
25584SOL    HW177330   7.115   9.399   0.109  0.4147  0.5734 -0.1555
25584SOL    HW277331   7.127   9.543   0.154  0.5560  0.4256  0.2885
25585SOL     OW77332   5.695   4.931   9.142 -0.1917  0.7163 -0.4516
25585SOL    HW177333   5.641   4.894   9.071 -0.9252  1.0965 -0.1108
25585SOL    HW277334   5.642   5.004   9.175  0.6469  1.2356 -0.2474
25586SOL     OW77335   1.995   2.279   0.182 -0.1646 -0.2136  0.0069
25586SOL    HW177336   2.022   2.371   0.182 -0.4460 -0.1287  0.3014
25586SOL    HW277337   2.070   2.233   0.220  0.0559 -0.1338 -0.3212
25587SOL     OW77338   4.675   8.539   1.489 -0.2704  0.3474 -0.0678
25587SOL    HW177339   4.596   8.555   1.540  1.1841  0.8842  2.1976
25587SOL    HW277340   4.709   8.627   1.469  0.7948  0.1398  0.7696
25588SOL     OW77341   0.848   2.481   8.207  0.4172  0.5139  0.4076
25588SOL    HW177342   0.884   2.401   8.245  0.6232  0.3468 -0.1301
25588SOL    HW277343   0.766   2.452   8.166 -1.8724  1.3448  3.9436
25589SOL     OW77344   4.452   1.102   1.829  0.4760  0.4451 -0.2918
25589SOL    HW177345   4.481   1.129   1.742 -0.6512 -1.8124 -1.4733
25589SOL    HW277346   4.402   1.176   1.863 -0.4708  0.7768 -2.3054
25590SOL     OW77347   0.437   7.453   0.230  0.1648  0.0895  0.0118
25590SOL    HW177348   0.362   7.449   0.170  1.6305  1.2488 -2.0154
25590SOL    HW277349   0.400   7.487   0.311 -1.8430 -1.1939 -0.2802
25591SOL     OW77350   0.933   8.499   1.570  0.5778 -0.2688  0.2404
25591SOL    HW177351   0.987   8.461   1.639  1.4112  0.3659 -0.0473
25591SOL    HW277352   0.927   8.430   1.504 -0.8232 -1.1488  1.2242
25592SOL     OW77353   3.466   2.534   5.387  0.1939 -0.6875  0.2926
25592SOL    HW177354   3.505   2.486   5.460  0.0088 -0.1233  0.7627
25592SOL    HW277355   3.524   2.515   5.313  0.4071 -1.2270  0.5877
25593SOL     OW77356   4.523   8.265   3.438  0.0613 -0.3524 -0.5818
25593SOL    HW177357   4.511   8.172   3.457 -0.3175 -0.1595  0.1750
25593SOL    HW277358   4.584   8.267   3.364 -0.8023 -1.2339 -1.3466
25594SOL     OW77359   2.227   6.657   1.041 -0.4403 -0.1459 -0.1839
25594SOL    HW177360   2.258   6.631   1.128  0.6517 -2.1861 -1.1034
25594SOL    HW277361   2.162   6.591   1.018 -1.7393  1.1691 -0.3936
25595SOL     OW77362   5.817   6.271   4.925  0.2273  0.5127 -0.4916
25595SOL    HW177363   5.750   6.290   4.991  0.2625  0.6118 -0.4837
25595SOL    HW277364   5.807   6.178   4.907  0.5470  0.3719  0.0193
25596SOL     OW77365   6.285   5.540   5.501 -0.2668 -0.5945 -0.5316
25596SOL    HW177366   6.239   5.578   5.426 -1.1412 -1.3554 -0.4000
25596SOL    HW277367   6.262   5.447   5.498  1.6344 -1.1107 -0.7220
25597SOL     OW77368   5.305   1.711   4.033 -0.5044  0.1382 -0.2844
25597SOL    HW177369   5.306   1.759   3.950  0.7201 -0.6481 -0.7638
25597SOL    HW277370   5.336   1.774   4.097 -2.1206  0.9586 -0.2793
25598SOL     OW77371   5.458   6.738   5.721  0.3447  0.6936  0.1612
25598SOL    HW177372   5.398   6.672   5.756  0.4755  0.7939  0.5816
25598SOL    HW277373   5.418   6.822   5.744  1.0010  0.7685  1.0936
25599SOL     OW77374   8.797   8.733   2.689 -0.1369  0.1291  0.2274
25599SOL    HW177375   8.791   8.687   2.605 -1.1633  1.8166 -0.6887
25599SOL    HW277376   8.795   8.663   2.755 -1.4223 -1.1610 -1.0949
25600SOL     OW77377   3.605   7.568   9.668 -0.1429  0.4191  0.7272
25600SOL    HW177378   3.513   7.580   9.646 -0.0369 -2.2150 -1.7488
25600SOL    HW277379   3.652   7.619   9.601  0.1564 -1.3729 -0.4834
25601SOL     OW77380   4.623   7.382   0.812  0.0430 -0.1959  0.5734
25601SOL    HW177381   4.703   7.353   0.769  0.8826  0.1462  1.8450
25601SOL    HW277382   4.644   7.467   0.849 -0.8937 -0.1125  0.9631
25602SOL     OW77383   7.825   4.168   9.156 -0.0639 -0.1320  0.0034
25602SOL    HW177384   7.733   4.172   9.184  0.4557  0.7781  1.7573
25602SOL    HW277385   7.843   4.075   9.144 -0.9095 -0.4073  0.7674
25603SOL     OW77386   9.821   0.086   5.520 -0.5582  0.2528 -0.1825
25603SOL    HW177387   9.904   0.092   5.473  0.0221 -1.7928  0.4866
25603SOL    HW277388   9.843   0.042   5.602 -1.3837  4.3325  2.4934
25604SOL     OW77389   2.100   2.389   3.659  0.0339  0.1406  0.0263
25604SOL    HW177390   2.180   2.433   3.686 -0.3780  0.5661  0.5818
25604SOL    HW277391   2.108   2.381   3.564  0.8266 -0.0235  0.0980
25605SOL     OW77392   9.387   7.398   6.527  0.4966 -0.0163 -0.0806
25605SOL    HW177393   9.449   7.442   6.468  0.1268 -1.3731 -1.5509
25605SOL    HW277394   9.423   7.414   6.614  2.0575  0.5602 -0.7712
25606SOL     OW77395   0.202   4.025   6.141  0.4966  0.5424 -0.8080
25606SOL    HW177396   0.211   4.093   6.208  0.3742  0.2626 -0.5039
25606SOL    HW277397   0.151   4.067   6.072  1.7080  1.2544 -1.3173
25607SOL     OW77398   9.681   7.410   4.748  0.8489 -0.1346 -0.1699
25607SOL    HW177399   9.687   7.347   4.820 -0.6531 -1.2870 -0.9883
25607SOL    HW277400   9.771   7.423   4.720  1.3915 -0.2889  1.3745
25608SOL     OW77401   2.663   6.758   6.442 -0.4328 -0.0851 -0.4081
25608SOL    HW177402   2.633   6.844   6.473 -0.0774 -0.2610  0.4588
25608SOL    HW277403   2.620   6.747   6.358 -1.1444  0.5815 -0.1483
25609SOL     OW77404   3.202   2.034   4.718  0.0096  0.5379  0.1023
25609SOL    HW177405   3.260   2.021   4.793  1.4672  1.0024 -0.8905
25609SOL    HW277406   3.259   2.025   4.642 -1.5527 -0.6193 -1.0040
25610SOL     OW77407   7.273   0.575   5.239 -0.4189 -0.1887  0.2586
25610SOL    HW177408   7.342   0.508   5.231 -0.0872  0.2316 -0.5240
25610SOL    HW277409   7.314   0.647   5.286 -0.1917  0.2178 -0.5416
25611SOL     OW77410   9.429   8.645   0.964 -0.4984 -0.1745  0.3326
25611SOL    HW177411   9.422   8.711   1.033 -0.8256  1.3220 -1.0372
25611SOL    HW277412   9.522   8.623   0.961 -0.5868 -0.7669  1.6760
25612SOL     OW77413   5.020   1.214   0.374  0.0639  0.9024  0.0054
25612SOL    HW177414   4.943   1.201   0.431  0.8353 -0.1271  0.8540
25612SOL    HW277415   4.984   1.250   0.293 -1.0133  3.0522  1.3528
25613SOL     OW77416   1.686   5.777   1.791 -0.0511  0.1466 -0.1973
25613SOL    HW177417   1.627   5.795   1.863  0.0998 -1.1961  0.2894
25613SOL    HW277418   1.753   5.720   1.828  0.1004 -0.4754 -1.3554
25614SOL     OW77419   9.327   0.984   5.625 -0.0514 -0.5269  0.5342
25614SOL    HW177420   9.297   1.066   5.664  0.8511  0.9313 -1.6219
25614SOL    HW277421   9.253   0.955   5.572  0.7842  0.8960 -1.5474
25615SOL     OW77422   3.390   5.365   3.479  1.0372 -0.1136  0.3385
25615SOL    HW177423   3.444   5.443   3.492  0.5118  0.0936  1.3751
25615SOL    HW277424   3.390   5.321   3.565 -1.4062  0.5222  0.7475
25616SOL     OW77425   0.922   8.067   9.450 -0.1869  0.6197  0.1495
25616SOL    HW177426   0.834   8.102   9.434  0.1897  1.4035 -0.2850
25616SOL    HW277427   0.967   8.075   9.366  0.3526  0.3951  0.4094
25617SOL     OW77428   1.673   0.566   3.854  0.2713 -0.6934 -0.2964
25617SOL    HW177429   1.745   0.504   3.844 -0.1741 -1.1611 -0.6574
25617SOL    HW277430   1.618   0.551   3.777  1.1959  1.5447 -1.4721
25618SOL     OW77431   9.252   6.534   4.536  0.2721 -0.1446  0.2130
25618SOL    HW177432   9.330   6.480   4.528  0.3040  0.0153 -0.6260
25618SOL    HW277433   9.181   6.472   4.549  0.4016 -0.3555 -0.0654
25619SOL     OW77434   1.751   4.373   4.399 -0.1009 -0.1323 -0.1747
25619SOL    HW177435   1.672   4.321   4.410 -0.5993  0.4583 -0.8906
25619SOL    HW277436   1.807   4.348   4.473 -1.0627 -0.3532  0.4921
25620SOL     OW77437   6.602   9.728   2.328  0.3307  0.0448 -1.1068
25620SOL    HW177438   6.628   9.802   2.383 -1.3400 -0.8258  0.9890
25620SOL    HW277439   6.685   9.686   2.304  1.1472  0.7517  0.3404
25621SOL     OW77440   1.106   7.739   7.372 -0.3879  0.0378  0.2732
25621SOL    HW177441   1.196   7.744   7.340 -0.9277  0.3046 -1.2655
25621SOL    HW277442   1.103   7.801   7.445  0.5048  0.5287 -0.1002
25622SOL     OW77443   5.503   8.045   4.032  0.2735 -0.2700 -0.4445
25622SOL    HW177444   5.579   8.033   4.090 -1.2713 -0.8889  1.5703
25622SOL    HW277445   5.488   7.959   3.994 -0.4121 -0.6023  0.5221
25623SOL     OW77446   0.599   8.977   2.217 -0.0744  0.1355 -0.2019
25623SOL    HW177447   0.591   8.883   2.206  2.4511 -0.1928  0.2726
25623SOL    HW277448   0.568   8.994   2.306  0.8125 -0.4813  0.2388
25624SOL     OW77449   9.103   0.688   6.769 -0.1459 -0.4259  0.6947
25624SOL    HW177450   9.123   0.596   6.783  0.6315 -0.4011 -0.1542
25624SOL    HW277451   9.096   0.697   6.674 -0.2696  0.3759  0.7677
25625SOL     OW77452   0.658   8.338   7.631  0.5056  0.0058  0.1128
25625SOL    HW177453   0.660   8.287   7.550 -0.7877 -0.4635  0.3604
25625SOL    HW277454   0.568   8.330   7.663  0.6437  1.2855  0.9031
25626SOL     OW77455   5.978   4.709   3.402 -0.3226  0.2281 -0.1907
25626SOL    HW177456   5.965   4.792   3.355  0.1512 -0.6624 -1.9966
25626SOL    HW277457   6.038   4.659   3.346  1.1051 -0.5451  1.8774
25627SOL     OW77458   2.063   7.166   1.501 -0.0808  0.3330 -0.0947
25627SOL    HW177459   2.026   7.129   1.421 -2.9080 -0.6118  1.5142
25627SOL    HW277460   2.038   7.258   1.498  1.5010  0.7600 -1.1475
25628SOL     OW77461   2.182   7.245   0.610 -0.1604  0.0203  1.1686
25628SOL    HW177462   2.089   7.224   0.598 -0.1159  0.3482  0.1997
25628SOL    HW277463   2.206   7.295   0.532  0.8109  0.0257  1.4580
25629SOL     OW77464   1.276   0.655   1.817  0.3358  0.4317 -0.3680
25629SOL    HW177465   1.265   0.636   1.910 -0.5692 -0.8845 -0.7211
25629SOL    HW277466   1.187   0.659   1.782  0.6832 -1.3203 -1.5745
25630SOL     OW77467   3.948   8.063   6.055 -0.4020  0.2935  0.0161
25630SOL    HW177468   3.873   8.122   6.064  0.3927  1.2822  0.3544
25630SOL    HW277469   3.924   8.004   5.984 -1.1634  1.1228 -0.4339
25631SOL     OW77470   0.694   9.838   5.743 -0.2883  0.5757  0.1129
25631SOL    HW177471   0.629   9.767   5.743  1.4573 -1.1192 -0.1160
25631SOL    HW277472   0.650   9.911   5.701 -1.7340 -0.8442 -0.9723
25632SOL     OW77473   8.407   1.650   0.881  0.2901 -0.0139 -0.2012
25632SOL    HW177474   8.487   1.631   0.931  0.4265  2.2998  0.5565
25632SOL    HW277475   8.341   1.593   0.920  1.1972 -0.8483  0.1845
25633SOL     OW77476   0.862   5.502   8.528  0.2540 -0.1990 -0.0259
25633SOL    HW177477   0.834   5.414   8.503  0.6640 -0.3092 -0.1103
25633SOL    HW277478   0.950   5.511   8.489 -0.0129  0.4566 -0.4974
25634SOL     OW77479   8.885   7.444   2.448 -0.0627 -0.1514 -0.1652
25634SOL    HW177480   8.920   7.418   2.363 -0.5659 -0.7379 -0.1978
25634SOL    HW277481   8.955   7.424   2.510 -0.2430 -1.1139 -0.2576
25635SOL     OW77482   4.546   9.659   9.100 -0.6208 -0.1142  0.0292
25635SOL    HW177483   4.492   9.679   9.024 -2.0694 -0.0926  1.0160
25635SOL    HW277484   4.497   9.693   9.174 -0.7568 -2.7510  1.2953
25636SOL     OW77485   7.402   0.823   7.742 -0.6900 -0.5784  0.5106
25636SOL    HW177486   7.487   0.818   7.699 -1.2744 -0.2558 -0.7101
25636SOL    HW277487   7.411   0.895   7.805 -0.0268 -0.6258  0.4732
25637SOL     OW77488   2.373   3.251   7.024 -0.8353 -0.0305  0.2547
25637SOL    HW177489   2.409   3.184   7.081 -1.8211 -0.2250  0.6690
25637SOL    HW277490   2.278   3.237   7.026 -0.8950 -0.3138 -1.7501
25638SOL     OW77491   4.416   6.141   5.947  1.2562  0.6408  0.5670
25638SOL    HW177492   4.456   6.089   6.016  0.4108  0.0192  0.5988
25638SOL    HW277493   4.480   6.211   5.930  1.1122  1.3399  2.5888
25639SOL     OW77494   7.001   4.024   8.278  0.0291 -0.2336  0.1116
25639SOL    HW177495   7.032   4.041   8.368 -1.2817 -0.3264  0.5991
25639SOL    HW277496   6.996   3.929   8.273  0.5683 -0.2483 -0.2382
25640SOL     OW77497   1.480   2.949   1.038 -0.0255  0.0427 -0.2851
25640SOL    HW177498   1.457   2.964   1.130 -1.0324 -1.2718 -0.2910
25640SOL    HW277499   1.572   2.976   1.031  0.1088  0.0139  1.1452
25641SOL     OW77500   4.810   1.146   5.149 -0.2827  0.0712 -0.7491
25641SOL    HW177501   4.887   1.146   5.207 -0.4922  0.2947 -0.4668
25641SOL    HW277502   4.822   1.223   5.093 -0.9390  0.8661  0.1661
25642SOL     OW77503   5.286   3.610   3.853  0.2628 -0.9301  0.0963
25642SOL    HW177504   5.207   3.574   3.812 -0.2874  1.0291 -0.6454
25642SOL    HW277505   5.347   3.625   3.780  1.0883 -1.7979  0.5846
25643SOL     OW77506   9.284   8.733   5.629 -0.2853 -0.1256  0.2116
25643SOL    HW177507   9.279   8.783   5.547 -0.3772 -1.3833 -0.5907
25643SOL    HW277508   9.205   8.678   5.628 -0.6125  0.2888  1.4702
25644SOL     OW77509   3.651   9.528   7.292 -0.0279  0.8975 -0.0504
25644SOL    HW177510   3.696   9.584   7.229 -0.0569  1.6354  0.5618
25644SOL    HW277511   3.637   9.445   7.246 -1.0093  1.7682 -1.3848
25645SOL     OW77512   1.268   3.003   6.581 -0.1240  0.2130 -0.1271
25645SOL    HW177513   1.225   2.976   6.499  0.2539 -1.9641  0.3389
25645SOL    HW277514   1.247   2.934   6.643 -0.2733  1.7420  1.6274
25646SOL     OW77515   1.862   8.937   6.455 -0.1864  0.0804 -0.4197
25646SOL    HW177516   1.839   8.986   6.534 -1.0416 -0.0201 -0.5897
25646SOL    HW277517   1.957   8.931   6.456 -0.0686  1.6139 -0.3191
25647SOL     OW77518   3.234   7.545   5.812 -0.1040  0.4045  0.0286
25647SOL    HW177519   3.148   7.581   5.834  0.0980  0.0423  1.5355
25647SOL    HW277520   3.227   7.452   5.832  0.2307  0.1070 -1.1671
25648SOL     OW77521   7.024   4.263   4.994 -0.0984 -0.1507  0.2002
25648SOL    HW177522   7.016   4.329   5.063  0.3470 -0.6435  0.7341
25648SOL    HW277523   6.936   4.254   4.959 -1.1441 -2.4115  3.0523
25649SOL     OW77524   6.335   4.045   0.497 -0.2146 -0.0389 -0.1543
25649SOL    HW177525   6.377   4.036   0.411  0.1908 -1.0911  0.1358
25649SOL    HW277526   6.296   3.959   0.513  2.0474 -0.7996  1.9032
25650SOL     OW77527   8.500   1.775  -0.013 -0.5404 -0.2370  0.1237
25650SOL    HW177528   8.524   1.695  -0.058 -1.6675 -0.3405 -0.3301
25650SOL    HW277529   8.497   1.751   0.079  3.3877  0.3556  0.5958
25651SOL     OW77530   3.722   2.521   0.612 -0.6575 -0.0927 -0.5287
25651SOL    HW177531   3.794   2.463   0.637 -1.4555 -0.4244  1.1231
25651SOL    HW277532   3.644   2.480   0.649 -1.0350  3.0418  2.7148
25652SOL     OW77533   4.563   2.857   3.479 -0.1720 -0.4443  0.4151
25652SOL    HW177534   4.598   2.854   3.390  0.0660 -0.5877  0.5118
25652SOL    HW277535   4.481   2.907   3.471 -0.2098 -0.5547  0.0992
25653SOL     OW77536   6.147   5.894   9.513  0.4669 -0.3985  0.1533
25653SOL    HW177537   6.138   5.805   9.547  0.8610  0.5709  3.0469
25653SOL    HW277538   6.068   5.939   9.543  0.5848  0.4207 -0.7164
25654SOL     OW77539   6.545   0.880   9.822  0.0557  0.0123  0.3493
25654SOL    HW177540   6.613   0.830   9.868  0.8556 -1.5067 -2.2269
25654SOL    HW277541   6.463   0.848   9.859  0.6629  1.0812  2.7597
25655SOL     OW77542   0.967   2.857   8.202  0.8859 -0.1697 -0.1767
25655SOL    HW177543   0.888   2.895   8.243 -1.1898  0.2618 -4.0634
25655SOL    HW277544   1.039   2.911   8.236 -0.7963  1.2085  1.4883
25656SOL     OW77545   9.217   7.139   9.821 -0.1121 -0.0847  0.0832
25656SOL    HW177546   9.164   7.215   9.797  1.3698  1.5951  1.7946
25656SOL    HW277547   9.210   7.134   9.916  1.3300 -0.9277  0.1729
25657SOL     OW77548   3.603   1.577   3.830 -0.4710 -0.2019  0.3258
25657SOL    HW177549   3.652   1.549   3.752  2.4692  0.9660  1.6216
25657SOL    HW277550   3.612   1.504   3.891 -1.7472 -0.6188  0.0433
25658SOL     OW77551   9.760   8.094   6.017  0.2000 -0.2765 -0.1794
25658SOL    HW177552   9.775   8.160   6.085 -2.3179  0.5941 -0.3325
25658SOL    HW277553   9.700   8.137   5.956 -0.6006 -2.3094 -0.9104
25659SOL     OW77554   4.106   0.942   6.174  0.4797  0.4530  0.0260
25659SOL    HW177555   4.013   0.936   6.151  0.6064  0.2796 -0.4710
25659SOL    HW277556   4.107   0.983   6.260 -0.0198  1.3865 -0.3895
25660SOL     OW77557   7.204   9.045   9.530 -0.0667  0.1814 -0.2607
25660SOL    HW177558   7.109   9.035   9.540  0.1157 -1.9462 -0.0265
25660SOL    HW277559   7.216   9.074   9.440 -0.9475  0.4101 -0.3078
25661SOL     OW77560   2.635   9.588   7.404 -0.4941  0.3377 -0.1408
25661SOL    HW177561   2.573   9.653   7.436  0.0886  0.0003  1.7733
25661SOL    HW277562   2.626   9.514   7.463  0.9198 -0.1673 -0.5001
25662SOL     OW77563   9.012   3.726   4.195 -0.1246 -0.0029  0.2602
25662SOL    HW177564   9.027   3.813   4.232  1.1172  0.7689 -1.9061
25662SOL    HW277565   9.099   3.688   4.186 -0.6464 -1.4839  1.1030
25663SOL     OW77566   3.993   3.087   9.155 -0.1463 -0.5372  0.4586
25663SOL    HW177567   4.044   3.155   9.199  1.1961 -1.0974 -0.1875
25663SOL    HW277568   4.045   3.062   9.079 -1.4695 -1.0266 -0.3253
25664SOL     OW77569   8.858   5.207   3.455  0.2528 -0.8681 -0.1558
25664SOL    HW177570   8.808   5.272   3.503 -0.5867 -1.5913 -0.0363
25664SOL    HW277571   8.929   5.183   3.514  0.0952 -0.6635  0.1200
25665SOL     OW77572   6.384   7.401   6.439  0.0757  0.0311  0.3198
25665SOL    HW177573   6.318   7.382   6.373 -0.3829 -0.5694  0.9395
25665SOL    HW277574   6.374   7.332   6.505 -1.3532  2.0534  2.4175
25666SOL     OW77575   7.375   4.399   0.707 -0.3919  0.1172 -0.3303
25666SOL    HW177576   7.416   4.315   0.730  0.5029  1.0642  1.8124
25666SOL    HW277577   7.281   4.385   0.720 -0.3251 -0.7383 -0.7010
25667SOL     OW77578   3.343   1.243   7.424  0.7294 -0.1153 -0.0112
25667SOL    HW177579   3.359   1.150   7.438  0.5929 -0.0610  0.5255
25667SOL    HW277580   3.346   1.254   7.329  4.8732  0.0258 -0.0504
25668SOL     OW77581   5.324   4.097   7.037 -0.3278  0.5964  0.1679
25668SOL    HW177582   5.405   4.087   6.987 -0.9199 -1.5838 -0.4714
25668SOL    HW277583   5.287   4.008   7.040 -2.3396  1.4158  1.0357
25669SOL     OW77584   0.717   4.847   7.973 -0.6466  0.0388 -0.1845
25669SOL    HW177585   0.732   4.760   7.938 -2.2963 -1.0026  1.5408
25669SOL    HW277586   0.624   4.864   7.956 -0.9186  0.4637  1.5668
25670SOL     OW77587   6.627   1.779   2.334 -0.0938  0.3382  0.6982
25670SOL    HW177588   6.571   1.709   2.368 -0.9891  1.1648  0.9543
25670SOL    HW277589   6.601   1.786   2.242  0.8604 -0.4781  0.3482
25671SOL     OW77590   5.398   3.654   1.283 -0.4073  0.5295 -0.0169
25671SOL    HW177591   5.486   3.620   1.275 -1.1268 -1.4373 -0.0993
25671SOL    HW277592   5.394   3.727   1.221  0.4565 -0.8872 -1.8386
25672SOL     OW77593   0.981   7.260   1.322  0.0306  0.0863  0.4290
25672SOL    HW177594   0.984   7.346   1.366  0.0394  1.7387 -2.5502
25672SOL    HW277595   1.073   7.237   1.309  0.0247  0.0531  0.4464
25673SOL     OW77596   5.837   2.346   7.366  0.8474 -0.3148  0.1098
25673SOL    HW177597   5.893   2.370   7.292  2.1056  0.6937  1.3206
25673SOL    HW277598   5.897   2.304   7.428 -0.4317 -2.3931  0.0277
25674SOL     OW77599   3.670   8.022   2.622  0.3649 -0.0165 -0.2010
25674SOL    HW177600   3.640   7.952   2.680 -1.9588  0.2733 -0.9345
25674SOL    HW277601   3.680   7.980   2.537  0.1731  0.2910 -0.3758
25675SOL     OW77602   2.115   5.197   4.390  0.2326  0.2035 -0.0135
25675SOL    HW177603   2.123   5.136   4.317 -0.2800 -0.0763  0.1603
25675SOL    HW277604   2.052   5.263   4.360 -0.0102  0.0645  0.1946
25676SOL     OW77605   3.771   7.555   9.141  0.0895 -0.0932 -0.0061
25676SOL    HW177606   3.866   7.557   9.147  0.1897 -1.5268 -0.7422
25676SOL    HW277607   3.743   7.507   9.219  0.2636 -3.0108 -1.6037
25677SOL     OW77608   1.362   2.601   8.165 -0.0404 -0.2456  0.3826
25677SOL    HW177609   1.401   2.542   8.229  1.8229 -0.9544 -1.3221
25677SOL    HW277610   1.267   2.596   8.182  0.2474 -1.9493  1.7285
25678SOL     OW77611   2.305   8.136   0.572 -0.1529 -0.1112 -0.8232
25678SOL    HW177612   2.213   8.113   0.585  0.8719 -5.2414 -0.4500
25678SOL    HW277613   2.333   8.083   0.498  3.0014 -0.6809  0.5901
25679SOL     OW77614   4.807   8.883   8.703 -0.0153 -0.6405 -0.4696
25679SOL    HW177615   4.755   8.813   8.663 -0.4852 -1.0849  0.8535
25679SOL    HW277616   4.887   8.839   8.732 -0.7428 -0.9015  1.2831
25680SOL     OW77617   8.881   8.409   0.165  0.1815  0.5905  0.1939
25680SOL    HW177618   8.842   8.496   0.150 -0.1778  0.0348 -2.5663
25680SOL    HW277619   8.921   8.386   0.081 -0.0851 -2.1017  0.7333
25681SOL     OW77620   3.553   7.751   2.240 -0.0608  0.5136  0.0536
25681SOL    HW177621   3.464   7.758   2.275 -0.3035 -0.2976 -0.3741
25681SOL    HW277622   3.569   7.834   2.197 -1.2271  0.0915 -1.2561
25682SOL     OW77623   1.639   9.815   1.386 -0.0250 -0.1399 -0.4395
25682SOL    HW177624   1.587   9.841   1.461  1.1328 -2.1324  1.1588
25682SOL    HW277625   1.575   9.784   1.322 -0.9290 -0.6131  0.6591
25683SOL     OW77626   8.202   0.077   9.229 -0.1361 -0.1282 -0.0896
25683SOL    HW177627   8.285   0.077   9.276 -0.6342 -0.0858  0.8020
25683SOL    HW277628   8.193   0.167   9.197 -0.2798  0.1123  0.6149
25684SOL     OW77629   5.311   8.598   1.868  0.0540 -0.2186  0.0783
25684SOL    HW177630   5.219   8.621   1.876  0.2151  0.1122  1.1802
25684SOL    HW277631   5.312   8.516   1.820 -0.8557 -0.4872  0.5023
25685SOL     OW77632   9.393   1.323   5.820  0.4044 -0.2005  0.1896
25685SOL    HW177633   9.381   1.322   5.725 -0.8372  0.2608  0.3180
25685SOL    HW277634   9.486   1.342   5.832  0.8810 -1.6479 -0.9273
25686SOL     OW77635   8.728   3.153   2.515 -0.2231  0.5566 -0.1395
25686SOL    HW177636   8.664   3.194   2.572  0.6449  2.0886 -0.1772
25686SOL    HW277637   8.753   3.223   2.453 -0.2758 -0.6923 -1.6453
25687SOL     OW77638   5.774   7.362   6.121 -0.2633  0.1181 -0.2835
25687SOL    HW177639   5.721   7.286   6.145 -0.3495  1.0010  2.6901
25687SOL    HW277640   5.727   7.401   6.047 -3.1208  0.1373  1.4015
25688SOL     OW77641   2.730   0.863   4.808  0.2965 -0.6682 -0.0996
25688SOL    HW177642   2.734   0.859   4.712 -1.1800  0.8267 -0.2683
25688SOL    HW277643   2.819   0.844   4.837  1.2809  0.9348 -1.8677
25689SOL     OW77644   6.396   3.737   3.939 -0.3098  0.2052  0.5546
25689SOL    HW177645   6.441   3.719   4.022 -1.1222  1.8385  1.3972
25689SOL    HW277646   6.340   3.812   3.958 -2.3806 -0.9040 -0.8248
25690SOL     OW77647   1.084   5.752   8.040  0.1252  0.0755  0.2602
25690SOL    HW177648   1.171   5.761   8.001 -0.7161  0.9815 -1.5229
25690SOL    HW277649   1.081   5.819   8.108  0.9825 -0.3027  0.6877
25691SOL     OW77650   8.194   9.325   7.350 -0.1254  0.5464 -0.2267
25691SOL    HW177651   8.159   9.383   7.283 -1.5583 -0.6634 -0.6027
25691SOL    HW277652   8.140   9.246   7.343  0.5030 -0.0906  1.5178
25692SOL     OW77653   9.711   8.120   7.086  0.4167  0.6450 -0.0156
25692SOL    HW177654   9.750   8.115   7.174 -2.8598  0.2158  1.5665
25692SOL    HW277655   9.683   8.030   7.068 -1.8224  1.2628  0.0260
25693SOL     OW77656   3.731   5.846   2.562 -0.7242  0.1148  0.1176
25693SOL    HW177657   3.668   5.904   2.605 -0.8165  0.0054  0.1312
25693SOL    HW277658   3.677   5.779   2.521 -0.7419  0.9225 -1.2661
25694SOL     OW77659   4.406   2.894   1.746  0.5498 -1.2262  0.7641
25694SOL    HW177660   4.419   2.937   1.662 -0.0460 -2.6457 -0.0973
25694SOL    HW277661   4.343   2.949   1.792 -1.6714 -2.0937 -1.0671
25695SOL     OW77662   4.846   8.278   4.783  0.4373  0.2748  0.0275
25695SOL    HW177663   4.875   8.207   4.726 -3.3616 -0.6011 -1.0755
25695SOL    HW277664   4.855   8.357   4.729  0.1942 -0.0495 -0.4984
25696SOL     OW77665   7.640   8.915   2.217  0.0025  0.3901 -0.6818
25696SOL    HW177666   7.680   8.846   2.165 -0.1065  0.1338 -0.4276
25696SOL    HW277667   7.636   8.880   2.306  3.0852  1.9618  0.2323
25697SOL     OW77668   1.533   8.558   3.214  0.2261  0.1771 -0.4219
25697SOL    HW177669   1.592   8.538   3.142  0.6672  2.4515 -0.7880
25697SOL    HW277670   1.445   8.552   3.176  0.3290 -0.7665 -0.5329
25698SOL     OW77671   6.219   1.285   2.207 -0.1193 -0.0383 -0.2247
25698SOL    HW177672   6.238   1.377   2.190 -2.2506  0.5968  0.5539
25698SOL    HW277673   6.204   1.281   2.302 -1.0137 -0.9941 -0.3933
25699SOL     OW77674   7.454   2.169   0.993 -0.8247  0.0970 -0.3660
25699SOL    HW177675   7.397   2.187   1.068 -0.2849  0.0044  0.0769
25699SOL    HW277676   7.541   2.157   1.032 -0.6720 -0.7048 -0.9261
25700SOL     OW77677   2.553   0.888   6.218  0.0741  0.0353  0.1138
25700SOL    HW177678   2.485   0.954   6.227 -0.0168 -0.2965  2.5959
25700SOL    HW277679   2.533   0.844   6.135 -1.2525  1.5426 -0.4150
25701SOL     OW77680   1.098   6.868   1.573  0.2332  0.1468  0.4461
25701SOL    HW177681   1.136   6.945   1.530 -0.8052  1.1717  1.3102
25701SOL    HW277682   1.056   6.820   1.502  0.1285  0.8513  0.0145
25702SOL     OW77683   4.405   8.239   0.755 -0.0648  0.2865 -0.0741
25702SOL    HW177684   4.325   8.264   0.802 -0.0064 -1.5631  1.1019
25702SOL    HW277685   4.393   8.147   0.734  0.7512  0.5890 -2.0653
25703SOL     OW77686   8.849   6.382   1.405 -0.2607  0.2887 -0.1473
25703SOL    HW177687   8.927   6.430   1.431 -1.0690  1.8728 -0.5589
25703SOL    HW277688   8.776   6.438   1.430 -1.2222 -0.4563 -1.1513
25704SOL     OW77689   6.697   6.966   5.211 -0.6918  0.0156  0.0168
25704SOL    HW177690   6.775   6.910   5.215 -0.5982  0.0476 -1.0423
25704SOL    HW277691   6.731   7.055   5.217 -0.7169  0.0080  0.2858
25705SOL     OW77692   3.322   0.265   1.574  0.2764 -0.2500  0.0455
25705SOL    HW177693   3.394   0.209   1.603  1.3785  0.2385 -1.6369
25705SOL    HW277694   3.329   0.266   1.479 -1.0505  1.0288 -0.0714
25706SOL     OW77695   5.786   6.579   1.172 -0.5117 -0.3221  0.3836
25706SOL    HW177696   5.866   6.541   1.207 -0.4594 -0.1688  0.4309
25706SOL    HW277697   5.746   6.509   1.120 -0.1180 -0.2589 -0.0109
25707SOL     OW77698  10.002   2.069   6.079  0.3324 -0.0431  0.1185
25707SOL    HW177699   9.918   2.037   6.045  0.4061 -0.2537  0.1318
25707SOL    HW277700   9.991   2.164   6.085  0.9340  0.2307 -2.1764
25708SOL     OW77701   9.285   3.633   7.114 -0.1727  0.3816 -0.2444
25708SOL    HW177702   9.280   3.724   7.143  1.1232  0.4687 -0.2566
25708SOL    HW277703   9.193   3.605   7.107 -0.5748  1.0650  1.6798
25709SOL     OW77704   2.500   7.472   9.468  0.1242  0.0811  0.2897
25709SOL    HW177705   2.496   7.431   9.381  2.0731 -0.0404  0.2269
25709SOL    HW277706   2.437   7.422   9.520 -1.0645  0.1349 -1.0174
25710SOL     OW77707   2.146   6.571   7.225 -0.4090  0.4458 -0.4343
25710SOL    HW177708   2.167   6.480   7.248 -1.9138 -0.0281 -0.8290
25710SOL    HW277709   2.232   6.614   7.217  0.6506 -1.8819 -4.1027
25711SOL     OW77710   6.199   5.072   7.426 -0.2501 -0.2832  0.0302
25711SOL    HW177711   6.179   5.148   7.481  0.3033 -2.3679  3.4222
25711SOL    HW277712   6.117   5.025   7.420  0.3562 -1.7452  2.0715
25712SOL     OW77713   7.582   4.322   9.363 -0.0959  0.2522 -0.3238
25712SOL    HW177714   7.567   4.285   9.276  0.1681  1.2643 -0.8192
25712SOL    HW277715   7.495   4.328   9.402 -0.0686 -1.7524  0.1671
25713SOL     OW77716   9.394   3.580   2.338 -0.3119  0.1252 -0.5514
25713SOL    HW177717   9.333   3.610   2.406 -0.0304  0.8629 -0.6168
25713SOL    HW277718   9.379   3.485   2.333 -0.7591  0.1504  0.1183
25714SOL     OW77719   5.251   1.404   1.665 -0.8039 -0.0781  0.1940
25714SOL    HW177720   5.294   1.475   1.713  0.5393 -1.2136  0.7315
25714SOL    HW277721   5.158   1.415   1.684 -0.4176  0.1353  2.2445
25715SOL     OW77722   1.779   2.885   0.938 -0.4955  0.5887 -0.1487
25715SOL    HW177723   1.804   2.793   0.936 -0.3149  0.6288  0.1697
25715SOL    HW277724   1.768   2.909   0.846  0.7158  0.5881 -0.3091
25716SOL     OW77725   3.326   6.611   9.895 -0.2179  0.1839 -0.2399
25716SOL    HW177726   3.261   6.541   9.894  0.9332 -1.0312 -2.8535
25716SOL    HW277727   3.407   6.567   9.921  0.0532  1.1256  0.5500
25717SOL     OW77728   4.486   2.965   9.740 -0.0931 -0.2101 -0.6712
25717SOL    HW177729   4.411   2.942   9.795 -1.2374 -0.6029 -2.3194
25717SOL    HW277730   4.456   2.948   9.651  1.6843  0.4477 -1.4332
25718SOL     OW77731   5.790   9.404   1.964 -0.7698 -0.2544 -0.4881
25718SOL    HW177732   5.712   9.451   1.933 -1.6402  1.9744  4.1091
25718SOL    HW277733   5.755   9.330   2.015  0.1085  0.0017  0.5375
25719SOL     OW77734   7.215   6.459   6.527  0.4515  0.3745  0.2660
25719SOL    HW177735   7.148   6.462   6.595 -1.2401  2.8087 -1.3273
25719SOL    HW277736   7.169   6.425   6.450  1.4382  0.6181 -0.4463
25720SOL     OW77737   3.778   2.389   3.863 -0.2278 -0.7496  0.5149
25720SOL    HW177738   3.728   2.464   3.833  1.4634  0.1222 -0.2609
25720SOL    HW277739   3.714   2.318   3.869 -1.6203  0.4214  0.0391
25721SOL     OW77740   3.270   5.750   7.747  0.0504  0.2559 -0.0628
25721SOL    HW177741   3.344   5.804   7.775 -0.4431  0.8411  0.1423
25721SOL    HW277742   3.308   5.664   7.730  1.0258  0.8945 -1.2994
25722SOL     OW77743   7.275   5.960   2.476  0.2807 -0.3772  0.3714
25722SOL    HW177744   7.246   5.961   2.567 -0.9439 -0.2195 -0.0071
25722SOL    HW277745   7.208   6.008   2.428  1.0488 -0.2167 -0.5868
25723SOL     OW77746   8.109   9.107   5.594  0.3919 -0.8456  0.5644
25723SOL    HW177747   8.033   9.074   5.643 -1.6540  0.7250 -1.3752
25723SOL    HW277748   8.135   9.033   5.539 -1.0551 -0.8093 -0.2174
25724SOL     OW77749   9.019   1.040   9.513  0.0560  0.2642  0.0899
25724SOL    HW177750   9.103   0.996   9.528  0.8864  2.0346  0.9851
25724SOL    HW277751   8.956   0.969   9.505  1.2665 -1.0914  1.7475
25725SOL     OW77752   3.797   4.447   3.225  0.3103  0.6284 -0.0582
25725SOL    HW177753   3.889   4.474   3.223 -0.0602  2.1124 -2.5668
25725SOL    HW277754   3.752   4.519   3.269  0.2764  0.1110  0.7697
25726SOL     OW77755   9.291   3.919   0.315  0.2054 -0.1008 -0.6554
25726SOL    HW177756   9.333   3.959   0.239 -1.0224  0.5942 -0.9958
25726SOL    HW277757   9.344   3.946   0.390  0.7450  0.1869 -1.1393
25727SOL     OW77758   5.829   2.993   5.216 -0.2323 -0.1828 -0.3063
25727SOL    HW177759   5.744   3.035   5.234 -0.3483  0.0003 -1.2646
25727SOL    HW277760   5.824   2.910   5.264 -0.8114 -0.0125 -0.0586
25728SOL     OW77761   4.888   3.396   7.523  0.5904  0.5942 -0.2044
25728SOL    HW177762   4.964   3.338   7.524  0.2287  0.1043  1.1450
25728SOL    HW277763   4.897   3.446   7.442  1.2097 -0.9531 -1.1346
25729SOL     OW77764   4.964   3.792   8.786 -0.1395  0.5144  0.0916
25729SOL    HW177765   5.013   3.812   8.707  0.7752 -0.1204  0.4840
25729SOL    HW277766   4.995   3.705   8.812 -0.1534  0.8661  1.3462
25730SOL     OW77767   4.056   0.765   3.311  0.0488  0.8066 -0.0560
25730SOL    HW177768   4.067   0.675   3.341 -0.8171  0.7717  0.1676
25730SOL    HW277769   4.045   0.757   3.216  0.0744  0.6900 -0.0501
25731SOL     OW77770   0.884   6.326   2.001 -0.2948  0.0187  0.2941
25731SOL    HW177771   0.814   6.281   1.953  0.8911 -0.7665 -0.7460
25731SOL    HW277772   0.921   6.387   1.937  0.1222  0.2644  0.7626
25732SOL     OW77773   9.059   6.330   6.829  0.0477 -0.9422  0.3735
25732SOL    HW177774   9.149   6.312   6.803  0.3069  0.2415  0.3976
25732SOL    HW277775   9.007   6.312   6.750  0.4612 -0.4476 -0.0198
25733SOL     OW77776   9.158   2.754   5.256 -0.2214 -0.4390 -0.2114
25733SOL    HW177777   9.118   2.782   5.338 -0.8823  0.0443 -0.6812
25733SOL    HW277778   9.121   2.667   5.240 -2.1774  0.5012 -1.2793
25734SOL     OW77779   7.762   5.445   0.647  0.3317 -0.5243 -0.7626
25734SOL    HW177780   7.782   5.527   0.601  0.9864 -0.1109  0.2291
25734SOL    HW277781   7.746   5.381   0.577 -0.4320  0.4936 -1.5550
25735SOL     OW77782   1.677   3.839   5.242 -1.0830  0.4976  0.3501
25735SOL    HW177783   1.722   3.907   5.292  0.6657 -0.3540 -0.0006
25735SOL    HW277784   1.636   3.784   5.308  1.5174 -0.8308  0.9707
25736SOL     OW77785   6.227   9.002   1.744 -0.3430 -0.4042 -0.1916
25736SOL    HW177786   6.305   8.953   1.771 -0.2573 -0.1196  0.0977
25736SOL    HW277787   6.262   9.085   1.711 -0.5187 -0.3117 -0.1433
25737SOL     OW77788   6.896   9.881   7.434 -0.8116 -0.5881 -0.1697
25737SOL    HW177789   6.962   9.947   7.410 -0.3472 -1.0289 -0.1261
25737SOL    HW277790   6.944   9.798   7.433  0.0030 -0.4656  4.6978
25738SOL     OW77791   6.625   7.382   3.993 -0.7139  0.2579  0.1656
25738SOL    HW177792   6.668   7.327   3.927 -0.9295 -0.3280  0.5024
25738SOL    HW277793   6.696   7.432   4.033  0.1731 -2.5990  2.5588
25739SOL     OW77794   6.200   0.474   7.328  0.1102  0.0384 -0.2522
25739SOL    HW177795   6.116   0.451   7.366  0.2288 -0.2578 -0.1673
25739SOL    HW277796   6.244   0.524   7.396  0.2184 -0.2704 -0.0915
25740SOL     OW77797   9.819   0.267   2.896 -0.2789  0.2445 -0.6612
25740SOL    HW177798   9.765   0.302   2.825 -2.0144  0.5613  0.7276
25740SOL    HW277799   9.775   0.297   2.976  1.0962 -0.8331  0.5563
25741SOL     OW77800   6.297   7.125   3.613 -0.1526 -0.0469  0.3639
25741SOL    HW177801   6.356   7.180   3.665  0.7012  2.5500 -2.9469
25741SOL    HW277802   6.325   7.035   3.632  2.2089  0.9015  1.8829
25742SOL     OW77803   3.713   5.060   5.952  0.0835  0.4529  0.2502
25742SOL    HW177804   3.766   5.002   5.897 -1.9772 -1.2653 -0.0486
25742SOL    HW277805   3.710   5.143   5.904 -2.1188 -1.1383 -2.6916
25743SOL     OW77806   6.271   0.600   7.585  0.5203 -0.6455 -0.0521
25743SOL    HW177807   6.364   0.618   7.572  0.8571 -2.2737 -0.1723
25743SOL    HW277808   6.241   0.669   7.644  1.9523 -0.4305  0.4689
25744SOL     OW77809   8.039   5.124   2.734  0.3496  0.6174  0.4573
25744SOL    HW177810   7.990   5.112   2.816 -1.7980  3.9085 -0.1373
25744SOL    HW277811   8.120   5.165   2.761  2.2502 -3.1630  1.2677
25745SOL     OW77812   2.149   7.066   7.265 -0.6506  0.4665  0.0268
25745SOL    HW177813   2.188   7.034   7.346 -1.4801  0.8135  0.5802
25745SOL    HW277814   2.096   6.993   7.232 -1.5382  0.8212  0.6243
25746SOL     OW77815   0.752   4.679   3.970  0.3167  1.1648 -0.3387
25746SOL    HW177816   0.673   4.696   4.021  0.1047 -1.3625  0.3012
25746SOL    HW277817   0.740   4.730   3.890 -2.8936 -0.4947 -1.0996
25747SOL     OW77818   4.296   4.500   1.020  0.2586  0.1002 -0.0953
25747SOL    HW177819   4.306   4.485   0.926 -2.0349  1.2532 -0.5951
25747SOL    HW277820   4.219   4.449   1.044 -2.1609  3.5299  0.0445
25748SOL     OW77821   0.586   7.894   4.576  0.0248  0.6655  0.2345
25748SOL    HW177822   0.668   7.863   4.538 -1.5547 -0.9196 -2.1950
25748SOL    HW277823   0.555   7.961   4.514 -0.3080  1.6326  1.3975
25749SOL     OW77824   1.655   9.362   1.887 -0.5401 -0.2790  0.0417
25749SOL    HW177825   1.743   9.400   1.886  0.0388 -1.5860 -0.4251
25749SOL    HW277826   1.668   9.269   1.870 -1.9597 -0.6358  0.7047
25750SOL     OW77827   9.651   5.947   3.808  0.2306  0.3817 -0.2867
25750SOL    HW177828   9.602   6.023   3.839  1.3004  0.3040  1.7439
25750SOL    HW277829   9.586   5.894   3.763 -0.6365  2.2478 -1.3638
25751SOL     OW77830   1.311   6.250   7.972 -0.4742 -0.0431  0.0260
25751SOL    HW177831   1.287   6.299   7.892 -0.4321  1.5564  0.9462
25751SOL    HW277832   1.391   6.204   7.948  0.1578  1.3034 -0.5503
25752SOL     OW77833   9.476   7.769   0.199 -0.3581 -0.4048 -0.4066
25752SOL    HW177834   9.492   7.792   0.107 -1.2627  0.9358 -0.2624
25752SOL    HW277835   9.472   7.854   0.244 -1.4853 -0.9597  0.5874
25753SOL     OW77836   8.639   3.957   6.155 -0.4798 -0.1289 -0.9815
25753SOL    HW177837   8.668   4.042   6.189 -1.6822 -1.0381  2.7789
25753SOL    HW277838   8.719   3.904   6.155 -0.4664 -0.2333  1.2166
25754SOL     OW77839   2.941   7.807   9.178 -0.0634 -0.2526  0.0131
25754SOL    HW177840   2.953   7.734   9.118 -0.3187 -0.2897  0.0049
25754SOL    HW277841   2.852   7.796   9.211 -0.2923  0.3508 -0.3841
25755SOL     OW77842   6.961   4.747   9.156  0.6213  0.5750  0.1939
25755SOL    HW177843   6.868   4.726   9.161  0.3798  1.3762 -0.5950
25755SOL    HW277844   6.967   4.813   9.087  2.1166 -1.4511 -1.7801
25756SOL     OW77845   8.105   6.853   4.745 -0.0868  0.2671 -0.1824
25756SOL    HW177846   8.104   6.865   4.840  1.0655  3.8042 -0.4619
25756SOL    HW277847   8.020   6.884   4.716 -0.3150 -0.5038 -0.3498
25757SOL     OW77848   9.059   4.622   6.408 -0.2388 -0.1834  0.0794
25757SOL    HW177849   9.044   4.530   6.430 -1.1879  0.0306  0.3481
25757SOL    HW277850   9.042   4.669   6.489  0.7103  0.1965  0.0684
25758SOL     OW77851   5.614   9.736   1.457 -0.2614 -0.0049  0.1576
25758SOL    HW177852   5.661   9.675   1.514 -0.9311 -0.7147 -0.0306
25758SOL    HW277853   5.634   9.707   1.368  0.2120  0.6668  0.0335
25759SOL     OW77854   0.767   1.577   0.407  0.0169 -0.2861  0.2020
25759SOL    HW177855   0.686   1.625   0.423 -0.3713 -0.1772 -1.8457
25759SOL    HW277856   0.741   1.506   0.347  1.3942 -0.3374 -0.3583
25760SOL     OW77857   1.967   0.965   6.856 -0.3145 -0.2741  0.3344
25760SOL    HW177858   2.008   1.033   6.910  2.5684  0.0088 -1.9837
25760SOL    HW277859   1.987   0.883   6.901  0.9097  0.0399  0.3825
25761SOL     OW77860   3.874   5.933   1.183 -0.2256 -0.1227  0.2199
25761SOL    HW177861   3.869   5.839   1.196 -0.2473  0.0514  1.6713
25761SOL    HW277862   3.803   5.969   1.237  0.9051  0.8166  1.1511
25762SOL     OW77863   6.095   5.329   2.371 -0.3570  0.1564 -0.1350
25762SOL    HW177864   6.152   5.267   2.418 -2.3125 -1.8960 -0.2808
25762SOL    HW277865   6.051   5.378   2.441 -0.2088  0.0369  0.0441
25763SOL     OW77866   2.226   3.803   1.131  0.0760  0.4154 -0.9300
25763SOL    HW177867   2.148   3.796   1.185 -1.1938 -0.2656 -2.7541
25763SOL    HW277868   2.296   3.766   1.185 -0.0925  3.7229  1.9485
25764SOL     OW77869   5.418   2.956   8.745 -0.5843  0.0086  0.0101
25764SOL    HW177870   5.502   3.000   8.733  1.9481 -4.2711 -0.4153
25764SOL    HW277871   5.422   2.924   8.836 -2.3520  0.6829  0.3573
25765SOL     OW77872   6.425   9.247   2.685 -0.4044  0.2010 -0.1606
25765SOL    HW177873   6.488   9.220   2.751 -1.8422 -0.1651  1.1265
25765SOL    HW277874   6.391   9.165   2.648 -1.4834  0.3099  0.5289
25766SOL     OW77875   0.618   4.211   5.285 -0.0646 -0.5092  0.1190
25766SOL    HW177876   0.556   4.274   5.322 -0.2423 -0.6447  0.0555
25766SOL    HW277877   0.600   4.213   5.191 -0.5358 -1.1454  0.1879
25767SOL     OW77878   8.433   0.590   2.855 -0.4075 -0.2586  0.0796
25767SOL    HW177879   8.502   0.615   2.915  0.0750 -0.4791 -0.3771
25767SOL    HW277880   8.463   0.622   2.769 -0.8774 -0.3400 -0.1179
25768SOL     OW77881   5.468   9.905   4.697 -0.0723 -0.6471  0.1422
25768SOL    HW177882   5.544   9.884   4.752 -0.1978 -1.9207 -0.1304
25768SOL    HW277883   5.395   9.911   4.758 -0.1774 -1.8759  0.1624
25769SOL     OW77884   7.158   9.426   5.048  0.2160 -0.0821  0.1353
25769SOL    HW177885   7.219   9.444   5.120 -0.4932 -1.1934  1.0385
25769SOL    HW277886   7.212   9.383   4.981  0.4920 -0.8188  0.8151
25770SOL     OW77887   0.674   9.381   9.222 -0.7341  0.4418 -0.2565
25770SOL    HW177888   0.637   9.310   9.275 -0.0232 -0.7098 -1.2475
25770SOL    HW277889   0.598   9.418   9.177 -0.8876 -1.1596 -1.4104
25771SOL     OW77890   1.524   1.713   7.187  0.5309  0.7863  0.2293
25771SOL    HW177891   1.469   1.636   7.201  1.3874 -0.0254 -0.6965
25771SOL    HW277892   1.568   1.727   7.271 -1.9597  2.2340  1.4176
25772SOL     OW77893   9.499   0.667   6.712  0.1476 -0.3938 -0.1692
25772SOL    HW177894   9.547   0.616   6.777  2.1455  0.4311 -0.9500
25772SOL    HW277895   9.542   0.752   6.711 -2.5623  1.0986  0.4838
25773SOL     OW77896   7.417   3.798   0.472  0.0488  0.6768  0.5665
25773SOL    HW177897   7.402   3.891   0.487 -0.6076  0.8142 -0.8154
25773SOL    HW277898   7.385   3.782   0.383  2.0482 -0.4482 -0.0067
25774SOL     OW77899   7.359   7.863   0.950  0.6259 -0.6089  0.3251
25774SOL    HW177900   7.381   7.779   0.909 -1.5362 -0.7976 -0.5872
25774SOL    HW277901   7.271   7.851   0.985  0.5029  1.0972  0.7000
25775SOL     OW77902   6.439   7.406   0.391 -0.4272 -0.7959  0.6273
25775SOL    HW177903   6.421   7.345   0.319  0.3695 -0.0817 -0.1938
25775SOL    HW277904   6.407   7.490   0.360 -0.6608 -0.6024  1.3775
25776SOL     OW77905   1.370   4.118   7.940  0.1748  0.1825 -0.0018
25776SOL    HW177906   1.459   4.153   7.952 -0.5273  2.7520 -1.4456
25776SOL    HW277907   1.323   4.149   8.018 -0.5456  3.1503 -1.4587
25777SOL     OW77908   3.899   3.518   2.748  0.2563  0.4659  0.0481
25777SOL    HW177909   3.889   3.557   2.661  1.9583  1.6583  0.3279
25777SOL    HW277910   3.948   3.438   2.733 -1.1703 -0.3867 -0.2674
25778SOL     OW77911   8.347   0.050   7.927  0.0232 -0.4131  0.4924
25778SOL    HW177912   8.359  -0.038   7.891 -3.6085 -0.3818 -1.2580
25778SOL    HW277913   8.291   0.038   8.003  0.0527  0.3145  0.6402
25779SOL     OW77914   2.605   3.669   0.838 -0.6117 -0.2345  0.2294
25779SOL    HW177915   2.562   3.591   0.801 -0.9549  0.6473 -1.3295
25779SOL    HW277916   2.585   3.665   0.932  0.0428 -2.4168  0.3211
25780SOL     OW77917   2.315   6.130   7.221  0.6560 -0.5383 -0.2413
25780SOL    HW177918   2.242   6.140   7.159  1.2680 -1.8348 -1.2247
25780SOL    HW277919   2.376   6.072   7.176  1.3434 -1.1384  1.4035
25781SOL     OW77920   6.540   2.596   1.388 -0.3376 -0.0654  0.3396
25781SOL    HW177921   6.542   2.690   1.402 -1.9987  0.0345  0.0774
25781SOL    HW277922   6.598   2.561   1.456  0.3094  1.1310  0.4299
25782SOL     OW77923   2.163   9.118   6.066  0.2267 -0.1507 -0.4965
25782SOL    HW177924   2.173   9.147   5.976  0.4847  2.2735  0.2314
25782SOL    HW277925   2.076   9.150   6.092  0.9323  0.9388  0.6534
25783SOL     OW77926   4.105   5.385   9.330 -0.2904  0.0484 -0.1415
25783SOL    HW177927   4.163   5.461   9.328 -0.4271  0.1403 -1.2483
25783SOL    HW277928   4.164   5.309   9.327 -0.1899  0.1378 -1.9497
25784SOL     OW77929   5.126   4.510   7.823  0.0982 -0.1198 -0.5517
25784SOL    HW177930   5.037   4.544   7.832  1.1446  3.3668 -1.5836
25784SOL    HW277931   5.149   4.527   7.732  1.4769 -2.0448 -0.6260
25785SOL     OW77932   0.242   0.474   4.840 -0.4366 -0.1007  0.4036
25785SOL    HW177933   0.186   0.412   4.793 -1.6807  0.7751  0.6600
25785SOL    HW277934   0.222   0.460   4.932 -0.9406  0.8418  0.4546
25786SOL     OW77935   7.322   6.801   0.484  0.3394  0.1078 -0.2404
25786SOL    HW177936   7.227   6.811   0.497  0.4109  0.8428 -0.2537
25786SOL    HW277937   7.351   6.749   0.558 -0.0345  0.0979 -0.0958
25787SOL     OW77938   0.191   9.608   7.191 -0.1293  0.0020 -0.1826
25787SOL    HW177939   0.134   9.596   7.115 -0.9676 -1.5550  0.6432
25787SOL    HW277940   0.279   9.597   7.156 -0.2453  2.6537 -1.5193
25788SOL     OW77941   0.666   8.766   1.117  0.4844 -0.0588 -0.1018
25788SOL    HW177942   0.712   8.798   1.195 -0.2925 -1.0834  0.8110
25788SOL    HW277943   0.689   8.673   1.113 -1.7590 -0.6891  0.5836
25789SOL     OW77944   0.996   2.532   3.823 -0.0613 -0.1998 -0.1501
25789SOL    HW177945   0.964   2.584   3.897  0.0652  0.7479 -0.7506
25789SOL    HW277946   0.990   2.441   3.854  3.8558  0.2430  2.6813
25790SOL     OW77947   0.609   0.608   2.314  0.1514  0.3210 -0.5003
25790SOL    HW177948   0.616   0.566   2.401 -0.1475  0.6490 -0.3169
25790SOL    HW277949   0.692   0.585   2.271 -0.4360 -1.3795 -0.8133
25791SOL     OW77950   7.425   8.183   1.182  0.1840 -0.1213  0.0182
25791SOL    HW177951   7.407   8.196   1.089 -0.3120  0.7668  0.2269
25791SOL    HW277952   7.342   8.154   1.219  0.4476 -0.7292  0.1459
25792SOL     OW77953   1.594   9.939   5.086 -0.4138  0.3432  0.0791
25792SOL    HW177954   1.501   9.943   5.065 -0.7015  1.2966  1.3708
25792SOL    HW277955   1.602   9.864   5.145 -0.1989 -0.2736 -0.7217
25793SOL     OW77956   9.895   6.494   0.930  0.3113  0.3032 -0.2148
25793SOL    HW177957   9.957   6.441   0.979  0.3753  0.7396  0.1871
25793SOL    HW277958   9.822   6.435   0.910  0.9434 -0.2643 -0.8678
25794SOL     OW77959   2.402   0.898   8.804  0.2364 -0.7587 -0.2052
25794SOL    HW177960   2.335   0.844   8.846  0.8490 -0.1771  1.6234
25794SOL    HW277961   2.425   0.963   8.870  3.1781 -1.3998 -0.4556
25795SOL     OW77962   0.934   1.549   2.762 -0.1168  1.1477 -0.1370
25795SOL    HW177963   0.922   1.454   2.755  2.5571  0.7685 -0.5068
25795SOL    HW277964   0.949   1.565   2.855  0.9129  0.9666 -0.2601
25796SOL     OW77965   8.736   6.435   6.733 -0.0468  0.1777  0.4308
25796SOL    HW177966   8.693   6.376   6.794 -1.2925  0.5202 -0.0927
25796SOL    HW277967   8.809   6.384   6.698 -0.8194 -0.8985  0.3392
25797SOL     OW77968   9.893   1.509   9.503  0.1435 -0.8147  0.5024
25797SOL    HW177969   9.933   1.596   9.511 -0.5418 -0.5849  1.6505
25797SOL    HW277970   9.799   1.527   9.499  0.0166 -1.4866  0.4237
25798SOL     OW77971   1.311   2.936   3.986  0.1003  0.5230 -0.5327
25798SOL    HW177972   1.302   2.844   3.963 -1.2719  0.8158 -1.2997
25798SOL    HW277973   1.384   2.939   4.047  0.2012 -1.0607 -0.5442
25799SOL     OW77974   0.042   4.000   2.847  0.3507 -0.8582 -0.2292
25799SOL    HW177975   0.022   3.906   2.849  0.7563 -1.0817 -2.8471
25799SOL    HW277976  -0.043   4.043   2.841  0.1410 -0.9876  1.3727
25800SOL     OW77977   8.926   2.378   6.119 -0.3577 -0.1661 -0.0327
25800SOL    HW177978   8.954   2.364   6.028 -0.3872 -1.8283  0.1783
25800SOL    HW277979   9.007   2.368   6.170 -0.6698 -1.2674  0.2718
25801SOL     OW77980   2.007   5.236   7.548 -0.1244 -0.6073  0.1264
25801SOL    HW177981   2.101   5.242   7.532 -0.2994  0.7602 -0.4988
25801SOL    HW277982   1.998   5.252   7.642  0.2595 -0.6170  0.1687
25802SOL     OW77983   3.069   8.643   7.332 -0.0040  0.5514 -0.0304
25802SOL    HW177984   3.003   8.603   7.276  0.5957  0.0652 -0.3943
25802SOL    HW277985   3.130   8.685   7.272 -0.1083  1.2067  0.3127
25803SOL     OW77986   6.762   9.785   0.525  0.4110  0.2324 -0.6255
25803SOL    HW177987   6.689   9.806   0.466 -1.6684 -2.8840  0.6086
25803SOL    HW277988   6.796   9.702   0.493  0.9738 -0.2177  1.0346
25804SOL     OW77989   9.915   2.878   8.164 -0.1538  0.3075 -0.0254
25804SOL    HW177990   9.859   2.802   8.182  0.4328  0.0530  0.8006
25804SOL    HW277991   9.867   2.952   8.200  0.6561 -0.0966  2.0610
25805SOL     OW77992   5.440   7.996   5.922  0.1599  0.2389  0.3908
25805SOL    HW177993   5.470   7.907   5.941  2.3515  1.1319  1.3543
25805SOL    HW277994   5.466   8.012   5.831 -0.6385 -0.2361  0.0693
25806SOL     OW77995   2.691   7.998   1.885 -0.3393 -0.2578  0.6010
25806SOL    HW177996   2.617   7.986   1.945  0.1620 -1.2703  1.0346
25806SOL    HW277997   2.699   7.914   1.840 -0.1392  0.2070 -0.2320
25807SOL     OW77998   3.651   2.396   1.648 -0.0956 -0.0096  0.3011
25807SOL    HW177999   3.575   2.357   1.692 -0.7622  1.1500  0.2017
25807SOL    HW278000   3.723   2.337   1.670 -0.8616 -0.7068  1.0534
25808SOL     OW78001   5.456   7.034   3.464  0.4973  0.0565  0.0684
25808SOL    HW178002   5.498   7.106   3.512  1.8358 -0.1485 -0.7345
25808SOL    HW278003   5.365   7.035   3.494 -0.5166  4.3222 -2.3710
25809SOL     OW78004   3.486   4.825   9.681 -0.2712 -0.0454 -0.3764
25809SOL    HW178005   3.523   4.740   9.706 -0.2370  0.4400  1.3426
25809SOL    HW278006   3.429   4.848   9.754 -0.5807  1.2387 -1.0043
25810SOL     OW78007   4.160   8.045   0.821 -0.1577  0.9554 -0.4233
25810SOL    HW178008   4.201   8.013   0.741 -1.7601 -0.8569 -0.6126
25810SOL    HW278009   4.066   8.043   0.802 -0.6550 -0.4111  1.7607
25811SOL     OW78010   6.776   6.184   0.971  0.0697  0.2013  0.0450
25811SOL    HW178011   6.813   6.271   0.989  1.3199 -0.5241  1.0978
25811SOL    HW278012   6.709   6.200   0.904  1.0909  1.8062 -0.6407
25812SOL     OW78013   7.117   5.986   1.231  0.1218 -1.0825  0.7737
25812SOL    HW178014   7.088   5.901   1.195  0.2173 -0.0879 -1.9247
25812SOL    HW278015   7.209   5.992   1.207 -0.4593  0.7634 -1.4277
25813SOL     OW78016   0.628   6.700   5.995  0.0113  0.3956 -0.5476
25813SOL    HW178017   0.632   6.776   6.053 -0.1328  0.6567 -0.8778
25813SOL    HW278018   0.540   6.703   5.957  0.1400  0.2820 -0.8561
25814SOL     OW78019   0.558   7.139   5.521  0.2506  0.2660  0.3074
25814SOL    HW178020   0.567   7.232   5.539  1.4243  0.2084  0.0983
25814SOL    HW278021   0.475   7.131   5.474 -0.0487  1.1453  0.6690
25815SOL     OW78022   2.221   4.353   3.200  0.1578  0.1850 -0.1554
25815SOL    HW178023   2.240   4.341   3.293 -0.0781 -0.0262 -0.1360
25815SOL    HW278024   2.295   4.312   3.155  0.0793 -0.0533 -0.0674
25816SOL     OW78025   0.640   5.102   5.827 -0.2957  0.2096  0.1679
25816SOL    HW178026   0.589   5.082   5.749  0.8411  0.2990 -0.6338
25816SOL    HW278027   0.727   5.066   5.809  0.3546  1.3721  0.8303
25817SOL     OW78028   2.392   1.059   3.750  0.4609  0.0857 -0.2565
25817SOL    HW178029   2.338   1.134   3.777 -2.4015 -0.7379 -3.0008
25817SOL    HW278030   2.342   0.983   3.778  0.9616 -0.7330 -1.4910
25818SOL     OW78031   3.880   6.772   3.018  0.1043  0.0617 -0.2055
25818SOL    HW178032   3.884   6.677   3.018  1.1193  0.0968 -1.0119
25818SOL    HW278033   3.911   6.798   2.932  1.5679  1.1730  0.6042
25819SOL     OW78034   8.936   6.265   8.341  0.0852 -0.0930 -0.1605
25819SOL    HW178035   9.025   6.298   8.325 -0.6539  1.2646 -1.7997
25819SOL    HW278036   8.881   6.318   8.283 -1.5191 -2.4522 -0.9114
25820SOL     OW78037   0.859   9.560   8.369  0.2633  0.4652  0.0489
25820SOL    HW178038   0.810   9.513   8.436  0.6487 -0.4344 -0.2935
25820SOL    HW278039   0.826   9.526   8.286  0.1414  1.2155 -0.2186
25821SOL     OW78040   4.374   9.746   8.011  0.5242  0.2953 -0.7327
25821SOL    HW178041   4.393   9.662   8.052 -0.3034  0.5064  0.1431
25821SOL    HW278042   4.293   9.775   8.054  1.4248  2.0770 -0.1492
25822SOL     OW78043   1.749   9.436   0.337 -0.4262  0.1131  0.3127
25822SOL    HW178044   1.685   9.367   0.348 -1.3438  0.4478 -2.2357
25822SOL    HW278045   1.699   9.517   0.341  0.4577  0.6295  2.0638
25823SOL     OW78046   5.252   9.550   1.134  0.3725  0.3376 -0.2352
25823SOL    HW178047   5.162   9.576   1.115 -0.3029 -2.0876 -0.7286
25823SOL    HW278048   5.266   9.576   1.225 -0.8907  0.5973 -0.0936
25824SOL     OW78049   7.404   7.969   6.077 -0.9314  0.0704 -0.9175
25824SOL    HW178050   7.355   7.891   6.102  0.2944 -0.7262 -0.9066
25824SOL    HW278051   7.349   8.042   6.105 -2.2026 -0.7775 -1.1169
25825SOL     OW78052   9.036   3.065   4.109  0.1941  0.2599  0.0674
25825SOL    HW178053   9.063   3.017   4.031  0.7427  0.3055  0.2250
25825SOL    HW278054   8.952   3.104   4.086  0.5954  0.6910 -0.6756
25826SOL     OW78055   3.496   9.871   7.906  0.7463  0.3143  0.3462
25826SOL    HW178056   3.440   9.836   7.837  0.8875  0.6648  0.0495
25826SOL    HW278057   3.458   9.956   7.928  1.0195  0.4481  0.3085
25827SOL     OW78058   1.985   4.685   9.094 -0.0274  0.3699  0.4190
25827SOL    HW178059   1.938   4.627   9.154  0.5395  0.8693  1.3697
25827SOL    HW278060   1.937   4.768   9.097  1.0177  0.9786  1.6219
25828SOL     OW78061   9.185   9.518   6.305 -0.1080  0.1957 -0.5120
25828SOL    HW178062   9.097   9.482   6.315 -0.1783  0.0600 -1.5115
25828SOL    HW278063   9.225   9.510   6.392  0.2045 -3.1695 -0.8076
25829SOL     OW78064   6.852   7.084   7.022 -0.0019  0.0711  0.3579
25829SOL    HW178065   6.925   7.028   6.997 -0.0370 -0.2200  0.8893
25829SOL    HW278066   6.795   7.027   7.074  0.4061  0.8149  1.6625
25830SOL     OW78067   0.426   8.516   5.348  0.0338  0.1917  0.1357
25830SOL    HW178068   0.337   8.538   5.375  0.1418  0.6257  0.1375
25830SOL    HW278069   0.418   8.493   5.256  0.0973  1.3073 -0.1530
25831SOL     OW78070   4.524   8.449   3.117 -0.7599 -0.4429  0.1286
25831SOL    HW178071   4.436   8.420   3.092 -0.0500 -0.6355 -2.4264
25831SOL    HW278072   4.577   8.370   3.115 -0.0920  0.0143 -0.5743
25832SOL     OW78073   0.169   3.182   6.613  0.0943  0.7173  0.3513
25832SOL    HW178074   0.130   3.266   6.588 -1.0697  1.1912  3.4139
25832SOL    HW278075   0.233   3.205   6.681  2.1795 -0.6152 -1.0361
25833SOL     OW78076   2.264   7.262   6.450 -0.0826  0.2131 -0.4298
25833SOL    HW178077   2.339   7.302   6.405  2.2908 -1.1160  1.9782
25833SOL    HW278078   2.214   7.336   6.483  3.6076  1.5720  3.0387
25834SOL     OW78079   0.986   3.631   4.217 -0.3206  0.5875  0.1642
25834SOL    HW178080   0.974   3.538   4.236 -0.3573  0.9389  1.9738
25834SOL    HW278081   0.903   3.672   4.241 -0.0993  1.1821 -0.0575
25835SOL     OW78082   9.553   6.535   4.495  0.1370  0.0636 -0.2615
25835SOL    HW178083   9.593   6.548   4.409 -0.2953  1.1374 -0.3082
25835SOL    HW278084   9.515   6.619   4.517 -1.8681 -0.8299 -0.0853
25836SOL     OW78085   5.309   6.353   1.731  0.3222 -0.3734  0.3884
25836SOL    HW178086   5.374   6.317   1.792  2.3393 -0.2300 -1.5584
25836SOL    HW278087   5.360   6.405   1.669 -1.7872  0.5029 -0.7101
25837SOL     OW78088   5.799   2.579   1.434  0.0385 -0.3885  0.5903
25837SOL    HW178089   5.758   2.664   1.420 -1.1362 -0.5110  2.7129
25837SOL    HW278090   5.893   2.598   1.443  0.2019  0.2374 -1.8342
25838SOL     OW78091   8.115   6.698   4.146  0.1161  0.3148  0.0590
25838SOL    HW178092   8.041   6.756   4.167  0.0152 -0.1754  1.1730
25838SOL    HW278093   8.080   6.610   4.159 -0.2154 -0.1457 -3.1647
25839SOL     OW78094   9.744   7.992   5.232 -0.3484 -0.6732  0.2766
25839SOL    HW178095   9.740   7.916   5.291  0.7088 -1.4436 -0.6153
25839SOL    HW278096   9.776   8.063   5.288 -0.0104 -1.2242  0.8048
25840SOL     OW78097   5.535   7.066   5.757  0.5850 -0.1650  0.1558
25840SOL    HW178098   5.560   7.093   5.669  0.7714  1.3580  0.6439
25840SOL    HW278099   5.613   7.023   5.792  0.7416 -0.1604 -0.1817
25841SOL     OW78100   5.048   6.119   9.879 -0.0850  0.8404  0.1134
25841SOL    HW178101   4.954   6.123   9.860 -0.7069 -1.5317  2.1842
25841SOL    HW278102   5.087   6.087   9.798 -1.4684 -0.7611  0.0195
25842SOL     OW78103   7.999   7.553   1.839 -0.6389 -0.1898  0.3227
25842SOL    HW178104   7.953   7.481   1.883 -0.2148 -0.1533  0.8403
25842SOL    HW278105   8.013   7.522   1.749 -0.2857 -0.8410  0.5932
25843SOL     OW78106   3.862   1.739   1.717 -0.2663  0.1963 -0.2380
25843SOL    HW178107   3.807   1.676   1.669 -0.5952  0.9812 -0.9082
25843SOL    HW278108   3.861   1.707   1.807 -1.2975 -0.1672 -0.3654
25844SOL     OW78109   1.097   1.955   5.178  0.3861  0.4609 -0.1485
25844SOL    HW178110   1.032   2.022   5.157  0.6903  0.5738 -0.7435
25844SOL    HW278111   1.176   1.981   5.130  0.8056  0.2023  0.3876
25845SOL     OW78112   8.368   7.768   5.953 -0.4023  0.0341  0.2101
25845SOL    HW178113   8.342   7.797   6.040 -0.9194  1.4891 -0.3974
25845SOL    HW278114   8.462   7.750   5.960  0.0691  2.3428  0.5338
25846SOL     OW78115   3.904   6.936   9.065 -0.0939 -0.0962 -0.0424
25846SOL    HW178116   3.959   6.859   9.079 -1.0207 -0.6265  0.8323
25846SOL    HW278117   3.815   6.902   9.067 -0.5634  1.0981  1.3136
25847SOL     OW78118   5.402   5.346   1.113 -0.4084 -0.0199  0.2129
25847SOL    HW178119   5.338   5.398   1.161 -0.7133 -0.5056  0.3350
25847SOL    HW278120   5.384   5.256   1.139 -0.4205 -0.2662 -0.6261
25848SOL     OW78121   2.466   2.083   0.286  0.3521 -0.2911  0.2779
25848SOL    HW178122   2.532   2.123   0.342  0.5877  0.3720 -0.4577
25848SOL    HW278123   2.449   1.998   0.326  1.4258 -0.3415  0.6589
25849SOL     OW78124   1.029   1.060   7.336 -0.0014 -0.2216  0.8461
25849SOL    HW178125   1.109   1.006   7.332 -0.4044 -0.9949  2.3768
25849SOL    HW278126   0.971   1.022   7.270  1.4348  1.3847 -1.4921
25850SOL     OW78127   9.235   1.876   1.650 -0.1833 -0.7555 -0.0582
25850SOL    HW178128   9.285   1.801   1.619 -0.5107 -0.9307 -0.1596
25850SOL    HW278129   9.237   1.868   1.745 -0.8561 -1.3106 -0.0848
25851SOL     OW78130   8.110   8.820   9.169  0.2350  0.1451 -0.0377
25851SOL    HW178131   8.109   8.863   9.084 -1.8794  1.3212  0.5028
25851SOL    HW278132   8.201   8.825   9.198  0.7883  0.6374 -1.7444
25852SOL     OW78133   8.689   8.746   4.481 -0.1720  1.0624 -0.7248
25852SOL    HW178134   8.628   8.811   4.515 -0.4986  0.9532 -1.0936
25852SOL    HW278135   8.633   8.674   4.451  0.1917  0.5446 -0.1837
25853SOL     OW78136   6.112   1.454   8.545  0.0469  0.1906 -0.2429
25853SOL    HW178137   6.048   1.391   8.578  0.9190 -0.2420  0.6863
25853SOL    HW278138   6.164   1.404   8.482  1.6153 -0.4813  1.4828
25854SOL     OW78139   8.892   1.593   0.155 -0.1266  0.4193  0.0139
25854SOL    HW178140   8.893   1.578   0.060 -0.7643  0.2960  0.0260
25854SOL    HW278141   8.896   1.688   0.164  3.4955  0.4240 -0.0692
25855SOL     OW78142   6.699   9.518   6.038 -0.1073  0.2681  0.0874
25855SOL    HW178143   6.704   9.423   6.042  0.4807  0.2539 -0.7295
25855SOL    HW278144   6.721   9.547   6.127 -0.9689 -0.3657  0.5236
25856SOL     OW78145   9.304   2.888   5.094  0.2142  0.1038  0.2306
25856SOL    HW178146   9.395   2.864   5.107  0.2829  0.9732  1.5812
25856SOL    HW278147   9.255   2.828   5.151 -0.1071 -0.6336 -0.7972
25857SOL     OW78148   2.532   9.704   3.624 -0.7445 -0.1425  0.5458
25857SOL    HW178149   2.520   9.640   3.693 -1.6971 -2.1673 -1.3964
25857SOL    HW278150   2.627   9.718   3.620 -0.4794 -1.7770  0.7167
25858SOL     OW78151   0.957   1.301   8.272  0.4285  0.2024 -0.5076
25858SOL    HW178152   0.933   1.209   8.279  0.1977  0.1245 -2.0415
25858SOL    HW278153   1.052   1.301   8.262  0.9839  0.3926  3.2779
25859SOL     OW78154   4.914   4.449   3.356 -0.6859  0.8934 -0.7402
25859SOL    HW178155   4.905   4.365   3.311 -0.0215  1.2466 -1.5525
25859SOL    HW278156   4.989   4.437   3.415  0.5214  1.4244 -2.1059
25860SOL     OW78157   3.021   8.664   0.078 -0.5474  0.1101 -0.2371
25860SOL    HW178158   2.945   8.618   0.042 -1.5196  0.9100  0.6958
25860SOL    HW278159   2.984   8.744   0.116  0.9677  1.2738 -1.0862
25861SOL     OW78160   8.007   2.508   9.191 -0.3807  0.3042  0.3069
25861SOL    HW178161   7.938   2.453   9.153  0.9948 -1.1099 -0.2317
25861SOL    HW278162   8.011   2.584   9.133 -0.0359 -0.6328 -0.9391
25862SOL     OW78163   2.932   0.796   4.343  0.3777 -0.2937 -0.1572
25862SOL    HW178164   3.017   0.751   4.343  0.5593 -0.1214  2.6816
25862SOL    HW278165   2.878   0.745   4.282  1.3346 -2.8793  0.9873
25863SOL     OW78166   5.035   2.638   0.727  0.1616 -0.0123 -0.2352
25863SOL    HW178167   4.995   2.699   0.666 -1.8685 -0.1538  0.8531
25863SOL    HW278168   5.070   2.694   0.797 -0.1171 -0.0123 -0.0974
25864SOL     OW78169   6.769   5.657   9.601  0.3973 -0.4318 -0.1030
25864SOL    HW178170   6.790   5.692   9.688  0.5716 -1.2995  0.2138
25864SOL    HW278171   6.854   5.636   9.562  0.4321  1.2765 -1.0894
25865SOL     OW78172   6.132   2.192   4.071  0.2437 -0.1629 -0.6654
25865SOL    HW178173   6.206   2.198   4.131 -0.0318  0.8424 -0.4090
25865SOL    HW278174   6.159   2.239   3.993 -0.3044  0.6664 -0.3685
25866SOL     OW78175   9.726   9.207   6.696  0.0604  0.0972  0.0442
25866SOL    HW178176   9.692   9.181   6.611 -1.1912 -0.4772  0.6924
25866SOL    HW278177   9.717   9.129   6.751 -0.7573  0.9408  1.1590
25867SOL     OW78178   7.735   4.677   8.859 -0.0596  0.4399 -0.5400
25867SOL    HW178179   7.737   4.659   8.765 -0.3752 -0.0291 -0.4616
25867SOL    HW278180   7.646   4.654   8.885  0.4775 -0.9394  0.1580
25868SOL     OW78181   6.576   1.615   9.134 -0.0743 -0.2944  0.4537
25868SOL    HW178182   6.619   1.685   9.183 -0.5329  0.0118  0.4302
25868SOL    HW278183   6.512   1.661   9.078 -1.6017 -0.8250  1.6824
25869SOL     OW78184   2.646   0.320   2.478 -0.7178  0.4893  0.5834
25869SOL    HW178185   2.578   0.256   2.459  0.1099 -0.3978  0.5023
25869SOL    HW278186   2.694   0.328   2.395 -1.9066  2.6260  0.0302
25870SOL     OW78187   3.600   8.903   8.094  0.3979  0.0237 -0.3250
25870SOL    HW178188   3.642   8.986   8.075 -0.1599  0.5405  0.6469
25870SOL    HW278189   3.597   8.898   8.189 -1.6383 -0.0163 -0.3353
25871SOL     OW78190   4.136   9.883   4.678  0.3000 -0.8050  0.2655
25871SOL    HW178191   4.081   9.818   4.722 -1.0445  0.0049 -0.1443
25871SOL    HW278192   4.225   9.855   4.696 -0.2079 -1.3387  2.2563
25872SOL     OW78193   1.746   1.466   6.125  0.0351  0.6500  0.2751
25872SOL    HW178194   1.707   1.451   6.039 -1.4779 -2.4552  1.3072
25872SOL    HW278195   1.690   1.532   6.166 -0.1808  1.0038 -0.5907
25873SOL     OW78196   1.702   6.623   6.929 -0.0836 -0.1353  0.0521
25873SOL    HW178197   1.657   6.652   6.850 -1.9937  0.2812  1.2124
25873SOL    HW278198   1.795   6.632   6.909 -0.4946 -0.3245 -2.2170
25874SOL     OW78199   1.718   6.596   8.889  0.4006 -0.6275 -0.2029
25874SOL    HW178200   1.630   6.631   8.879  0.4130 -0.7594 -0.8300
25874SOL    HW278201   1.736   6.602   8.983 -1.1236 -2.6268  0.2796
25875SOL     OW78202   9.789   8.413   5.283 -0.1019  0.3786 -0.2594
25875SOL    HW178203   9.870   8.405   5.233  0.2405 -0.1680  0.3550
25875SOL    HW278204   9.777   8.507   5.294  0.3472  0.4714 -0.5318
25876SOL     OW78205   2.311   1.910   5.072  0.3565 -0.2411  0.3323
25876SOL    HW178206   2.256   1.868   5.139 -1.9458  0.3943 -1.0251
25876SOL    HW278207   2.334   1.995   5.109  0.3309 -0.4740  0.8846
25877SOL     OW78208   5.534   0.971   0.363  0.7234  0.2739  0.0217
25877SOL    HW178209   5.439   0.955   0.359  0.9935 -1.3938 -0.2661
25877SOL    HW278210   5.553   1.020   0.284  0.4715 -1.5812 -1.2342
25878SOL     OW78211   2.405   3.795   5.707  0.1012  0.5033 -0.0858
25878SOL    HW178212   2.344   3.842   5.764  1.4391  0.6160  1.3028
25878SOL    HW278213   2.349   3.755   5.641 -1.5116  0.4054  1.2654
25879SOL     OW78214   5.683   7.741   2.337 -0.0786 -0.5417  0.1397
25879SOL    HW178215   5.675   7.835   2.325  0.3827 -0.5803 -0.5273
25879SOL    HW278216   5.710   7.708   2.251  1.2442 -1.0993  0.7373
25880SOL     OW78217   2.065   4.074   0.108  0.0219 -0.5260  0.4405
25880SOL    HW178218   2.111   3.992   0.092  1.3349  0.5629 -1.9422
25880SOL    HW278219   2.134   4.137   0.127 -0.8640  0.2944  1.0665
25881SOL     OW78220   2.315   7.931   0.318  0.1506 -0.1711 -0.4389
25881SOL    HW178221   2.345   7.847   0.283  0.9555 -0.1730  0.2130
25881SOL    HW278222   2.231   7.912   0.359  1.1814 -1.1179  1.3967
25882SOL     OW78223   9.484   6.926   8.466 -1.3538  0.1816  0.3157
25882SOL    HW178224   9.536   6.849   8.489 -2.3039 -0.7467 -0.5113
25882SOL    HW278225   9.545   6.999   8.472  0.1272 -0.8959 -0.9607
25883SOL     OW78226   5.149   1.133   4.220 -0.3644  0.2058 -0.0518
25883SOL    HW178227   5.140   1.052   4.170  2.4879  0.7947 -1.7481
25883SOL    HW278228   5.195   1.108   4.300 -1.8092 -0.1816  0.6995
25884SOL     OW78229   6.105   8.175   5.335 -0.5438  0.2928 -0.3002
25884SOL    HW178230   6.034   8.231   5.305 -0.3412  0.6429 -0.1260
25884SOL    HW278231   6.100   8.180   5.431 -0.2216  0.3989 -0.2885
25885SOL     OW78232   7.924   8.822   6.878  0.1182  0.0463 -0.3553
25885SOL    HW178233   7.998   8.802   6.822  0.1498  0.4551 -0.4603
25885SOL    HW278234   7.864   8.871   6.823 -0.0079  0.1490 -0.1281
25886SOL     OW78235   5.383   0.464   7.802 -0.0136 -0.2577 -0.4328
25886SOL    HW178236   5.322   0.440   7.872  0.2465 -0.9109 -0.4180
25886SOL    HW278237   5.389   0.384   7.749  1.6004 -0.5311  0.1295
25887SOL     OW78238   5.403   1.420   4.341  0.3756  0.0121 -0.0201
25887SOL    HW178239   5.423   1.376   4.424 -0.3066  0.2780  0.2909
25887SOL    HW278240   5.431   1.358   4.274 -3.0115 -2.2090  0.3582
25888SOL     OW78241   1.878   8.517   5.263 -0.1002  0.0585 -0.4233
25888SOL    HW178242   1.800   8.489   5.310 -0.1058  1.3877  0.4043
25888SOL    HW278243   1.902   8.600   5.304  3.0022 -1.3062  0.8677
25889SOL     OW78244   3.132   9.269   1.711  0.1132  0.4603  0.0027
25889SOL    HW178245   3.190   9.294   1.783 -2.4572 -0.0029  2.4528
25889SOL    HW278246   3.082   9.195   1.747  0.4457 -1.5065 -3.2539
25890SOL     OW78247   5.983   7.342   8.372  0.0335  0.3202  0.2045
25890SOL    HW178248   5.986   7.264   8.427  0.4858 -1.1372 -1.7910
25890SOL    HW278249   5.900   7.385   8.396 -0.2071 -0.7231  1.3573
25891SOL     OW78250   6.661   6.349   6.909  0.3427  0.5327  0.3703
25891SOL    HW178251   6.599   6.420   6.896  3.2152  2.8661 -2.3000
25891SOL    HW278252   6.649   6.293   6.832  0.7401  0.3532  0.4363
25892SOL     OW78253   9.103   9.591   3.472  0.3597  0.1696 -0.5428
25892SOL    HW178254   9.038   9.525   3.445 -1.1882  1.0700  0.7570
25892SOL    HW278255   9.098   9.658   3.404 -0.8125  0.6813  0.0181
25893SOL     OW78256   4.868   8.182   4.230 -0.3353  0.1547  0.2757
25893SOL    HW178257   4.842   8.244   4.299 -2.8073  0.2926 -0.6729
25893SOL    HW278258   4.931   8.231   4.177 -0.3402  0.9495  0.9634
25894SOL     OW78259   7.622   0.740   6.110 -0.7225  0.8828  0.0136
25894SOL    HW178260   7.693   0.685   6.143 -0.6545  0.4741 -0.7973
25894SOL    HW278261   7.645   0.828   6.140 -0.4507  0.5887  0.6963
25895SOL     OW78262   0.869   2.273   4.873 -0.2824  0.1897  0.2274
25895SOL    HW178263   0.822   2.355   4.889 -0.1540  0.6823 -1.6983
25895SOL    HW278264   0.805   2.216   4.831  0.3382  0.2773 -0.8817
25896SOL     OW78265   5.776   8.302   6.180  0.2109  0.2060  0.1090
25896SOL    HW178266   5.854   8.248   6.193 -0.7288 -1.2299  0.0193
25896SOL    HW278267   5.718   8.248   6.127 -0.9861  1.1094  0.4600
25897SOL     OW78268   1.645   3.533   0.902  0.1587 -0.6070  0.1532
25897SOL    HW178269   1.720   3.587   0.928  0.4084 -0.3680 -0.9985
25897SOL    HW278270   1.666   3.505   0.813 -0.6886 -1.3347  0.1738
25898SOL     OW78271   2.165   9.740   7.090 -0.0202  0.1037 -0.1174
25898SOL    HW178272   2.121   9.657   7.073 -0.1172 -0.1506  1.3242
25898SOL    HW278273   2.169   9.747   7.185  1.2579  1.0790 -0.2114
25899SOL     OW78274   9.015   1.365   3.513 -0.0344  0.2540  0.3546
25899SOL    HW178275   8.920   1.376   3.517 -0.2221 -1.0294 -0.3139
25899SOL    HW278276   9.028   1.272   3.494  1.3661  0.3418  0.7763
25900SOL     OW78277   3.466   6.640   1.163  0.8459 -0.2097  0.3881
25900SOL    HW178278   3.509   6.683   1.090  0.1531  0.6710  0.4785
25900SOL    HW278279   3.401   6.582   1.122  0.6154  0.1122  0.2919
25901SOL     OW78280   8.492   5.610   8.108 -0.3212 -0.2421 -0.1759
25901SOL    HW178281   8.478   5.554   8.185 -2.3891  1.0166  0.4401
25901SOL    HW278282   8.548   5.681   8.141  0.6368 -0.8773 -0.4271
25902SOL     OW78283   5.578   7.969   2.172  0.2389 -0.2368  0.5622
25902SOL    HW178284   5.508   8.034   2.161  1.3419  0.8417 -0.4722
25902SOL    HW278285   5.583   7.924   2.088 -0.2982 -1.4853  1.1686
25903SOL     OW78286   1.686   5.384   7.051 -0.3391 -0.3181  0.0886
25903SOL    HW178287   1.616   5.405   6.989 -0.4964  0.7020  0.5975
25903SOL    HW278288   1.642   5.336   7.121 -0.7976  1.4638  1.0579
25904SOL     OW78289   4.921   2.655   6.645  0.1383  0.2216 -0.6708
25904SOL    HW178290   4.866   2.727   6.614  0.3742  0.6691 -0.0597
25904SOL    HW278291   4.862   2.579   6.645 -1.5473  1.2885  3.0831
25905SOL     OW78292   8.607   7.852   1.946  0.0525 -0.6099  0.0727
25905SOL    HW178293   8.650   7.937   1.954 -0.1967 -0.5793  1.3086
25905SOL    HW278294   8.519   7.873   1.916 -0.0904 -0.3912  0.6219
25906SOL     OW78295   9.451   5.779   7.042 -0.1886 -0.1122  0.8844
25906SOL    HW178296   9.399   5.703   7.017 -0.1941 -0.7615  2.7236
25906SOL    HW278297   9.467   5.768   7.136 -0.0522  2.0779  1.1780
25907SOL     OW78298   8.422   8.052   7.576 -0.2750  0.4576 -0.2111
25907SOL    HW178299   8.508   8.023   7.544 -0.1405  0.2061  0.3741
25907SOL    HW278300   8.359   8.004   7.523 -0.0582  0.5636 -0.5705
25908SOL     OW78301   1.429   9.567   1.796  0.4077  0.1704  0.1961
25908SOL    HW178302   1.509   9.514   1.796  0.0783 -0.3515 -1.0622
25908SOL    HW278303   1.461   9.657   1.803  1.1782  0.0281 -1.1775
25909SOL     OW78304   6.244   5.361   1.685  0.4493  0.2145  0.2224
25909SOL    HW178305   6.152   5.378   1.705 -0.1342 -1.5881 -0.6540
25909SOL    HW278306   6.272   5.438   1.635 -0.7919  0.5116 -0.0630
25910SOL     OW78307   2.297   6.924   5.419 -0.0369  0.4884 -0.1767
25910SOL    HW178308   2.361   6.881   5.362  2.0808  1.0822  1.6007
25910SOL    HW278309   2.276   7.006   5.375  0.4290  0.2796 -0.7959
25911SOL     OW78310   2.181   0.353   9.241  0.2457  0.0624 -0.4886
25911SOL    HW178311   2.203   0.269   9.281 -1.8878 -0.1426  0.3446
25911SOL    HW278312   2.264   0.400   9.239  0.9766 -0.9900  1.6072
25912SOL     OW78313   9.680   6.591   5.864  0.0834 -0.7599 -0.0744
25912SOL    HW178314   9.730   6.648   5.806  1.4884  0.3198  2.0262
25912SOL    HW278315   9.714   6.503   5.848  2.2037 -0.1600  0.7226
25913SOL     OW78316   0.899   7.728   4.652 -0.2689 -0.9254 -0.0137
25913SOL    HW178317   0.844   7.763   4.722 -1.6578 -1.3792 -0.8285
25913SOL    HW278318   0.988   7.739   4.684 -0.8639 -2.6253  2.5710
25914SOL     OW78319   2.182   1.440   1.377 -0.3106  0.7119 -0.7287
25914SOL    HW178320   2.216   1.364   1.423 -0.0777  0.8717 -0.6367
25914SOL    HW278321   2.087   1.438   1.392 -0.2146  0.8596 -0.1059
25915SOL     OW78322   4.111   2.102   5.709  0.3096  0.6985 -0.5630
25915SOL    HW178323   4.137   2.013   5.733  1.5080  0.5918 -2.0596
25915SOL    HW278324   4.192   2.152   5.711  0.0787  1.1843 -2.0437
25916SOL     OW78325   4.525   1.630   6.183  0.9931 -0.3660 -0.7089
25916SOL    HW178326   4.551   1.694   6.249  2.2086 -2.0504  0.4991
25916SOL    HW278327   4.434   1.607   6.206  1.4669 -1.0847  0.5346
25917SOL     OW78328   6.265   0.630   4.838  0.3700  0.1167  0.5167
25917SOL    HW178329   6.356   0.646   4.814  0.0146  0.3007 -0.7844
25917SOL    HW278330   6.214   0.691   4.783 -0.5390 -0.0599  1.1408
25918SOL     OW78331   1.820   7.908   9.822 -0.0911 -0.4885 -0.2225
25918SOL    HW178332   1.897   7.858   9.849  0.9707  1.7035  1.0716
25918SOL    HW278333   1.759   7.898   9.895 -0.2944 -0.7388 -0.4273
25919SOL     OW78334   2.519   3.456   8.953 -0.3849  0.1609 -0.0445
25919SOL    HW178335   2.597   3.408   8.926  1.2952  1.0611  2.8150
25919SOL    HW278336   2.446   3.405   8.918  1.4022 -1.6922 -1.3219
25920SOL     OW78337   8.627   5.025   9.739  0.2992 -0.0671 -0.1315
25920SOL    HW178338   8.700   4.964   9.739 -0.3590 -0.8731  0.1561
25920SOL    HW278339   8.629   5.066   9.825  0.4262 -0.0713 -0.1330
25921SOL     OW78340   9.842   5.883   1.614  0.2576 -0.1484  0.1963
25921SOL    HW178341   9.832   5.928   1.531 -0.8766  0.1890  0.4857
25921SOL    HW278342   9.863   5.952   1.677  0.4815 -0.3089  0.2982
25922SOL     OW78343   5.989   2.174   7.511 -0.3907 -0.1932 -0.4536
25922SOL    HW178344   6.004   2.101   7.452  1.1500  0.0569 -0.4174
25922SOL    HW278345   6.042   2.153   7.589 -1.6257 -0.0599  0.4469
25923SOL     OW78346   4.229   2.040   0.442  0.3163  0.0673 -0.7988
25923SOL    HW178347   4.145   2.084   0.451 -0.1880 -0.7297 -1.5423
25923SOL    HW278348   4.207   1.952   0.413  1.4081 -0.1826 -0.8981
25924SOL     OW78349   0.049   0.727   5.660  0.0005 -0.1035 -0.2976
25924SOL    HW178350   0.093   0.810   5.644  0.2345  0.3254  2.2190
25924SOL    HW278351  -0.045   0.748   5.654 -0.0136  0.8637  2.1969
25925SOL     OW78352   4.513   7.997   7.690  0.4396 -0.2445 -0.0326
25925SOL    HW178353   4.596   7.966   7.655  0.0473 -0.2865 -0.9358
25925SOL    HW278354   4.527   8.091   7.704  0.3781 -0.0889 -0.9720
25926SOL     OW78355   2.685   8.872   6.555 -0.2879  0.1998 -0.3891
25926SOL    HW178356   2.747   8.895   6.485 -0.5464  1.3080 -0.2557
25926SOL    HW278357   2.711   8.926   6.629 -1.1811  0.4052 -0.2153
25927SOL     OW78358   1.434   3.837   6.913  0.0071  0.3018 -0.1510
25927SOL    HW178359   1.508   3.779   6.897  0.2733  0.9732 -1.5131
25927SOL    HW278360   1.420   3.833   7.007  2.5418  1.0595  0.3265
25928SOL     OW78361   2.353   4.004   4.854  0.1201 -0.0999  0.3417
25928SOL    HW178362   2.305   4.050   4.785 -0.8854  0.4932  1.4035
25928SOL    HW278363   2.442   4.040   4.849  0.1905 -0.4118 -0.9395
25929SOL     OW78364   2.728   5.263   7.366 -0.1986 -0.3277  0.4963
25929SOL    HW178365   2.763   5.246   7.453 -0.8095  0.8899  1.0051
25929SOL    HW278366   2.788   5.328   7.329 -0.3661 -0.2849  0.3001
25930SOL     OW78367   7.094   7.757   9.665 -0.0753 -0.5721  0.7047
25930SOL    HW178368   7.176   7.708   9.668 -0.0456 -0.5151  0.8490
25930SOL    HW278369   7.120   7.845   9.637 -0.2214 -0.8299 -0.3010
25931SOL     OW78370   3.695   9.686   7.503  0.1061 -0.1789 -0.6727
25931SOL    HW178371   3.686   9.629   7.427 -1.6763 -0.8036 -0.0377
25931SOL    HW278372   3.660   9.634   7.576 -0.3132  1.2363  0.1639
25932SOL     OW78373   4.384   5.186   8.416  0.3500 -0.6545  0.2022
25932SOL    HW178374   4.381   5.242   8.338 -0.7533 -1.1333 -0.1147
25932SOL    HW278375   4.425   5.241   8.483  1.7906 -0.4031 -0.8295
25933SOL     OW78376   5.892   7.201   9.873 -0.0209  0.2381  0.0121
25933SOL    HW178377   5.952   7.274   9.860 -0.7011  0.3669 -3.2191
25933SOL    HW278378   5.863   7.210   9.964  0.4294  3.5903 -0.0436
25934SOL     OW78379   9.542   9.432   6.997  0.4260 -0.5881  0.1124
25934SOL    HW178380   9.463   9.485   7.006 -0.4491 -2.0104  1.2627
25934SOL    HW278381   9.568   9.442   6.905 -0.5372  0.6482 -0.0370
25935SOL     OW78382   5.920   1.130   5.304 -0.8309  0.1512 -0.2093
25935SOL    HW178383   5.946   1.198   5.366 -2.3512  0.2631  0.3491
25935SOL    HW278384   5.995   1.070   5.302 -0.3920  0.6171  1.0476
25936SOL     OW78385   8.458   4.829   6.662 -0.1632 -0.1083 -0.1787
25936SOL    HW178386   8.518   4.758   6.639 -0.7700 -1.3300  1.7620
25936SOL    HW278387   8.506   4.909   6.639  1.3868 -1.0951 -0.5065
25937SOL     OW78388   8.496   0.146   8.994 -0.4143 -0.4269  0.2511
25937SOL    HW178389   8.407   0.138   8.959 -0.3214  2.4673 -0.9806
25937SOL    HW278390   8.545   0.076   8.951 -1.5652 -0.4924 -1.0480
25938SOL     OW78391   8.626   2.905   9.242 -0.0813  0.8633  0.1060
25938SOL    HW178392   8.551   2.847   9.249 -0.2521  1.2146  1.4014
25938SOL    HW278393   8.597   2.974   9.182  0.6932 -1.1702 -2.8284
25939SOL     OW78394   2.798   8.172   6.012 -0.0514 -0.1240 -0.0688
25939SOL    HW178395   2.706   8.180   5.987 -0.5898  1.9176  2.2132
25939SOL    HW278396   2.847   8.199   5.934 -1.3026 -1.8373 -1.5200
25940SOL     OW78397   0.043   1.369   1.551 -0.0837 -0.0762  0.5336
25940SOL    HW178398   0.135   1.355   1.576 -0.3074 -1.5826  0.6027
25940SOL    HW278399   0.021   1.454   1.589  0.8592 -0.3498  1.7904
25941SOL     OW78400   4.383   0.859   5.895  0.1220  0.2283  0.2254
25941SOL    HW178401   4.299   0.838   5.855  0.1060  1.0868 -0.1986
25941SOL    HW278402   4.369   0.942   5.941  1.1914  1.3288 -1.3441
25942SOL     OW78403   3.215   5.239   9.118  0.3929  0.3112  0.7744
25942SOL    HW178404   3.184   5.252   9.029 -1.9445  0.0175  1.4797
25942SOL    HW278405   3.267   5.317   9.138 -1.8232  2.0209  0.2556
25943SOL     OW78406   6.398   4.510   3.768  0.0463 -0.5177  0.5858
25943SOL    HW178407   6.435   4.432   3.728  0.6831  1.0581 -2.1007
25943SOL    HW278408   6.472   4.568   3.782 -0.6598  0.3561  0.7965
25944SOL     OW78409   8.278   9.251   4.117  0.0872 -0.2930  0.1071
25944SOL    HW178410   8.211   9.188   4.089  0.0113  0.5384 -1.7637
25944SOL    HW278411   8.316   9.212   4.195 -0.2085 -2.5006 -0.7685
25945SOL     OW78412   9.929   1.573   8.845  0.6436  0.0487 -0.0512
25945SOL    HW178413   9.944   1.503   8.781 -0.4774 -1.0411  0.8356
25945SOL    HW278414   9.998   1.637   8.827  1.0892 -0.8085 -1.5376
25946SOL     OW78415   6.403   7.833   0.458 -0.6055  0.0776 -0.8978
25946SOL    HW178416   6.345   7.787   0.397 -1.1106  0.5361 -0.7700
25946SOL    HW278417   6.491   7.802   0.436 -0.7316  0.5674 -2.1676
25947SOL     OW78418   3.258   8.544   6.168 -0.3166 -0.6493  0.1055
25947SOL    HW178419   3.257   8.549   6.263 -0.3626 -2.1142  0.2032
25947SOL    HW278420   3.171   8.572   6.140 -0.3149 -0.2604  0.4936
25948SOL     OW78421   5.906   9.789   8.431 -0.7710 -0.2134  0.1531
25948SOL    HW178422   5.859   9.765   8.351 -0.8598 -0.3361  0.2422
25948SOL    HW278423   5.843   9.775   8.501 -0.6456 -0.2465  0.2597
25949SOL     OW78424   8.764   6.883   1.909 -0.6390  0.1889 -0.2339
25949SOL    HW178425   8.778   6.862   2.001  1.2441 -0.3203 -0.5751
25949SOL    HW278426   8.670   6.876   1.896 -0.7959 -1.2785  1.3048
25950SOL     OW78427   6.233   2.472   7.219  0.2064 -0.1875 -0.3864
25950SOL    HW178428   6.218   2.448   7.128 -2.9740 -0.9344  0.2151
25950SOL    HW278429   6.149   2.508   7.249  1.5721  1.4111  1.8776
25951SOL     OW78430   4.188   0.969   6.704 -0.2050 -0.4742 -1.0388
25951SOL    HW178431   4.187   0.873   6.703 -1.8845 -0.5954  1.7186
25951SOL    HW278432   4.257   0.991   6.767 -0.7840  0.0569 -0.5812
25952SOL     OW78433   4.009   6.486   6.535  0.0225 -0.0869  0.1471
25952SOL    HW178434   4.029   6.579   6.535 -1.8338  0.3717  1.7832
25952SOL    HW278435   4.081   6.446   6.486  2.1132  1.9117  1.4213
25953SOL     OW78436   6.127   3.661   4.729 -0.3506 -0.0901  0.4414
25953SOL    HW178437   6.082   3.593   4.679  1.6182 -0.7868 -0.4556
25953SOL    HW278438   6.064   3.733   4.734 -1.8499 -1.3288 -0.0405
25954SOL     OW78439   0.059   4.018   5.461 -0.3656 -0.9703 -0.1094
25954SOL    HW178440   0.130   3.967   5.423  1.6445  2.2545 -1.1270
25954SOL    HW278441   0.082   4.027   5.553 -0.4059 -1.3564 -0.0594
25955SOL     OW78442   6.891   8.709   7.672 -0.2532  0.1028 -0.0464
25955SOL    HW178443   6.951   8.741   7.738 -1.2625  1.0925  0.4260
25955SOL    HW278444   6.934   8.728   7.588 -0.7372  2.7101  0.1971
25956SOL     OW78445   7.556   2.992   0.501 -0.4490 -0.8449 -0.2835
25956SOL    HW178446   7.549   2.902   0.468 -0.6619 -1.1134  0.4707
25956SOL    HW278447   7.643   2.997   0.539  0.8517  0.2538 -3.1071
25957SOL     OW78448   9.516   0.077   2.731  0.4105 -0.0403 -0.5619
25957SOL    HW178449   9.548   0.165   2.712  0.3592 -0.3668 -2.3443
25957SOL    HW278450   9.433   0.091   2.777  1.4202  0.8053  1.0952
25958SOL     OW78451   7.983   6.961   2.188  0.0819 -0.1964  0.1619
25958SOL    HW178452   7.908   6.903   2.172 -1.1559  0.8612  1.8019
25958SOL    HW278453   7.985   7.020   2.114 -1.7282  0.7570  0.8250
25959SOL     OW78454   8.518   7.940   7.091  0.0898 -0.0200 -0.7473
25959SOL    HW178455   8.516   7.859   7.143  1.0091  0.6536  0.4029
25959SOL    HW278456   8.427   7.968   7.086  0.0991  0.9364  2.3011
25960SOL     OW78457   8.496   9.661   2.881  0.3880  0.6338  0.7658
25960SOL    HW178458   8.471   9.733   2.937  2.6814  1.0725  1.3380
25960SOL    HW278459   8.541   9.599   2.939  1.0822  0.1786 -0.2191
25961SOL     OW78460   7.040   0.454   6.925  0.0466 -0.9212 -0.0401
25961SOL    HW178461   6.995   0.377   6.891  0.7838 -0.9295 -1.0372
25961SOL    HW278462   7.012   0.460   7.016 -1.6709 -1.1501 -0.5179
25962SOL     OW78463   3.636   3.537   0.060  0.4070  0.1657 -0.2420
25962SOL    HW178464   3.714   3.528   0.115  0.2956 -2.1045 -0.3776
25962SOL    HW278465   3.625   3.632   0.050  2.3515  0.5684  0.8866
25963SOL     OW78466   3.825   2.650   1.964 -0.0251  0.1222 -0.1730
25963SOL    HW178467   3.736   2.621   1.984 -0.3713  1.3929  0.2010
25963SOL    HW278468   3.856   2.690   2.045  1.6327 -1.9958  0.3314
25964SOL     OW78469   6.744   7.107   4.774 -0.1827  0.0191 -0.2275
25964SOL    HW178470   6.741   7.063   4.689  1.3030  1.3210 -1.0019
25964SOL    HW278471   6.804   7.054   4.826 -0.8852 -0.6280 -0.0494
25965SOL     OW78472   1.156   1.526   1.715 -0.4012 -0.4809  0.0650
25965SOL    HW178473   1.196   1.475   1.645  0.0193 -0.0551 -0.0145
25965SOL    HW278474   1.074   1.559   1.677 -0.7408 -1.2003  0.1652
25966SOL     OW78475   9.519   3.366   3.862 -0.1631  0.1482 -0.8557
25966SOL    HW178476   9.459   3.416   3.806 -0.4885  0.9673  0.1655
25966SOL    HW278477   9.599   3.418   3.863  0.3561 -0.6235 -1.7203
25967SOL     OW78478   9.541   5.011   1.513 -0.5387  0.2119  0.0809
25967SOL    HW178479   9.531   5.102   1.542  0.6443  0.9799 -1.7530
25967SOL    HW278480   9.610   4.976   1.569 -1.0524  0.3905  0.8484
25968SOL     OW78481   1.157   7.735   4.723 -0.3100 -0.3417  0.6967
25968SOL    HW178482   1.231   7.789   4.693  0.7368 -0.7163  2.4425
25968SOL    HW278483   1.198   7.667   4.776 -1.7603 -1.8312 -0.0326
25969SOL     OW78484   7.925   8.251   8.504  0.1805 -0.2361  0.0853
25969SOL    HW178485   8.014   8.286   8.509  0.5125 -0.9650 -0.5269
25969SOL    HW278486   7.937   8.156   8.499 -0.6500 -0.3670  0.4037
25970SOL     OW78487   9.063   8.922   2.223 -0.6278 -0.2087  0.3531
25970SOL    HW178488   9.102   8.941   2.138 -0.6021  1.5708  0.7251
25970SOL    HW278489   8.985   8.870   2.203  0.7608 -2.0882 -0.5394
25971SOL     OW78490   1.500   7.505   4.010 -0.0281 -0.0191  0.5832
25971SOL    HW178491   1.551   7.435   3.969 -0.0744  0.8133 -0.9493
25971SOL    HW278492   1.466   7.465   4.091  4.2309 -0.2354  2.5611
25972SOL     OW78493   4.164   6.716   7.863 -0.2574  0.3004  0.5469
25972SOL    HW178494   4.139   6.789   7.919 -0.8357 -0.1570  0.8976
25972SOL    HW278495   4.157   6.639   7.919  0.3771 -0.0223  0.1901
25973SOL     OW78496   6.042   9.934   1.057  0.4481  0.3989 -0.4097
25973SOL    HW178497   5.997   9.896   0.982  0.5182 -0.4925 -0.0193
25973SOL    HW278498   6.061  10.024   1.031  0.1227  0.2202 -1.3003
25974SOL     OW78499   3.240   6.047   4.949  0.6865  0.2172 -0.0734
25974SOL    HW178500   3.200   6.080   5.029 -0.9693 -0.6071 -0.5097
25974SOL    HW278501   3.272   5.960   4.972  0.5785  0.1437 -0.1998
25975SOL     OW78502   6.785   4.500   1.159  0.4735 -0.0452  0.2508
25975SOL    HW178503   6.861   4.451   1.127 -0.8194 -1.3220 -1.0393
25975SOL    HW278504   6.822   4.572   1.209  2.5198 -0.8283 -0.0323
25976SOL     OW78505   4.520   4.612   1.165  0.4922 -0.3204  0.0312
25976SOL    HW178506   4.460   4.687   1.164  1.5835  0.5869  0.5280
25976SOL    HW278507   4.470   4.540   1.126 -0.0271  1.0803 -1.9751
25977SOL     OW78508   5.214   8.471   9.039 -0.1755  0.6337 -0.2128
25977SOL    HW178509   5.180   8.384   9.062 -0.3585  1.0107  1.0338
25977SOL    HW278510   5.139   8.530   9.049  0.5980  1.3761  1.9452
25978SOL     OW78511   3.776   2.536   4.232  0.2269  0.6203  0.7680
25978SOL    HW178512   3.695   2.513   4.185  0.6685 -0.1148  0.3548
25978SOL    HW278513   3.844   2.534   4.165  0.8440 -0.2824  1.4000
25979SOL     OW78514   5.609   6.348   0.534  0.2967  0.2281  0.3443
25979SOL    HW178515   5.617   6.426   0.479  0.8585  0.7420  1.1252
25979SOL    HW278516   5.557   6.378   0.609  1.0472  0.0275  0.9552
25980SOL     OW78517   3.186   4.845   2.400 -0.2115 -0.6016 -0.0433
25980SOL    HW178518   3.229   4.836   2.485 -0.7165  1.0161  0.4177
25980SOL    HW278519   3.203   4.762   2.356 -0.8020 -1.8887  2.0127
25981SOL     OW78520   1.473   6.772   7.908  0.5666  0.1345  0.0634
25981SOL    HW178521   1.530   6.834   7.953  0.2303  0.4150  0.1045
25981SOL    HW278522   1.387   6.785   7.947  0.3925 -0.0226 -0.2608
25982SOL     OW78523   5.729   0.342   7.038  0.1895 -0.4879 -0.1126
25982SOL    HW178524   5.669   0.293   6.983  1.5897 -1.1083 -1.1377
25982SOL    HW278525   5.814   0.301   7.024  0.7203 -0.2404  2.0171
25983SOL     OW78526   9.826   4.608  10.010  0.4763 -0.3635  0.3176
25983SOL    HW178527   9.892   4.605   9.940  0.5753 -0.9062  0.4334
25983SOL    HW278528   9.742   4.608   9.964  0.5144  2.4231  0.0652
25984SOL     OW78529   0.245   8.429   0.866  0.1547 -0.3621 -0.5955
25984SOL    HW178530   0.250   8.387   0.952  2.3383 -0.4577 -0.7140
25984SOL    HW278531   0.225   8.520   0.885  1.2786 -0.2397  0.0954
25985SOL     OW78532   6.235   9.142   1.136 -0.0550 -0.0460 -0.1251
25985SOL    HW178533   6.263   9.164   1.048 -1.1637  0.7235 -0.3160
25985SOL    HW278534   6.286   9.200   1.193 -0.0848  0.1912 -0.3400
25986SOL     OW78535   4.005   7.925   0.368  0.3798 -0.6121  0.2424
25986SOL    HW178536   4.086   7.968   0.339  0.7812 -1.7387 -0.3881
25986SOL    HW278537   3.984   7.864   0.297  0.1390 -1.8504  1.3441
25987SOL     OW78538   1.227   4.678   8.087 -0.5035  0.5809  0.2343
25987SOL    HW178539   1.192   4.677   8.176 -1.6531  0.6645 -0.1998
25987SOL    HW278540   1.155   4.709   8.033 -0.1499 -0.4301 -0.8659
25988SOL     OW78541   3.864   7.845   5.143  0.2711 -0.4817  0.3086
25988SOL    HW178542   3.891   7.890   5.224 -0.3716  0.9340 -0.2359
25988SOL    HW278543   3.796   7.785   5.171  2.2089 -2.3574  1.3101
25989SOL     OW78544   6.973   3.745   3.237  0.1204  0.3173 -0.3306
25989SOL    HW178545   7.043   3.794   3.194  0.6643 -0.1171  0.0429
25989SOL    HW278546   6.994   3.653   3.219 -1.5761  0.2226 -2.0999
25990SOL     OW78547   8.097   2.783   3.682 -0.2599  0.7332 -0.5294
25990SOL    HW178548   8.190   2.806   3.680 -0.1658  0.3069 -1.2729
25990SOL    HW278549   8.054   2.850   3.629 -0.5104  1.4732  0.5833
25991SOL     OW78550   7.394   7.371   6.055  0.0472  0.0019  0.4246
25991SOL    HW178551   7.353   7.414   5.980  0.4244  0.6911  0.5995
25991SOL    HW278552   7.405   7.280   6.028 -2.5507 -0.4896  0.7544
25992SOL     OW78553   4.529   2.109   9.345 -0.1051 -0.4091 -0.0107
25992SOL    HW178554   4.563   2.170   9.410  1.9264 -0.1278 -1.2375
25992SOL    HW278555   4.449   2.149   9.312 -1.1627 -0.5446  2.2199
25993SOL     OW78556   6.532   4.828   5.635  0.0814  0.2489 -0.2581
25993SOL    HW178557   6.497   4.740   5.650 -1.1173  0.9494  1.4323
25993SOL    HW278558   6.467   4.886   5.674 -0.4663  2.0981 -3.5961
25994SOL     OW78559   6.376   9.986   0.837  0.0252 -0.0663  0.2729
25994SOL    HW178560   6.388   9.908   0.783  1.1416  0.1991  0.1026
25994SOL    HW278561   6.461   9.998   0.880  0.0326  1.3402 -0.1009
25995SOL     OW78562   7.260   4.750   4.651  0.4237  0.2116 -0.1865
25995SOL    HW178563   7.290   4.841   4.640 -1.4293  0.9397  0.3937
25995SOL    HW278564   7.247   4.741   4.745  0.8974 -0.7691 -0.2122
25996SOL     OW78565   4.731   4.832   9.797  0.2568  0.2568  0.3560
25996SOL    HW178566   4.775   4.748   9.782 -0.4806 -0.0585 -0.0675
25996SOL    HW278567   4.711   4.831   9.891 -0.7216 -0.5302  0.1518
25997SOL     OW78568   7.253   6.421   7.307  0.2977 -0.0443  0.4870
25997SOL    HW178569   7.287   6.354   7.367  0.1219  1.5610  2.4698
25997SOL    HW278570   7.279   6.504   7.346 -1.6177  1.1242 -0.5782
25998SOL     OW78571   0.936   1.159   7.594  0.0239  0.2077 -0.1566
25998SOL    HW178572   0.943   1.179   7.501 -0.0143  2.8076  0.3384
25998SOL    HW278573   0.842   1.160   7.612 -0.1152 -2.2688 -0.4121
25999SOL     OW78574   4.740   8.874   0.379  0.0105  0.1328 -0.3324
25999SOL    HW178575   4.747   8.885   0.284 -3.0107  1.7004 -0.4861
25999SOL    HW278576   4.689   8.794   0.390 -2.0114  1.3742 -0.2091
26000SOL     OW78577   7.683   4.940   8.649 -0.4450 -0.0041  0.2247
26000SOL    HW178578   7.704   4.857   8.608  1.6762 -0.1430  1.4829
26000SOL    HW278579   7.767   4.986   8.657 -1.5087  2.1857 -0.2054
26001SOL     OW78580   3.529   4.741   2.473 -0.7287  0.0584  0.2588
26001SOL    HW178581   3.500   4.684   2.545  1.1856  0.0420  1.0912
26001SOL    HW278582   3.545   4.825   2.515 -1.3060  0.5664 -0.5226
26002SOL     OW78583   5.611   7.590   1.310  0.4891  0.2616 -0.1212
26002SOL    HW178584   5.672   7.598   1.383  1.1793 -1.5759 -0.4592
26002SOL    HW278585   5.643   7.515   1.260 -2.0466 -0.7891 -0.3064
26003SOL     OW78586   7.283   3.746   0.734  0.0631 -0.3991  0.0608
26003SOL    HW178587   7.357   3.754   0.674  1.2077  1.0937  1.5861
26003SOL    HW278588   7.231   3.825   0.720 -0.1417 -0.4649  0.4275
26004SOL     OW78589   8.621   5.824   3.141  0.0743 -0.4583  0.2667
26004SOL    HW178590   8.551   5.888   3.155  0.6790  0.2539  0.1261
26004SOL    HW278591   8.702   5.872   3.162  0.6620 -0.7116 -1.2887
26005SOL     OW78592   3.754   8.510   8.846 -0.1141  0.0701 -0.3179
26005SOL    HW178593   3.848   8.510   8.824 -0.0514 -0.0804 -0.0565
26005SOL    HW278594   3.752   8.519   8.941 -0.4252  2.3037 -0.4818
26006SOL     OW78595   8.753   6.088   9.043  0.8329 -0.4241  0.0580
26006SOL    HW178596   8.734   6.177   9.074  0.9063 -0.5521  0.4814
26006SOL    HW278597   8.715   6.031   9.110 -0.1062 -0.7398 -0.7075
26007SOL     OW78598   7.158   3.339   3.898 -0.6160 -0.6025 -0.1091
26007SOL    HW178599   7.249   3.338   3.869 -0.7460 -0.5273 -0.5270
26007SOL    HW278600   7.136   3.247   3.911 -0.1408 -0.5650  1.0901
26008SOL     OW78601   4.445   7.469   3.165 -0.3314 -0.2702  0.0572
26008SOL    HW178602   4.466   7.401   3.100  0.8223  1.4738 -1.4905
26008SOL    HW278603   4.350   7.483   3.155 -0.3741 -0.8386 -0.4102
26009SOL     OW78604   7.615   2.931   5.256 -0.2133 -0.3248  0.4902
26009SOL    HW178605   7.553   2.979   5.312  1.1278  0.7801  1.0879
26009SOL    HW278606   7.677   2.998   5.227  0.9783 -1.4858  0.2922
26010SOL     OW78607   6.536   0.572   9.746  0.1248  0.1495 -0.0510
26010SOL    HW178608   6.550   0.616   9.830  0.7765  0.2300 -0.1961
26010SOL    HW278609   6.445   0.590   9.725  0.0914  0.5453  0.4020
26011SOL     OW78610   3.832   1.087   0.080  0.4096 -0.4640 -0.0401
26011SOL    HW178611   3.794   1.108   0.165  1.4941  0.1456  0.3061
26011SOL    HW278612   3.922   1.061   0.099  0.4382 -1.0836 -0.9292
26012SOL     OW78613   9.571   9.875   4.706 -0.0483 -0.5940 -0.0990
26012SOL    HW178614   9.499   9.885   4.644  0.3676 -0.8088 -0.6206
26012SOL    HW278615   9.552   9.795   4.754 -1.3940  0.5643  1.4352
26013SOL     OW78616   2.287   3.040   7.553  0.0836 -0.3952 -0.0329
26013SOL    HW178617   2.350   3.090   7.502  2.0919  0.4986  3.0842
26013SOL    HW278618   2.326   2.952   7.559 -0.1675 -0.5104 -0.0761
26014SOL     OW78619   1.522   9.349   4.762  0.0047  0.0413 -0.3469
26014SOL    HW178620   1.598   9.291   4.755  0.7498  0.8087  0.9479
26014SOL    HW278621   1.558   9.437   4.752 -0.2866  0.5844  2.3915
26015SOL     OW78622   9.429   8.120   0.070 -0.1743  0.4758 -0.3966
26015SOL    HW178623   9.495   8.141   0.005  0.7496 -1.1381 -0.0098
26015SOL    HW278624   9.477   8.112   0.152 -1.5430  4.7241  1.1240
26016SOL     OW78625   5.293   8.230   2.389 -0.1036 -0.0147  0.0137
26016SOL    HW178626   5.232   8.294   2.427  1.5762  1.1346  0.9147
26016SOL    HW278627   5.246   8.147   2.393 -2.2622  1.0785 -0.9405
26017SOL     OW78628   4.525   0.322   5.284 -0.0365 -0.3583  0.5177
26017SOL    HW178629   4.621   0.314   5.281  0.0355  0.0037  1.5297
26017SOL    HW278630   4.508   0.368   5.366 -0.9632  1.4151 -0.6115
26018SOL     OW78631   1.991   9.381   5.614 -0.3523 -0.0235 -0.0686
26018SOL    HW178632   2.070   9.434   5.598 -1.0536  0.6857 -1.3800
26018SOL    HW278633   2.010   9.297   5.573 -0.4756  0.3391 -0.8971
26019SOL     OW78634   9.187   0.471   1.630 -0.3793 -0.4100  0.0465
26019SOL    HW178635   9.247   0.543   1.609 -1.5204  1.1593  1.7225
26019SOL    HW278636   9.243   0.401   1.662  0.6953  0.4032  0.0094
26020SOL     OW78637   3.016   7.667   8.045 -0.1604 -0.4637  0.3621
26020SOL    HW178638   3.107   7.641   8.031  0.2270  0.8931  0.1768
26020SOL    HW278639   2.965   7.609   7.990  0.9289  1.5388 -3.0595
26021SOL     OW78640   6.056   5.396   4.575  0.6510  0.2247  0.4004
26021SOL    HW178641   6.057   5.310   4.534  1.3955 -0.3446  1.5882
26021SOL    HW278642   5.966   5.427   4.564  0.6099 -0.3027 -0.8288
26022SOL     OW78643   7.157   4.178   1.222 -0.0188  0.1558  0.2483
26022SOL    HW178644   7.187   4.210   1.306 -0.0950 -1.6227  1.0060
26022SOL    HW278645   7.090   4.113   1.243  0.7525 -1.1621 -1.0810
26023SOL     OW78646   4.964   1.194   5.367 -0.2682 -0.2352 -0.1145
26023SOL    HW178647   5.020   1.171   5.441 -0.1459 -1.5109 -0.5821
26023SOL    HW278648   4.875   1.183   5.400 -0.2553  0.6726  0.2756
26024SOL     OW78649   5.302   5.236   7.192 -0.3243 -0.6017  0.8450
26024SOL    HW178650   5.217   5.193   7.204 -0.3898 -1.0623 -0.9563
26024SOL    HW278651   5.329   5.209   7.105  1.2225  0.3570  1.0081
26025SOL     OW78652   9.692   8.956   6.799  0.2959 -0.4012 -0.4920
26025SOL    HW178653   9.712   8.872   6.838  2.1126 -0.0656 -0.6419
26025SOL    HW278654   9.609   8.942   6.753  0.0553 -1.8070  0.3354
26026SOL     OW78655   8.379   5.294   8.079 -0.3185  0.1680  0.0227
26026SOL    HW178656   8.457   5.248   8.048  0.2431 -0.1449  1.7843
26026SOL    HW278657   8.400   5.320   8.169 -2.4584 -0.5188  0.8015
26027SOL     OW78658   8.270   3.437   5.021  0.1406  0.6362 -0.5257
26027SOL    HW178659   8.229   3.402   5.100 -0.2548 -0.9522 -1.4062
26027SOL    HW278660   8.364   3.423   5.034  0.1453  1.1042 -0.0139
26028SOL     OW78661   1.925   8.391   2.544  0.1421  0.4170 -0.7255
26028SOL    HW178662   2.005   8.425   2.505 -0.0501  0.5063 -1.0499
26028SOL    HW278663   1.859   8.458   2.525  0.5262  1.6272  1.8309
26029SOL     OW78664   6.901   2.023   9.105 -0.2692  0.7254 -0.5368
26029SOL    HW178665   6.936   1.961   9.040 -3.0544  0.4598 -1.9453
26029SOL    HW278666   6.852   2.087   9.053 -1.2910  1.4366  1.2018
26030SOL     OW78667   1.535   1.253   9.331  0.2783  0.1746  0.2267
26030SOL    HW178668   1.448   1.253   9.372  0.3251  3.1054  0.5804
26030SOL    HW278669   1.517   1.253   9.237 -0.2861  2.6179  0.2618
26031SOL     OW78670   6.951   6.651   4.950 -0.0022  0.1988  0.1663
26031SOL    HW178671   6.876   6.593   4.943 -0.2688 -0.0386  3.5386
26031SOL    HW278672   6.922   6.733   4.910 -1.5416 -0.3299  0.1406
26032SOL     OW78673   9.774   5.166   3.978  0.3126 -0.5406  0.6464
26032SOL    HW178674   9.700   5.119   4.018 -0.1603 -1.1519 -0.8731
26032SOL    HW278675   9.734   5.246   3.943  0.1018 -1.4210 -1.2105
26033SOL     OW78676   5.800   1.973   1.281 -0.1880  0.2425  0.3660
26033SOL    HW178677   5.889   1.945   1.304 -0.1151 -0.1461 -0.3561
26033SOL    HW278678   5.790   1.949   1.189 -0.9795  0.4543  0.3866
26034SOL     OW78679   8.690   7.956   2.455  0.8245  0.2586  0.8066
26034SOL    HW178680   8.668   7.891   2.389 -1.2207 -0.2158  1.8851
26034SOL    HW278681   8.785   7.946   2.467  0.6887 -2.0956  0.4887
26035SOL     OW78682   4.691   2.894   0.360 -0.1459  0.1170  0.3454
26035SOL    HW178683   4.768   2.950   0.344  0.3734 -0.7310 -0.2004
26035SOL    HW278684   4.658   2.874   0.272  0.0543 -0.9328  0.4953
26036SOL     OW78685   3.067   0.175   7.069  0.0653 -0.4046  0.0457
26036SOL    HW178686   3.015   0.165   6.990 -1.3139  0.3773  0.8209
26036SOL    HW278687   3.063   0.268   7.090  0.3445 -0.6060  1.0674
26037SOL     OW78688   5.669   7.556   2.526 -0.0606 -0.0000 -0.2179
26037SOL    HW178689   5.666   7.616   2.452 -2.1311 -0.9936 -1.0340
26037SOL    HW278690   5.622   7.601   2.596  0.5376  0.3238 -0.0296
26038SOL     OW78691   1.532   1.510   0.581 -0.2627  0.2818  0.2372
26038SOL    HW178692   1.549   1.495   0.488  0.4463  0.0420  0.4041
26038SOL    HW278693   1.436   1.511   0.587 -0.3160  0.5190 -0.5277
26039SOL     OW78694   2.645   8.136   9.447 -0.0332 -0.5694  0.1468
26039SOL    HW178695   2.705   8.075   9.491 -0.9692 -0.4429  1.6847
26039SOL    HW278696   2.651   8.216   9.499 -1.4365 -0.5237  0.2718
26040SOL     OW78697   1.265   8.229   4.761 -0.4465  0.2969 -0.1389
26040SOL    HW178698   1.220   8.284   4.826 -1.0419  0.6534 -0.8270
26040SOL    HW278699   1.212   8.239   4.682  0.7196  0.5300 -0.9139
26041SOL     OW78700   6.597   7.073   0.004 -0.0322 -0.0477  0.5467
26041SOL    HW178701   6.691   7.067   0.022  0.3873 -0.1155 -1.4326
26041SOL    HW278702   6.566   6.982   0.007 -0.0146 -0.0412  1.0317
26042SOL     OW78703   0.683   0.723   8.390  0.8163 -0.3308 -0.0768
26042SOL    HW178704   0.739   0.663   8.439  1.8214  0.0564 -0.7239
26042SOL    HW278705   0.730   0.738   8.308  0.7943  1.6525  0.2303
26043SOL     OW78706   8.463   4.253   5.683 -0.4736 -0.2972 -0.6957
26043SOL    HW178707   8.540   4.277   5.632  0.9089 -0.8174  1.0568
26043SOL    HW278708   8.495   4.188   5.745 -2.4615 -0.9291 -0.2637
26044SOL     OW78709   1.093   4.200   2.230  0.2556  0.3954 -0.2748
26044SOL    HW178710   1.111   4.282   2.182  1.5799 -0.2748 -0.9719
26044SOL    HW278711   1.174   4.182   2.278 -0.2263 -0.2226  0.3175
26045SOL     OW78712   7.021   2.226   6.668  0.1133 -0.1596  0.0711
26045SOL    HW178713   7.059   2.138   6.663 -0.8050 -0.5816  0.1331
26045SOL    HW278714   6.948   2.216   6.729 -1.6651 -0.0202 -1.8792
26046SOL     OW78715   9.312   3.324   9.274 -0.3364 -0.3105  1.0034
26046SOL    HW178716   9.389   3.271   9.298  0.4171  0.6657  0.7984
26046SOL    HW278717   9.338   3.414   9.293 -0.8767  0.1840 -0.4609
26047SOL     OW78718   6.614   3.093   4.582 -0.5176  0.0284 -0.8007
26047SOL    HW178719   6.649   3.007   4.604  1.4457  0.1438 -3.0063
26047SOL    HW278720   6.586   3.130   4.665  1.8847 -1.3684  0.7394
26048SOL     OW78721   2.820   8.639   4.738 -0.6085  0.2311  0.5927
26048SOL    HW178722   2.788   8.634   4.648 -0.1453 -0.2448  0.4499
26048SOL    HW278723   2.790   8.558   4.778 -0.0736  0.0446  0.6182
26049SOL     OW78724   6.585   1.432   8.908 -1.0002  0.1608  0.3714
26049SOL    HW178725   6.612   1.345   8.936 -1.6890  0.1954  1.1919
26049SOL    HW278726   6.582   1.484   8.989 -0.0183  1.1139 -0.1802
26050SOL     OW78727   5.303   6.902   9.400  0.1282 -0.3045 -0.0134
26050SOL    HW178728   5.248   6.827   9.379 -0.4887  0.7182 -2.4375
26050SOL    HW278729   5.245   6.977   9.390  1.4152  0.6659 -0.4667
26051SOL     OW78730   2.029   2.048   4.215 -0.1914  0.3565 -0.2964
26051SOL    HW178731   1.991   2.116   4.159  1.5468  0.7463 -1.0654
26051SOL    HW278732   2.006   1.966   4.171  1.7762  0.6778 -2.1016
26052SOL     OW78733   7.248   2.938   4.847  0.1298 -0.0254 -0.2959
26052SOL    HW178734   7.257   3.029   4.817  0.9012 -0.1060 -0.3359
26052SOL    HW278735   7.319   2.892   4.803 -0.4245 -0.7118 -0.4848
26053SOL     OW78736   9.884   3.174   0.839 -0.1025 -0.8966 -0.6018
26053SOL    HW178737   9.839   3.192   0.922 -0.1093  0.8128 -0.9389
26053SOL    HW278738   9.849   3.239   0.778 -1.8961 -3.6052 -2.6901
26054SOL     OW78739   6.573   3.169   1.547  0.2260  1.0159  0.3110
26054SOL    HW178740   6.610   3.237   1.604 -0.2577  2.1296 -0.6630
26054SOL    HW278741   6.627   3.173   1.467  1.5665 -1.2255  1.0105
26055SOL     OW78742   7.327   1.426   4.700 -0.4597 -0.5270 -0.3266
26055SOL    HW178743   7.380   1.417   4.778  0.1626 -0.4043 -0.7296
26055SOL    HW278744   7.255   1.485   4.726  0.2076  0.1926 -0.0786
26056SOL     OW78745   1.867   6.384   9.147 -0.3988  0.1373  0.1587
26056SOL    HW178746   1.963   6.385   9.146 -0.2956  1.3601  2.8535
26056SOL    HW278747   1.842   6.469   9.184 -2.5549 -0.0866 -0.6262
26057SOL     OW78748   3.577   8.675   5.057  0.4340  0.3606 -0.4970
26057SOL    HW178749   3.642   8.632   5.001  1.0969 -0.4221  0.8299
26057SOL    HW278750   3.618   8.677   5.144 -2.0523 -1.8664  0.8468
26058SOL     OW78751   8.546   0.702   2.631 -0.0350  0.0426 -0.4248
26058SOL    HW178752   8.585   0.728   2.547 -1.2299 -0.6732 -1.2246
26058SOL    HW278753   8.503   0.782   2.662  0.7742  0.4317 -0.2565
26059SOL     OW78754   9.242   4.786   1.172 -0.1326  0.4560  0.0238
26059SOL    HW178755   9.156   4.744   1.181  0.0574 -0.4128 -1.9291
26059SOL    HW278756   9.253   4.833   1.255 -1.8435 -0.5838  0.9094
26060SOL     OW78757   2.572   6.569   0.319 -0.1958  0.6162  0.0020
26060SOL    HW178758   2.611   6.656   0.329  0.3756  0.4225 -0.5530
26060SOL    HW278759   2.485   6.586   0.283 -0.4635  1.0150  0.8073
26061SOL     OW78760   1.644   2.226   1.614 -0.4537 -0.1216 -0.4525
26061SOL    HW178761   1.676   2.302   1.565  0.3352 -0.3210 -0.2593
26061SOL    HW278762   1.550   2.242   1.624 -0.2143  1.0996  0.0528
26062SOL     OW78763   7.937   7.467   3.325  0.3551  0.3707  0.1237
26062SOL    HW178764   7.970   7.447   3.412  0.5158 -0.1309 -0.0465
26062SOL    HW278765   7.849   7.500   3.339  0.4805  0.5449  0.4949
26063SOL     OW78766   1.710   5.249   0.172  0.1543 -0.5500  0.1771
26063SOL    HW178767   1.635   5.242   0.231  0.1167 -3.4304 -0.0595
26063SOL    HW278768   1.749   5.334   0.192 -2.1618  0.2879  1.4953
26064SOL     OW78769   4.687   8.165   5.896 -0.1902  0.2527  0.0130
26064SOL    HW178770   4.655   8.095   5.839  1.9852  0.3090 -1.4218
26064SOL    HW278771   4.666   8.136   5.984 -0.0292 -1.8781 -0.5815
26065SOL     OW78772   5.923   9.905   1.293 -0.3505 -0.3900  0.4936
26065SOL    HW178773   5.972   9.903   1.210  1.6318 -0.1571  1.6042
26065SOL    HW278774   5.834   9.931   1.267 -0.3103 -2.1772 -1.7702
26066SOL     OW78775   5.894   9.482   2.297 -0.0660 -0.1783 -0.0151
26066SOL    HW178776   5.803   9.454   2.305 -0.4046  0.9707  0.3329
26066SOL    HW278777   5.920   9.506   2.386  0.1129  0.8444 -0.3277
26067SOL     OW78778   8.647   0.566   9.232  0.0387  0.3815 -0.3025
26067SOL    HW178779   8.698   0.623   9.174  0.1184  1.2567  0.5876
26067SOL    HW278780   8.587   0.520   9.174 -0.7988  2.2210 -0.9736
26068SOL     OW78781   0.436   8.917   4.126 -0.3046 -0.3945  0.4942
26068SOL    HW178782   0.392   8.947   4.205 -1.9809 -1.8423  0.1591
26068SOL    HW278783   0.529   8.933   4.143 -0.8867  3.6083  0.8711
26069SOL     OW78784   2.751   5.792   2.582 -0.0068 -0.4324 -0.0661
26069SOL    HW178785   2.682   5.833   2.531 -0.9557 -0.4758  1.1321
26069SOL    HW278786   2.730   5.699   2.580  0.9284 -0.6378 -1.0039
26070SOL     OW78787   7.138   1.737   7.707 -0.0314  0.0168 -0.0611
26070SOL    HW178788   7.109   1.672   7.771 -0.0393 -0.2595 -0.3425
26070SOL    HW278789   7.138   1.690   7.623 -0.8627  0.6113 -0.4044
26071SOL     OW78790   2.299   6.149   6.806  0.1176  0.0484 -0.0477
26071SOL    HW178791   2.221   6.110   6.766  0.2666 -0.3571  0.0493
26071SOL    HW278792   2.324   6.087   6.875  0.7521 -0.0260 -0.3378
26072SOL     OW78793   8.427   3.404   5.962  0.6546 -0.4072 -0.1263
26072SOL    HW178794   8.465   3.372   5.880  0.4241 -0.3576 -0.2534
26072SOL    HW278795   8.443   3.499   5.960  0.4243 -0.3690 -0.2356
26073SOL     OW78796   5.116   7.511   4.203  0.1645  0.3513 -0.4432
26073SOL    HW178797   5.055   7.543   4.137 -1.1901 -3.5512 -1.3434
26073SOL    HW278798   5.071   7.527   4.286 -0.0804  1.4405 -0.7760
26074SOL     OW78799   4.645   9.432   7.865  0.1587  0.4574  0.0310
26074SOL    HW178800   4.617   9.407   7.953 -0.1276  2.6985  0.6346
26074SOL    HW278801   4.740   9.431   7.868  0.1767  2.0515  0.8859
26075SOL     OW78802   5.793   3.093   1.901  0.5117 -0.2367 -0.1119
26075SOL    HW178803   5.777   3.007   1.937 -3.1533  1.5017  3.1281
26075SOL    HW278804   5.722   3.107   1.838 -1.0856  1.5389  1.9473
26076SOL     OW78805   6.111   9.499   1.338  0.2285 -0.1752 -0.6428
26076SOL    HW178806   6.191   9.469   1.294  0.9011  0.3478  0.1758
26076SOL    HW278807   6.062   9.544   1.270  1.1874  0.4987 -0.9206
26077SOL     OW78808   8.235   3.491   0.471 -0.2454  0.7733 -0.6128
26077SOL    HW178809   8.256   3.551   0.542  0.4708  0.3719 -0.4833
26077SOL    HW278810   8.186   3.420   0.512  0.7844  0.1790 -0.3828
26078SOL     OW78811   4.691   7.450   1.728 -0.1569 -0.0406  0.0431
26078SOL    HW178812   4.710   7.372   1.780 -4.4474 -0.2794  1.6635
26078SOL    HW278813   4.677   7.417   1.639 -0.9195 -1.0386  0.5080
26079SOL     OW78814   8.064   6.030   5.642  0.8502  0.5341 -0.6601
26079SOL    HW178815   8.031   6.002   5.557 -0.9211 -0.9300  0.4634
26079SOL    HW278816   8.039   6.123   5.648 -2.3020 -0.2390 -0.2919
26080SOL     OW78817   1.608   6.980   8.045 -0.1050 -0.2400 -0.1125
26080SOL    HW178818   1.595   7.061   7.996  0.6642 -0.2707 -0.3947
26080SOL    HW278819   1.640   7.008   8.131  4.3010 -0.2139 -1.4863
26081SOL     OW78820   4.571   7.053   4.992 -0.1182  0.1441  0.3495
26081SOL    HW178821   4.614   7.102   4.922 -0.1686  1.2923  1.0986
26081SOL    HW278822   4.628   7.065   5.068 -0.6080 -0.2055  0.7800
26082SOL     OW78823   0.820   1.423   6.443 -0.4279  0.6896  0.1323
26082SOL    HW178824   0.773   1.363   6.501  0.8888 -1.6493 -1.0395
26082SOL    HW278825   0.829   1.374   6.361 -1.8579  3.6784 -2.0214
26083SOL     OW78826   8.670   5.130   4.365  0.2531  0.1239  0.2365
26083SOL    HW178827   8.621   5.057   4.402 -2.1367  1.7098  0.3845
26083SOL    HW278828   8.653   5.203   4.425  0.4709  1.4523 -1.2756
26084SOL     OW78829   5.015   6.114   8.825 -0.1610  0.1860 -0.0832
26084SOL    HW178830   4.981   6.075   8.745 -0.8682 -0.1016  0.3488
26084SOL    HW278831   4.949   6.178   8.851  1.1649  1.9866 -0.9925
26085SOL     OW78832   4.928   5.506   0.167  0.4617 -0.0653 -0.1837
26085SOL    HW178833   4.899   5.591   0.134  1.0547  0.5597  0.8435
26085SOL    HW278834   4.878   5.493   0.247  0.2840 -0.7426 -0.4059
26086SOL     OW78835   1.307   6.825   4.202  0.2826  0.5010 -0.8499
26086SOL    HW178836   1.228   6.865   4.239  0.3472 -0.3301  0.2159
26086SOL    HW278837   1.311   6.859   4.112 -2.3983 -0.9502 -1.6290
26087SOL     OW78838   4.720   6.791   7.069  0.4062 -0.1418 -0.6424
26087SOL    HW178839   4.630   6.804   7.100  0.6013 -0.9227  0.2967
26087SOL    HW278840   4.714   6.721   7.004  0.6372 -2.0243  1.2553
26088SOL     OW78841   6.518   4.611   2.316 -0.2696 -0.1804  0.6846
26088SOL    HW178842   6.468   4.660   2.251  0.4200  0.2009  0.4366
26088SOL    HW278843   6.543   4.677   2.382  1.2710 -0.0298 -0.0133
26089SOL     OW78844   2.782   8.453   3.559 -0.2649  0.4643  0.2303
26089SOL    HW178845   2.738   8.369   3.551 -0.7165  0.8144 -1.3374
26089SOL    HW278846   2.725   8.515   3.513  1.4574  1.0673 -1.2666
26090SOL     OW78847   9.284   7.529   0.222  0.2499 -0.5685  0.1326
26090SOL    HW178848   9.259   7.557   0.310  0.6360 -0.6384  0.2629
26090SOL    HW278849   9.373   7.560   0.211  0.9955 -2.4417  0.5902
26091SOL     OW78850   4.627   7.185   9.945 -0.2420  0.3421  0.4126
26091SOL    HW178851   4.677   7.263   9.921  1.1864 -0.6256  0.1145
26091SOL    HW278852   4.536   7.209   9.929  0.1876  1.8776  0.1454
26092SOL     OW78853   5.006   0.735   8.405  0.3758 -0.4896 -0.1019
26092SOL    HW178854   4.968   0.696   8.484 -2.4365 -0.1729 -1.1776
26092SOL    HW278855   5.046   0.661   8.359  1.3276 -0.8150  1.2084
26093SOL     OW78856   4.174   6.340   6.377  0.7373  0.0748  0.5034
26093SOL    HW178857   4.178   6.386   6.293  0.0887 -2.0482 -0.7681
26093SOL    HW278858   4.262   6.349   6.414  0.9774  1.1992 -0.3136
26094SOL     OW78859   2.641   6.097   4.454  0.6427 -0.5479  0.2034
26094SOL    HW178860   2.652   6.058   4.368 -0.9210 -0.4634 -0.0538
26094SOL    HW278861   2.722   6.075   4.501  1.5747 -0.4631 -1.3128
26095SOL     OW78862   0.769   7.565   6.143 -0.7469 -0.2378  0.4708
26095SOL    HW178863   0.825   7.497   6.106 -0.7114  1.0135 -2.0149
26095SOL    HW278864   0.823   7.644   6.141 -1.8983  0.5724 -0.0403
26096SOL     OW78865   2.079   7.687   3.804  0.6288  0.0747 -0.6956
26096SOL    HW178866   2.074   7.634   3.883  0.6286  0.5572 -0.3744
26096SOL    HW278867   2.080   7.622   3.733 -0.9542 -0.3315 -0.3941
26097SOL     OW78868   7.902   7.262   9.604  0.2482  0.0369 -0.1142
26097SOL    HW178869   7.879   7.257   9.697 -2.3278  1.9290 -0.5312
26097SOL    HW278870   7.849   7.334   9.570 -0.4199 -1.8257 -3.4912
26098SOL     OW78871   8.507   8.358   8.755  0.4111  0.3334 -0.1615
26098SOL    HW178872   8.579   8.404   8.798 -0.3491  0.4190  1.0604
26098SOL    HW278873   8.473   8.298   8.821 -0.9199  0.6034 -0.5630
26099SOL     OW78874   1.640   5.196   2.047  0.2467  0.1761  0.2713
26099SOL    HW178875   1.734   5.198   2.027  0.0755  2.1341 -0.4904
26099SOL    HW278876   1.636   5.212   2.141  0.6705 -0.3766  0.3961
26100SOL     OW78877   2.852   9.926   5.309  0.4780 -0.5195  0.6360
26100SOL    HW178878   2.915   9.946   5.240  1.0633 -1.0081  1.0123
26100SOL    HW278879   2.767   9.948   5.272  0.9714  1.6043  0.6596
26101SOL     OW78880   7.372   5.297   0.901  0.1352  0.1686  0.3623
26101SOL    HW178881   7.374   5.370   0.963  1.4068  0.3162  0.1751
26101SOL    HW278882   7.430   5.231   0.940 -0.1498 -0.3090 -0.0001
26102SOL     OW78883   9.531   5.660   3.120  0.1123 -0.4632  0.5509
26102SOL    HW178884   9.489   5.631   3.201 -1.0265 -1.5801 -0.3993
26102SOL    HW278885   9.491   5.607   3.052  0.0065  1.4446 -0.9575
26103SOL     OW78886   9.282   5.880   4.665  0.0005  0.3922  0.5845
26103SOL    HW178887   9.317   5.968   4.675 -0.0204  0.3026  1.5545
26103SOL    HW278888   9.253   5.855   4.753 -2.3045  0.3705 -0.1283
26104SOL     OW78889   6.574   6.282   2.367 -0.8809  0.4811  0.0403
26104SOL    HW178890   6.646   6.288   2.429 -0.0243  0.2308 -0.8973
26104SOL    HW278891   6.505   6.337   2.403 -0.7967 -0.4546  1.7168
26105SOL     OW78892   4.908   6.457   5.951 -0.1112  0.5388 -0.5711
26105SOL    HW178893   4.873   6.433   6.037  1.1187  0.4562 -0.0731
26105SOL    HW278894   4.934   6.373   5.912  0.7095  0.7078 -0.3972
26106SOL     OW78895   9.236   1.084   9.806 -0.2226  0.3552 -0.5756
26106SOL    HW178896   9.317   1.034   9.812 -0.4538 -0.2598 -2.0253
26106SOL    HW278897   9.216   1.109   9.896  0.1412 -1.8087  0.1744
26107SOL     OW78898   8.015   7.558   6.984  0.0675 -0.2644  0.2127
26107SOL    HW178899   8.084   7.622   6.999 -0.0322 -0.4922  1.8446
26107SOL    HW278900   7.945   7.607   6.941  0.7026  0.2881 -0.2027
26108SOL     OW78901   9.139   1.628   9.840  0.3746 -0.0746  0.3692
26108SOL    HW178902   9.161   1.603   9.930  5.0830  0.2121 -0.4208
26108SOL    HW278903   9.092   1.711   9.850 -0.3434 -0.6650  2.5539
26109SOL     OW78904   1.509   2.572   0.423  0.3842 -0.0170 -0.0255
26109SOL    HW178905   1.524   2.477   0.428  1.0215  0.1150  0.8361
26109SOL    HW278906   1.457   2.584   0.344 -1.0299 -1.2553  0.6717
26110SOL     OW78907   0.378   2.113   7.523 -0.3324 -0.3816  0.8056
26110SOL    HW178908   0.461   2.154   7.496 -2.2848  2.3705 -1.6449
26110SOL    HW278909   0.361   2.149   7.611 -0.3172  1.4533  0.0975
26111SOL     OW78910   5.816   6.760   8.992  0.5032  0.7817 -0.5057
26111SOL    HW178911   5.771   6.828   8.941  0.6488  1.1132 -0.2009
26111SOL    HW278912   5.759   6.744   9.067  0.4056  0.4691 -0.6457
26112SOL     OW78913   1.168   3.703   6.724 -0.2246  0.8445 -0.0110
26112SOL    HW178914   1.171   3.690   6.818 -0.8524  0.3063 -0.0609
26112SOL    HW278915   1.260   3.700   6.696 -0.1284 -0.3863  0.3942
26113SOL     OW78916   8.132   3.336   1.473 -0.0849  0.3528  0.2243
26113SOL    HW178917   8.092   3.294   1.548  0.1588  1.7103  1.1492
26113SOL    HW278918   8.161   3.264   1.417 -3.0542 -0.6960 -0.1357
26114SOL     OW78919   7.384   7.925   2.279  0.6888  0.8820 -0.1706
26114SOL    HW178920   7.448   7.866   2.321  0.5761  0.8378 -0.0571
26114SOL    HW278921   7.362   7.988   2.347  0.8625  1.0971 -0.3166
26115SOL     OW78922   8.606   0.221   1.982 -0.2627 -0.3920  0.4753
26115SOL    HW178923   8.519   0.199   1.949 -1.3252 -0.6662  3.1609
26115SOL    HW278924   8.600   0.314   2.005  0.3536 -0.2665  0.1530
26116SOL     OW78925   0.885   9.070   9.312 -0.5460  0.3816 -0.0073
26116SOL    HW178926   0.875   9.074   9.407  0.5178  0.0377  0.1340
26116SOL    HW278927   0.882   8.976   9.291 -1.9295  0.5137 -0.4602
26117SOL     OW78928   8.288   5.877   2.137  0.0995  0.5739  0.1201
26117SOL    HW178929   8.317   5.875   2.228 -0.5033  0.3978  0.3099
26117SOL    HW278930   8.193   5.876   2.142  0.0434 -1.2345 -0.5374
26118SOL     OW78931   2.123   0.279   6.351  0.1255  0.4876 -1.0570
26118SOL    HW178932   2.139   0.233   6.433  0.4505  3.3099  0.6201
26118SOL    HW278933   2.190   0.245   6.291  0.8503 -0.6079  0.3137
26119SOL     OW78934   9.312   1.089   6.612  0.4209  0.3588 -0.1698
26119SOL    HW178935   9.334   1.026   6.680  0.0494  0.6955  0.2681
26119SOL    HW278936   9.364   1.166   6.632 -0.5613  0.8817  0.4255
26120SOL     OW78937   3.025   8.135   8.464  0.2456  0.4849  0.0649
26120SOL    HW178938   3.088   8.113   8.532  0.3808  0.0937 -0.1833
26120SOL    HW278939   3.020   8.230   8.466 -0.6288  0.4214  1.4009
26121SOL     OW78940   6.205   0.190   0.996  0.3947  0.5380  0.3994
26121SOL    HW178941   6.259   0.118   0.963 -0.4532 -0.1248  0.4267
26121SOL    HW278942   6.233   0.199   1.088  0.7972  0.5251  0.2823
26122SOL     OW78943   1.733   6.525   2.503  0.3050  0.1201  0.1921
26122SOL    HW178944   1.673   6.557   2.436 -2.5143 -0.3270  2.3501
26122SOL    HW278945   1.727   6.589   2.574  1.3388 -0.6624  1.0181
26123SOL     OW78946   8.020   8.473   5.969  0.3096  0.1122 -0.6385
26123SOL    HW178947   7.985   8.479   5.880  1.0047  0.3200 -0.9071
26123SOL    HW278948   8.115   8.472   5.957  0.3969 -0.7580  0.0487
26124SOL     OW78949   9.811   7.036   3.962  0.4340 -0.5688 -0.0823
26124SOL    HW178950   9.766   7.047   3.879 -0.7385  1.5906  0.7559
26124SOL    HW278951   9.892   7.087   3.952  0.3536 -0.4147  0.0372
26125SOL     OW78952   3.912   1.677   6.297 -0.2684  0.2943  0.3356
26125SOL    HW178953   3.973   1.603   6.297 -1.1476 -0.5384 -1.7392
26125SOL    HW278954   3.961   1.748   6.256 -0.6877 -0.4575 -1.5963
26126SOL     OW78955   9.314   0.904   6.803  0.4239  0.1262  0.6903
26126SOL    HW178956   9.360   0.821   6.792  0.2632  0.3107 -2.1298
26126SOL    HW278957   9.221   0.880   6.809  0.4626  0.0454  0.9649
26127SOL     OW78958   1.938   0.772   0.840  0.4553  0.1899 -0.1713
26127SOL    HW178959   1.982   0.709   0.897  2.1464  1.7349  0.3277
26127SOL    HW278960   1.927   0.850   0.894 -1.3666  0.4512 -0.8420
26128SOL     OW78961   7.059   2.520   6.973  0.0772  0.5498  0.4391
26128SOL    HW178962   7.091   2.581   6.907  0.8368  0.3974  0.6528
26128SOL    HW278963   7.096   2.436   6.948 -2.5837 -0.2995 -1.0091
26129SOL     OW78964   2.452   1.194   0.779 -0.4156  0.4485  0.2234
26129SOL    HW178965   2.492   1.207   0.694  1.0831  0.5376  0.9158
26129SOL    HW278966   2.414   1.279   0.802 -0.1114  0.6481 -0.0075
26130SOL     OW78967   5.494   8.448   8.824  0.1178  0.4394 -0.4536
26130SOL    HW178968   5.571   8.491   8.788  0.3710  1.0804  0.7998
26130SOL    HW278969   5.527   8.399   8.899 -0.3103 -1.2884 -1.3280
26131SOL     OW78970   3.475   3.751   2.961  0.6481  0.5799  0.4764
26131SOL    HW178971   3.512   3.740   3.049  0.8525 -1.5957  0.1866
26131SOL    HW278972   3.397   3.804   2.974  1.0596  0.8805  1.8654
26132SOL     OW78973   3.192   8.891   9.433  0.3611  0.2620  0.6798
26132SOL    HW178974   3.242   8.955   9.484  0.9002 -0.7364  1.4372
26132SOL    HW278975   3.100   8.913   9.450  0.5376  1.3783  0.2224
26133SOL     OW78976   9.125   0.984   6.337 -0.3821 -0.1887 -0.1582
26133SOL    HW178977   9.185   0.988   6.262  0.0577  0.5200  0.2282
26133SOL    HW278978   9.132   1.070   6.379  1.0952 -1.2893  2.0224
26134SOL     OW78979   3.367   7.052   7.300  0.1426  0.2839  1.0928
26134SOL    HW178980   3.451   7.055   7.254  0.6019  0.9177  1.9397
26134SOL    HW278981   3.372   6.972   7.353 -0.5080 -0.6071 -0.1429
26135SOL     OW78982   0.955   9.180   1.905 -0.2942 -0.3346  0.0489
26135SOL    HW178983   0.904   9.249   1.947 -1.0580 -0.7413 -0.1877
26135SOL    HW278984   0.912   9.099   1.933  1.3700 -0.8146  1.3901
26136SOL     OW78985   2.112   9.445   2.842  0.4431  0.2470  0.1748
26136SOL    HW178986   2.157   9.513   2.791 -0.2359 -0.6260 -1.6850
26136SOL    HW278987   2.021   9.474   2.845  0.0307 -0.8289 -1.1514
26137SOL     OW78988   7.139   6.749   8.643  0.3824  0.5834  0.9475
26137SOL    HW178989   7.172   6.810   8.709  2.0771  0.7353  0.0192
26137SOL    HW278990   7.095   6.804   8.579  1.5990  0.8255  0.2937
26138SOL     OW78991   0.844   1.730   9.126 -0.0234 -0.0710 -0.1429
26138SOL    HW178992   0.903   1.744   9.052 -0.0514 -0.8355 -0.3195
26138SOL    HW278993   0.757   1.721   9.086 -0.7207  3.4607  0.2666
26139SOL     OW78994   1.022   3.464   3.965 -0.3589  0.2411  0.0444
26139SOL    HW178995   1.108   3.499   3.987  0.6813 -2.6792  1.0750
26139SOL    HW278996   0.980   3.450   4.050 -0.8044 -0.7476 -0.3232
26140SOL     OW78997   2.225   7.571   6.447  0.0719  0.5012 -0.2619
26140SOL    HW178998   2.166   7.599   6.518 -0.4021  0.9719 -0.8318
26140SOL    HW278999   2.205   7.631   6.375  1.2981  0.7103 -0.4460
26141SOL     OW79000   1.174   7.143   9.295 -0.2150  0.6396  0.0404
26141SOL    HW179001   1.112   7.103   9.356 -0.2483 -3.2345 -2.2010
26141SOL    HW279002   1.122   7.170   9.220  0.4129  0.0747 -0.6208
26142SOL     OW79003   1.802   0.403   8.913 -0.1387  0.2018 -0.0723
26142SOL    HW179004   1.864   0.426   8.982 -1.3642 -0.7398  1.4258
26142SOL    HW279005   1.810   0.473   8.849  0.7727  1.3429  1.2194
26143SOL     OW79006   5.813   7.325   9.277  0.5700 -0.5655 -0.0186
26143SOL    HW179007   5.798   7.295   9.187 -1.3576  0.6032 -0.1567
26143SOL    HW279008   5.908   7.325   9.287  0.7953 -1.7451 -1.6854
26144SOL     OW79009   7.879   2.686   5.505  0.0374  0.0863  0.3205
26144SOL    HW179010   7.888   2.717   5.415  1.4128 -1.6307 -0.1858
26144SOL    HW279011   7.855   2.764   5.555  0.3769  1.3032 -1.3475
26145SOL     OW79012   7.911   1.667   3.167  0.6341  0.2739  0.9166
26145SOL    HW179013   7.833   1.717   3.144  0.6003  0.1593  0.7796
26145SOL    HW279014   7.932   1.617   3.088 -0.2742 -1.1658  1.5461
26146SOL     OW79015   6.943   7.064   1.729  0.1472 -0.2920 -0.1834
26146SOL    HW179016   6.919   7.024   1.813 -0.7424 -0.3907 -0.4747
26146SOL    HW279017   6.930   6.994   1.665  1.9174 -0.5646 -0.2827
26147SOL     OW79018   3.993   4.825   4.878 -0.9894 -0.4116  0.1797
26147SOL    HW179019   4.063   4.815   4.813 -1.3234  0.2090 -0.2967
26147SOL    HW279020   4.011   4.911   4.918  0.3861 -1.6313  2.3718
26148SOL     OW79021   4.703   1.555   9.647 -0.3299 -0.6026  0.2534
26148SOL    HW179022   4.773   1.598   9.598  0.4941  0.5517  2.3019
26148SOL    HW279023   4.633   1.620   9.652 -0.2569 -0.5660  0.8876
26149SOL     OW79024   8.205   6.852   8.762  0.3378 -0.0096 -0.1443
26149SOL    HW179025   8.201   6.769   8.808 -1.8722 -0.3638 -0.8703
26149SOL    HW279026   8.125   6.898   8.786  1.9208  2.3762  0.9753
26150SOL     OW79027   6.809   3.912   7.458  0.2621  0.0402  0.0219
26150SOL    HW179028   6.769   3.999   7.462  0.2368  0.0219  0.2033
26150SOL    HW279029   6.838   3.903   7.368  0.1811  0.2002 -0.0213
26151SOL     OW79030   8.011   2.911   9.627  0.1851 -0.0100 -0.2385
26151SOL    HW179031   8.046   2.990   9.668  0.3310  0.3462 -1.0461
26151SOL    HW279032   7.918   2.931   9.612  0.0258 -0.3060  0.2998
26152SOL     OW79033   7.826   7.168   6.541  0.7430 -0.4801 -0.2867
26152SOL    HW179034   7.792   7.256   6.529 -0.0675 -0.4587  1.7921
26152SOL    HW279035   7.811   7.124   6.457 -0.7766  0.7280 -0.6789
26153SOL     OW79036   3.500   5.819   4.605 -0.4788  0.2541 -0.1929
26153SOL    HW179037   3.417   5.797   4.649  0.3368  0.1503  1.3593
26153SOL    HW279038   3.498   5.914   4.596 -0.9202  0.2201 -0.5103
26154SOL     OW79039   8.981   5.495   0.758  0.0018 -0.0773 -0.4414
26154SOL    HW179040   9.029   5.554   0.816 -1.9463  1.8278 -0.6504
26154SOL    HW279041   9.008   5.407   0.785  1.5120  0.8268  1.2005
26155SOL     OW79042   5.124   4.554   6.836  0.0458 -0.5077 -0.2136
26155SOL    HW179043   5.138   4.464   6.805  0.5761 -0.7110  0.5928
26155SOL    HW279044   5.034   4.554   6.869 -1.2550  0.2121 -3.3677
26156SOL     OW79045   1.607   8.511   0.496 -0.3204 -0.6508  0.6604
26156SOL    HW179046   1.623   8.606   0.496 -1.4145 -0.4189  2.4044
26156SOL    HW279047   1.666   8.477   0.428  1.0249  1.1263  0.8500
26157SOL     OW79048   1.185   4.566   6.756  0.0965 -0.0675  0.0212
26157SOL    HW179049   1.190   4.514   6.675 -1.5323  0.2928 -0.3440
26157SOL    HW279050   1.148   4.506   6.820 -0.2722  0.1700  0.0295
26158SOL     OW79051   1.918   4.548   4.040 -0.3980  0.0607  0.3539
26158SOL    HW179052   1.986   4.484   4.021 -0.3933  0.0773  0.3145
26158SOL    HW279053   1.879   4.568   3.955 -1.1088 -0.6764  0.4935
26159SOL     OW79054   0.500   0.400   5.815  0.1425  0.0036 -0.1149
26159SOL    HW179055   0.591   0.417   5.839  0.0214  1.4841 -0.6253
26159SOL    HW279056   0.454   0.395   5.899  1.0515 -3.5168  0.3564
26160SOL     OW79057   9.509   1.130   4.213 -0.2161  0.0060  0.3009
26160SOL    HW179058   9.437   1.069   4.234  0.5347 -0.8906  0.3295
26160SOL    HW279059   9.554   1.089   4.140  0.4512  0.4242  0.4750
26161SOL     OW79060   6.118   8.375   2.709  0.2939  0.5069 -0.5383
26161SOL    HW179061   6.120   8.422   2.625 -1.8376  1.2078 -0.2547
26161SOL    HW279062   6.161   8.435   2.771 -0.0047  0.9074 -0.7125
26162SOL     OW79063   8.478   6.973   8.941  0.1222  0.3531 -0.2921
26162SOL    HW179064   8.405   6.939   8.993  2.3538 -1.2468  2.0936
26162SOL    HW279065   8.515   7.043   8.995  1.2317  0.1317 -0.7428
26163SOL     OW79066   6.330   8.294   0.613  0.2861  0.1260  0.3035
26163SOL    HW179067   6.305   8.202   0.610  0.0274  0.2119 -0.3472
26163SOL    HW279068   6.425   8.294   0.614  0.3198 -0.1228 -1.2833
26164SOL     OW79069   7.483   7.435   0.124 -0.1616  0.6666 -0.0035
26164SOL    HW179070   7.505   7.398   0.039 -0.1320  1.6007 -0.4168
26164SOL    HW279071   7.392   7.408   0.140  0.6531 -1.7933  0.9450
26165SOL     OW79072   4.930   1.073   3.369 -0.2799  0.1913 -0.5104
26165SOL    HW179073   4.850   1.082   3.422 -0.0169 -0.7656  0.0932
26165SOL    HW279074   4.947   1.160   3.335 -0.9367  0.6603  0.3161
26166SOL     OW79075   0.968   1.399   5.805 -0.0719 -0.7138 -0.1479
26166SOL    HW179076   0.895   1.437   5.853 -1.3845 -2.4544 -0.6331
26166SOL    HW279077   1.007   1.337   5.866  0.9234  0.0877  0.0520
26167SOL     OW79078   7.097   8.586   3.130  0.2723 -0.4598  0.3040
26167SOL    HW179079   7.066   8.561   3.043 -1.2589  1.0487  0.3616
26167SOL    HW279080   7.178   8.635   3.114  0.8215 -1.4834 -0.1273
26168SOL     OW79081   2.860   9.323   1.852 -0.2848 -0.1362 -0.5157
26168SOL    HW179082   2.795   9.307   1.784 -0.7421  0.5677 -0.2565
26168SOL    HW279083   2.937   9.356   1.805 -0.4666 -0.0140 -0.7300
26169SOL     OW79084   4.816   0.734   1.323  0.2876 -0.3869  0.0889
26169SOL    HW179085   4.814   0.763   1.232 -1.3917 -0.2775  0.1262
26169SOL    HW279086   4.790   0.642   1.320  1.1643 -0.6550  0.3884
26170SOL     OW79087   3.949   4.998   8.171 -0.3514 -0.4646 -0.1185
26170SOL    HW179088   4.026   5.024   8.221 -1.1502  1.0871  0.3879
26170SOL    HW279089   3.889   5.072   8.179 -1.8944 -1.6076 -0.5198
26171SOL     OW79090   2.680   6.980   2.326 -0.0620 -0.2278  0.4206
26171SOL    HW179091   2.705   6.910   2.265  0.2452  0.1969  0.0589
26171SOL    HW279092   2.704   6.945   2.412 -0.0067 -0.6103  0.2538
26172SOL     OW79093   3.536   1.376   4.318 -0.1811 -0.3270 -0.3965
26172SOL    HW179094   3.556   1.439   4.388 -0.2893  1.0377 -1.5409
26172SOL    HW279095   3.446   1.349   4.335 -0.0271 -0.4340  0.2903
26173SOL     OW79096   0.051   2.345   9.452 -0.2862 -0.0747  0.6879
26173SOL    HW179097   0.021   2.397   9.377  0.2926 -1.2042 -0.3522
26173SOL    HW279098  -0.028   2.329   9.503 -0.6749  0.7741  0.3764
26174SOL     OW79099   4.997   3.869   7.058  0.2046  0.1012  0.5197
26174SOL    HW179100   5.092   3.875   7.054  0.2352 -0.4279  0.3924
26174SOL    HW279101   4.977   3.858   7.151  0.3982 -1.6475  0.3965
26175SOL     OW79102   4.862   0.824   7.645 -0.7043  0.0557  0.0786
26175SOL    HW179103   4.842   0.890   7.711 -1.9813  0.2059 -0.4466
26175SOL    HW279104   4.954   0.841   7.622 -1.0488  1.7346 -0.1533
26176SOL     OW79105   3.927   6.678   1.467  0.0580  0.2546 -0.1999
26176SOL    HW179106   3.877   6.716   1.395 -0.3663 -1.1852 -0.7163
26176SOL    HW279107   3.873   6.605   1.497  1.1917 -0.4601  0.1739
26177SOL     OW79108   5.769   2.945   8.957  0.0936 -0.0215 -0.0181
26177SOL    HW179109   5.789   3.013   9.021  0.4031 -0.1828  0.0616
26177SOL    HW279110   5.785   2.987   8.872 -0.2215  0.1614  0.0127
26178SOL     OW79111   5.065   3.804   5.570  0.1122 -0.2641 -0.3133
26178SOL    HW179112   5.143   3.766   5.611  0.6175  0.7042 -0.3552
26178SOL    HW279113   5.085   3.805   5.476 -0.1511 -0.4706 -0.3720
26179SOL     OW79114   3.472   2.214   1.445 -0.1777  0.0644 -0.3176
26179SOL    HW179115   3.489   2.276   1.517 -0.0621 -2.0578  1.6109
26179SOL    HW279116   3.378   2.200   1.448 -0.0206 -0.9496  0.2661
26180SOL     OW79117   7.692   7.010   9.814 -0.2134  0.2876  0.1535
26180SOL    HW179118   7.763   7.074   9.822  1.4732 -1.6642  2.5690
26180SOL    HW279119   7.630   7.034   9.883  1.0641 -1.2953  1.9426
26181SOL     OW79120   8.976   4.862   4.097 -0.4211  0.5603 -0.1614
26181SOL    HW179121   8.918   4.801   4.143  0.1015  1.2254  1.4558
26181SOL    HW279122   9.062   4.850   4.139 -0.0240  1.5305 -0.6495
26182SOL     OW79123   6.732   1.463   3.507  0.0119  0.0153  0.5659
26182SOL    HW179124   6.764   1.548   3.478 -0.2013  0.2750  1.0738
26182SOL    HW279125   6.741   1.465   3.602  0.4024 -0.6977  0.5513
26183SOL     OW79126   8.535   6.874   9.347  0.5286 -0.2701  0.2490
26183SOL    HW179127   8.563   6.863   9.438  1.3521 -0.5625 -0.0293
26183SOL    HW279128   8.489   6.958   9.346  0.5551 -0.2414  0.9255
26184SOL     OW79129   2.586   6.577   8.354  0.1019 -0.1402 -0.1342
26184SOL    HW179130   2.672   6.536   8.344  1.0236  1.3840  1.0585
26184SOL    HW279131   2.578   6.593   8.449 -1.4771 -0.2062 -0.2300
26185SOL     OW79132   2.019   4.538   1.648  0.6382  0.1821 -0.1373
26185SOL    HW179133   2.015   4.628   1.614  2.2305  1.0859  1.8352
26185SOL    HW279134   1.949   4.535   1.713  1.6697  0.6037  1.0260
26186SOL     OW79135   9.962   8.811   6.112  0.5825 -0.3120 -0.4389
26186SOL    HW179136   9.869   8.787   6.114  0.7049 -0.7512  0.7869
26186SOL    HW279137  10.007   8.736   6.152  1.2247  0.8120  1.0493
26187SOL     OW79138   6.572   1.451   5.902  0.1516 -0.3352 -0.2044
26187SOL    HW179139   6.502   1.511   5.874  0.1643 -0.7970 -1.2554
26187SOL    HW279140   6.594   1.401   5.823  3.1159  1.2143 -0.5011
26188SOL     OW79141   0.430   5.007   3.320  0.2584  0.1353 -0.3218
26188SOL    HW179142   0.366   5.033   3.387  0.3181 -0.6676  0.0656
26188SOL    HW279143   0.376   4.973   3.249  0.2437 -0.7838  0.1111
26189SOL     OW79144   6.581   0.621   8.087  0.2234 -0.0681  0.4750
26189SOL    HW179145   6.604   0.587   8.001 -0.1839  0.2425  0.2440
26189SOL    HW279146   6.569   0.543   8.141 -0.8307 -0.3019 -0.0880
26190SOL     OW79147   8.608   7.784   2.274  0.6261 -0.3852 -0.1610
26190SOL    HW179148   8.564   7.701   2.292  1.7873 -1.0945 -0.4615
26190SOL    HW279149   8.693   7.758   2.239  0.5624  0.9294 -1.3766
26191SOL     OW79150   7.843   6.830   9.256  0.2129  0.1254  0.1558
26191SOL    HW179151   7.807   6.892   9.193  2.0170  0.7557 -0.3169
26191SOL    HW279152   7.887   6.885   9.321  1.1224 -0.6190  0.1905
26192SOL     OW79153   5.572   9.830   2.016  0.2179 -0.6099 -0.1974
26192SOL    HW179154   5.626   9.909   2.027 -2.1469  0.8087  2.5131
26192SOL    HW279155   5.592   9.776   2.092 -0.7245 -0.9591 -0.1821
26193SOL     OW79156   7.843   9.043   9.174  0.3706  0.4780 -0.0470
26193SOL    HW179157   7.893   9.117   9.209  0.0849  1.0664 -0.8618
26193SOL    HW279158   7.889   9.019   9.094 -0.5414  0.9207 -0.7233
26194SOL     OW79159   3.339   4.964   3.580 -0.1715  0.1352 -0.2767
26194SOL    HW179160   3.281   4.888   3.577  1.2536 -1.0773  1.0884
26194SOL    HW279161   3.351   4.982   3.673  0.6747  1.1067 -0.5499
26195SOL     OW79162   2.539   5.201   3.561  0.7779 -0.3873  0.0547
26195SOL    HW179163   2.507   5.113   3.539 -0.2408 -0.0780  0.2227
26195SOL    HW279164   2.497   5.258   3.496  1.1682  0.0192  0.1550
26196SOL     OW79165   9.377   0.738   3.023 -0.4122  0.1056  0.3717
26196SOL    HW179166   9.337   0.814   2.980 -2.2615 -2.0069 -1.9377
26196SOL    HW279167   9.311   0.707   3.085 -0.7528 -1.0633 -0.5461
26197SOL     OW79168   2.018   0.791   3.336 -0.1642  0.1998 -0.0548
26197SOL    HW179169   1.994   0.880   3.361  2.5402  1.2542 -0.8785
26197SOL    HW279170   2.100   0.774   3.382 -0.6738 -1.9830  0.2000
26198SOL     OW79171   9.934   6.411   4.859  0.5448 -0.1430 -0.1991
26198SOL    HW179172   9.865   6.346   4.870  1.3079 -0.7537  1.2927
26198SOL    HW279173   9.932   6.433   4.766 -0.5059 -1.4179 -0.5044
26199SOL     OW79174   7.849   9.986   5.772 -0.2911  0.6852  0.2951
26199SOL    HW179175   7.895   9.909   5.738  0.6431  0.8306  1.1687
26199SOL    HW279176   7.852   9.975   5.867  0.5711  2.1902  0.4725
26200SOL     OW79177   2.597   7.628   6.617  0.4120  0.7915 -0.2977
26200SOL    HW179178   2.534   7.678   6.669  0.6135  1.8939 -1.0810
26200SOL    HW279179   2.676   7.626   6.671 -0.2717 -0.6782  0.7342
26201SOL     OW79180   7.850   9.741   8.008  0.4734 -0.3577  0.1340
26201SOL    HW179181   7.845   9.671   7.943  0.6174  1.4689 -1.9335
26201SOL    HW279182   7.900   9.810   7.965 -1.0713  1.6884  1.4698
26202SOL     OW79183   7.864   2.209   6.533  0.1565  0.2625 -0.3502
26202SOL    HW179184   7.875   2.154   6.455 -1.4263 -1.2535  0.4200
26202SOL    HW279185   7.869   2.298   6.500  1.6516 -0.2962 -1.8365
26203SOL     OW79186   0.162   5.895   6.686 -0.2944 -0.0655 -0.4668
26203SOL    HW179187   0.092   5.856   6.634 -0.4616  1.1394 -1.1875
26203SOL    HW279188   0.219   5.938   6.621 -2.3671  4.5513  0.3691
26204SOL     OW79189   2.392   4.273   1.385 -0.1954 -0.3252 -0.2461
26204SOL    HW179190   2.408   4.186   1.421  0.5109  0.5388  1.6765
26204SOL    HW279191   2.300   4.290   1.403  0.0148 -0.1278  0.6920
26205SOL     OW79192   5.327   5.894   1.487  0.2700 -0.5788 -0.3384
26205SOL    HW179193   5.293   5.835   1.556 -1.4260 -2.5341 -2.6674
26205SOL    HW279194   5.278   5.975   1.499  0.0312 -0.8642  0.7772
26206SOL     OW79195   6.272   0.559   7.058  0.6726  0.9475  0.2687
26206SOL    HW179196   6.321   0.487   7.018 -0.6994 -0.1407  0.4705
26206SOL    HW279197   6.246   0.525   7.144  1.3044  2.2653  1.0054
26207SOL     OW79198   0.941   4.782   3.213 -0.0179  0.2533 -0.3752
26207SOL    HW179199   0.850   4.755   3.229  0.5449 -1.3221  0.3966
26207SOL    HW279200   0.952   4.772   3.118 -0.2615 -0.9843 -0.2990
26208SOL     OW79201   5.617   7.193   9.419  0.2245 -0.3112 -0.2522
26208SOL    HW179202   5.691   7.251   9.404 -1.1625  1.8349  0.7641
26208SOL    HW279203   5.622   7.172   9.512 -0.4715 -0.0909 -0.1616
26209SOL     OW79204   0.589   7.541   2.376  0.0742 -0.2949  0.0380
26209SOL    HW179205   0.582   7.447   2.395 -0.4950 -0.4241 -0.7665
26209SOL    HW279206   0.662   7.571   2.430  0.6536 -1.3233 -0.1525
26210SOL     OW79207   9.353   5.065   2.548 -0.5020 -0.4294  0.1805
26210SOL    HW179208   9.350   4.969   2.542  2.3895 -0.6684  0.7876
26210SOL    HW279209   9.419   5.091   2.483 -1.6698  1.2559 -0.4056
26211SOL     OW79210   0.526   0.310   7.853 -0.1575 -0.1624  0.0605
26211SOL    HW179211   0.554   0.399   7.873 -2.9300  1.2472 -1.7494
26211SOL    HW279212   0.487   0.278   7.934 -0.2948  0.7589  0.3679
26212SOL     OW79213   7.183   2.648   9.704 -0.3488  0.9346  0.4742
26212SOL    HW179214   7.258   2.660   9.763  0.2636  1.1629 -0.3296
26212SOL    HW279215   7.223   2.621   9.621 -1.1374  1.4228 -0.0735
26213SOL     OW79216   9.203   7.240   4.292 -0.4490 -0.3575  0.3475
26213SOL    HW179217   9.280   7.213   4.244 -1.7516 -0.7234 -1.6514
26213SOL    HW279218   9.219   7.332   4.314  0.0256 -0.0595 -1.1718
26214SOL     OW79219   8.237   9.580   0.877 -0.3415  0.5286 -0.0134
26214SOL    HW179220   8.240   9.581   0.973  0.6549 -0.2512 -0.0206
26214SOL    HW279221   8.206   9.668   0.853  0.3990  1.0889  0.9943
26215SOL     OW79222   5.848   4.018   8.526 -0.4241  0.8646  0.2638
26215SOL    HW179223   5.865   3.943   8.583  1.9646 -0.2386 -1.7075
26215SOL    HW279224   5.848   4.093   8.585 -1.2139 -0.4868  2.0937
26216SOL     OW79225   0.255   6.357   0.117 -0.1691 -0.3062 -0.2329
26216SOL    HW179226   0.298   6.273   0.103  0.3957 -0.1170  0.3313
26216SOL    HW279227   0.252   6.368   0.212 -1.6559 -0.4054 -0.2456
26217SOL     OW79228   2.950   9.856   0.057  0.4081 -0.4306  0.3456
26217SOL    HW179229   2.930   9.839   0.149  0.4482 -0.8730  0.2757
26217SOL    HW279230   2.872   9.826   0.010  0.5450 -0.5666  0.2061
26218SOL     OW79231   8.997   9.074   6.044  0.2616  0.6490 -0.4234
26218SOL    HW179232   9.077   9.022   6.057 -0.0970  0.0577 -0.5491
26218SOL    HW279233   9.028   9.153   6.000  0.7020  0.1264 -1.0895
26219SOL     OW79234   6.513   5.646   8.798  0.5607 -0.3574  0.5712
26219SOL    HW179235   6.466   5.679   8.721  2.0122 -1.0035 -0.6527
26219SOL    HW279236   6.605   5.645   8.771  1.0857 -0.8272  2.2532
26220SOL     OW79237   8.445   5.668   3.598  0.2226  0.6370 -0.2947
26220SOL    HW179238   8.528   5.706   3.570  0.2619  0.4081 -0.4897
26220SOL    HW279239   8.452   5.576   3.575  0.5395  0.2919  1.0933
26221SOL     OW79240   3.998   4.420   0.377 -0.1213 -0.2667 -0.5193
26221SOL    HW179241   4.002   4.366   0.456  4.0204  2.0650  1.1755
26221SOL    HW279242   3.917   4.470   0.387  0.3960  0.1659  2.4856
26222SOL     OW79243   8.795   4.390   3.897  0.2565  0.1103 -0.1176
26222SOL    HW179244   8.706   4.356   3.892  0.4151 -0.2326 -0.6374
26222SOL    HW279245   8.825   4.394   3.806  0.7580  0.2615  0.0486
26223SOL     OW79246   9.895   7.833   1.472 -0.5443  0.0707 -0.1329
26223SOL    HW179247   9.947   7.896   1.523  1.8114 -0.4257 -1.7653
26223SOL    HW279248   9.820   7.883   1.442  0.0496  1.4517  0.5657
26224SOL     OW79249   7.904   7.762   6.205 -0.2391 -0.3309  0.4315
26224SOL    HW179250   7.811   7.763   6.182 -1.2783  1.2499  4.0618
26224SOL    HW279251   7.915   7.835   6.267  2.9371 -1.7849  1.8183
26225SOL     OW79252   1.224   3.604   0.963 -0.4437 -0.3691  0.1023
26225SOL    HW179253   1.135   3.598   0.996  0.0382 -0.5896  1.4136
26225SOL    HW279254   1.235   3.528   0.907 -1.2108 -0.1121 -0.4009
26226SOL     OW79255   2.836   0.496   9.742  0.1215  0.1104  0.1066
26226SOL    HW179256   2.855   0.413   9.787  0.4184 -0.1328 -0.4623
26226SOL    HW279257   2.920   0.542   9.740 -0.2078  0.7744  1.1172
26227SOL     OW79258   3.205   8.764   5.513  0.0963 -0.0099  0.3907
26227SOL    HW179259   3.231   8.855   5.528 -2.1578  0.9149 -0.7988
26227SOL    HW279260   3.275   8.728   5.457  0.6358  1.2209  0.2341
26228SOL     OW79261   6.223   8.344   4.784  0.2886  0.0648 -0.0958
26228SOL    HW179262   6.133   8.356   4.815  0.3548  0.3671 -0.0173
26228SOL    HW279263   6.218   8.360   4.690  0.4161  0.9636  0.0406
26229SOL     OW79264   9.066   2.600   0.573 -0.1840 -0.0401  0.2549
26229SOL    HW179265   9.121   2.568   0.502 -1.7467 -2.4036  0.0060
26229SOL    HW279266   9.128   2.635   0.637  1.3310  0.9015 -1.6228
26230SOL     OW79267   7.197   7.597   8.987 -0.3929  0.3328  0.3284
26230SOL    HW179268   7.193   7.617   8.893 -0.2441 -0.6101  0.1038
26230SOL    HW279269   7.165   7.506   8.993 -0.4051  0.3865  1.1897
26231SOL     OW79270   9.304   8.759   9.215  0.0386 -0.6827 -0.3686
26231SOL    HW179271   9.335   8.779   9.126  1.4722 -0.7675  0.0822
26231SOL    HW279272   9.384   8.742   9.264 -0.7677 -1.0192  0.8540
26232SOL     OW79273   0.917   8.121   3.520 -0.1562 -0.1207 -0.6300
26232SOL    HW179274   0.889   8.145   3.608  1.0763  0.1982 -0.3100
26232SOL    HW279275   0.905   8.027   3.515  0.7278 -0.2922  0.2506
26233SOL     OW79276   0.829   9.900   6.378 -0.2892  0.1714 -0.3992
26233SOL    HW179277   0.830   9.805   6.383 -0.5613  0.2141  3.2150
26233SOL    HW279278   0.904   9.928   6.431  0.6640  2.0151 -2.5810
26234SOL     OW79279   8.531   5.383   0.337 -0.5063 -0.6858 -0.1695
26234SOL    HW179280   8.545   5.363   0.430  1.1740  0.7741 -0.0647
26234SOL    HW279281   8.508   5.299   0.298  3.3274 -2.3411  0.7267
26235SOL     OW79282   6.384   4.664   5.193  0.0872  0.2290  0.2724
26235SOL    HW179283   6.301   4.623   5.169  0.2809  1.6287 -3.4310
26235SOL    HW279284   6.361   4.755   5.215  0.4740  0.1648  0.9791
26236SOL     OW79285   2.282   0.491   0.786 -0.0105  0.3628 -0.5482
26236SOL    HW179286   2.295   0.528   0.874  1.6575 -0.7093 -0.2972
26236SOL    HW279287   2.252   0.565   0.733  2.7441  2.0327  0.0340
26237SOL     OW79288   3.605   6.063   6.580 -0.1593 -0.6940 -0.3346
26237SOL    HW179289   3.673   6.006   6.617 -0.4406 -0.0721  1.2176
26237SOL    HW279290   3.654   6.132   6.535  0.1867 -1.6309 -1.4726
26238SOL     OW79291   6.326   3.848   6.938  0.6268 -0.1449  0.2432
26238SOL    HW179292   6.248   3.856   6.992 -0.0038  0.5374 -0.7205
26238SOL    HW279293   6.371   3.932   6.949  0.2304  0.1977 -0.6608
26239SOL     OW79294   5.830  -0.009   0.745  0.0450 -0.2881  0.3307
26239SOL    HW179295   5.752   0.038   0.718  0.3242 -0.6611 -1.2509
26239SOL    HW279296   5.874   0.050   0.806 -0.5642  0.6808 -0.1452
26240SOL     OW79297   1.529   6.593   0.487  0.4965  0.2785  0.0120
26240SOL    HW179298   1.480   6.595   0.570  0.4456  0.2503 -0.0173
26240SOL    HW279299   1.602   6.654   0.501 -0.4992  1.6525 -0.5476
26241SOL     OW79300   1.531   5.842   4.198  0.2304 -0.4954  0.0201
26241SOL    HW179301   1.471   5.913   4.175 -3.0450 -3.0442  0.0496
26241SOL    HW279302   1.555   5.803   4.114  0.0867 -0.8100  0.1247
26242SOL     OW79303   8.353   6.112   7.162  0.7713  0.1135 -0.2013
26242SOL    HW179304   8.375   6.201   7.136  1.9823  0.4437  1.7378
26242SOL    HW279305   8.258   6.114   7.175  0.8928  1.4122  0.7304
26243SOL     OW79306   7.932   9.217   0.176  0.0882  0.2167  0.0167
26243SOL    HW179307   8.026   9.229   0.187 -0.1295  1.6486  0.4246
26243SOL    HW279308   7.911   9.143   0.233  0.9912 -0.2714 -0.2564
26244SOL     OW79309   1.612   9.373   9.412 -0.3226 -0.3554  0.3182
26244SOL    HW179310   1.695   9.396   9.368 -0.3412 -1.7624 -0.5347
26244SOL    HW279311   1.611   9.277   9.411 -1.8694 -0.3611  0.5190
26245SOL     OW79312   0.085   1.866   6.256  0.0639  0.1364  0.1478
26245SOL    HW179313   0.095   1.905   6.169 -1.8019 -1.6433 -0.9367
26245SOL    HW279314   0.033   1.929   6.304  0.7233  0.9318 -0.1480
26246SOL     OW79315   0.985   4.801   4.442 -0.0270 -0.2299  0.7902
26246SOL    HW179316   0.955   4.710   4.446 -1.1176 -0.0194 -1.1224
26246SOL    HW279317   1.078   4.796   4.465  0.3188 -2.0697 -0.6776
26247SOL     OW79318   0.486   9.588   3.546  0.4495  0.8099 -0.7841
26247SOL    HW179319   0.459   9.629   3.464 -0.2727  0.9308 -0.4928
26247SOL    HW279320   0.405   9.554   3.584  0.9613 -0.5042 -0.7977
26248SOL     OW79321   1.284   5.106   6.662 -0.4913  0.0446 -0.5207
26248SOL    HW179322   1.295   5.024   6.711 -0.0557  0.9486  0.9909
26248SOL    HW279323   1.374   5.134   6.643 -0.6423  0.0778 -1.1882
26249SOL     OW79324   0.652   5.669   1.777 -0.2046  0.0146 -0.1076
26249SOL    HW179325   0.608   5.715   1.705 -1.7498 -1.1537  0.0360
26249SOL    HW279326   0.611   5.702   1.856 -2.0797 -2.1993 -0.0358
26250SOL     OW79327   7.204   7.086   9.433  0.0466 -0.3664  0.0787
26250SOL    HW179328   7.165   7.169   9.461  0.5154  0.9594 -2.8695
26250SOL    HW279329   7.297   7.106   9.425  0.1273 -1.1048 -0.8949
26251SOL     OW79330   1.781   1.617   1.554 -0.2766  0.1181  0.1046
26251SOL    HW179331   1.810   1.572   1.634 -0.6094  0.8034  0.6246
26251SOL    HW279332   1.857   1.669   1.527  0.3776 -1.3226 -0.9437
26252SOL     OW79333   5.352   7.820   6.903  0.9930 -0.4368 -0.0706
26252SOL    HW179334   5.319   7.741   6.947  1.6858 -0.5985  0.1608
26252SOL    HW279335   5.421   7.853   6.961  0.5135  0.5100 -0.0175
26253SOL     OW79336   0.291   5.104   6.611 -0.1323  0.4634  0.5098
26253SOL    HW179337   0.268   5.100   6.518  1.5117  1.2835  0.0165
26253SOL    HW279338   0.386   5.118   6.611 -0.2779  1.8676  2.2939
26254SOL     OW79339   9.412   4.148   5.783 -0.4177  0.5133 -0.8219
26254SOL    HW179340   9.405   4.088   5.858  1.3316  0.2310 -0.8490
26254SOL    HW279341   9.398   4.092   5.707 -1.2577  0.6223 -0.7542
26255SOL     OW79342   8.656   0.878   6.547 -0.0366 -0.3984  0.4213
26255SOL    HW179343   8.593   0.842   6.486  0.1237 -0.8847  0.5391
26255SOL    HW279344   8.710   0.804   6.573 -0.2433 -0.2440  1.3283
26256SOL     OW79345   4.921   2.195   7.157  0.4398 -0.2984  0.6301
26256SOL    HW179346   4.919   2.179   7.062 -0.7373  0.3783  0.5247
26256SOL    HW279347   4.978   2.127   7.191  1.5161 -0.0947 -0.6544
26257SOL     OW79348   4.656   3.818   6.645  0.7604  0.1280  0.6031
26257SOL    HW179349   4.669   3.830   6.739  1.0661 -0.6730  0.6780
26257SOL    HW279350   4.740   3.842   6.606  0.0421  2.3869  0.3164
26258SOL     OW79351   1.766   9.098   2.704  0.7639 -0.1233 -0.2987
26258SOL    HW179352   1.750   9.014   2.661  1.6801 -0.7205  0.4829
26258SOL    HW279353   1.725   9.163   2.646 -1.2604 -1.2167 -0.1707
26259SOL     OW79354   6.607   1.781   8.030 -0.2334 -0.4839  0.2184
26259SOL    HW179355   6.575   1.714   8.090  1.3774 -0.9775  0.5845
26259SOL    HW279356   6.565   1.862   8.059  0.4607 -0.7142  2.0093
26260SOL     OW79357   1.136   3.253   9.336  0.4128 -0.0100  0.0703
26260SOL    HW179358   1.095   3.253   9.422 -0.6353  3.3503 -0.2905
26260SOL    HW279359   1.210   3.313   9.345  0.2015  0.5134 -1.3792
26261SOL     OW79360   1.618   5.299   2.295  0.1237 -0.1711 -0.0790
26261SOL    HW179361   1.648   5.386   2.270 -0.2518 -0.2141 -0.7052
26261SOL    HW279362   1.539   5.314   2.346  0.2398 -0.1297  0.0872
26262SOL     OW79363   1.895   3.734   2.702  0.2624  0.6166  0.5009
26262SOL    HW179364   1.831   3.679   2.656 -1.5208  2.7149  0.3378
26262SOL    HW279365   1.881   3.822   2.667  3.5624  1.1314  0.1841
26263SOL     OW79366   4.357   1.985   8.828 -0.1379 -0.3066 -0.0193
26263SOL    HW179367   4.438   1.943   8.800 -0.7023 -1.3618 -0.1181
26263SOL    HW279368   4.385   2.063   8.876  0.9622 -1.0557  0.5895
26264SOL     OW79369   1.395   1.493   4.422 -0.5015 -0.0105 -0.4554
26264SOL    HW179370   1.456   1.553   4.465  0.0061 -0.7021 -0.2022
26264SOL    HW279371   1.309   1.524   4.448 -0.2215 -1.4924  2.6280
26265SOL     OW79372   4.456   6.316   9.745 -0.9188  0.0759  0.4941
26265SOL    HW179373   4.424   6.369   9.818  1.3986  0.2532  1.4692
26265SOL    HW279374   4.475   6.379   9.676  0.2003  0.3505  1.0323
26266SOL     OW79375   7.961   2.567   8.574 -0.2758  0.4091  0.2286
26266SOL    HW179376   7.965   2.648   8.524  0.4175  0.9952  1.2052
26266SOL    HW279377   7.867   2.552   8.587 -0.4974  0.0869 -1.4344
26267SOL     OW79378   4.810   5.077   6.244  0.0003 -0.4593  0.2563
26267SOL    HW179379   4.766   5.128   6.176  0.2588  0.3168  0.6640
26267SOL    HW279380   4.802   5.130   6.323  1.7550 -0.2310  0.3193
26268SOL     OW79381   0.906   2.552   6.555 -0.1963 -0.4199  0.5422
26268SOL    HW179382   0.945   2.465   6.559  0.7319  0.0109  1.5334
26268SOL    HW279383   0.967   2.603   6.500 -0.1780 -0.1406  0.8162
26269SOL     OW79384   3.992   8.214   2.322 -0.1876 -0.6335 -0.7049
26269SOL    HW179385   4.012   8.243   2.233 -1.5678 -0.9476 -1.1526
26269SOL    HW279386   3.902   8.180   2.316  0.4202 -2.5891  0.3566
26270SOL     OW79387   7.332   1.021   6.205 -0.8239  0.2692 -0.0269
26270SOL    HW179388   7.280   1.022   6.285 -1.0254 -0.7233 -0.1295
26270SOL    HW279389   7.361   1.111   6.193 -0.5704  0.3777  1.3030
26271SOL     OW79390   8.868   4.024   7.295  0.3621  0.0696  0.4760
26271SOL    HW179391   8.774   4.041   7.289  0.4730  0.5667  0.1454
26271SOL    HW279392   8.889   4.036   7.388 -0.0502 -0.8709  0.7071
26272SOL     OW79393   9.597   8.883   3.585  0.6472  0.5299 -0.0789
26272SOL    HW179394   9.630   8.839   3.507 -0.0139 -1.4799  0.6971
26272SOL    HW279395   9.519   8.930   3.556  0.0072 -0.7684 -0.5242
26273SOL     OW79396   1.960   5.464   5.896 -0.5638 -0.0855  0.1250
26273SOL    HW179397   1.890   5.530   5.894  0.7392  1.3432 -0.5685
26273SOL    HW279398   1.999   5.468   5.809  3.3150  2.5077  1.7008
26274SOL     OW79399   3.694   2.991   7.044 -0.0753  0.1515  0.2624
26274SOL    HW179400   3.671   2.958   7.131  0.1031 -0.4528  0.0902
26274SOL    HW279401   3.624   2.959   6.987  0.9138 -1.3517 -0.1950
26275SOL     OW79402   4.134   7.441   5.381 -0.3716 -0.2671  0.3054
26275SOL    HW179403   4.107   7.385   5.453 -1.0332  0.9994  1.0630
26275SOL    HW279404   4.108   7.529   5.407  1.8882  0.6371 -0.2114
26276SOL     OW79405   2.645   7.595   5.994 -0.6237  0.1245  0.4264
26276SOL    HW179406   2.566   7.542   5.979  1.6242 -3.0625 -1.6144
26276SOL    HW279407   2.707   7.534   6.034  0.8267  2.5621  2.1610
26277SOL     OW79408   9.061   7.655   5.580  0.0291  0.2492  0.6570
26277SOL    HW179409   9.144   7.649   5.626  0.7039  0.0844 -0.5452
26277SOL    HW279410   9.028   7.565   5.580  0.9848 -0.1346 -0.8589
26278SOL     OW79411   4.402   4.505   2.600 -0.0518 -0.2431  0.2484
26278SOL    HW179412   4.392   4.472   2.689  0.5128  0.6209  0.6450
26278SOL    HW279413   4.474   4.568   2.605 -1.4733  1.5269 -0.3374
26279SOL     OW79414   9.871   5.791   1.050  0.3509 -0.4506  0.0520
26279SOL    HW179415   9.858   5.802   0.956  0.0774  0.7299  0.2064
26279SOL    HW279416   9.931   5.717   1.058 -0.3370 -1.1487 -1.0067
26280SOL     OW79417   2.127   8.592   1.697 -0.1598 -0.0169  0.4299
26280SOL    HW179418   2.062   8.525   1.674 -0.0718 -0.0112  0.1684
26280SOL    HW279419   2.083   8.675   1.681 -0.1534 -0.0120  0.4370
26281SOL     OW79420   7.276   9.661   8.396  0.6502  0.1572  0.0397
26281SOL    HW179421   7.353   9.717   8.406 -0.0493  1.4985 -1.7031
26281SOL    HW279422   7.219   9.707   8.335 -1.3060 -1.0845  0.8014
26282SOL     OW79423   6.057   3.338   2.570 -0.2880 -0.6156 -0.3809
26282SOL    HW179424   6.129   3.369   2.514  1.4339 -1.3501  1.3346
26282SOL    HW279425   6.084   3.251   2.598 -1.4428 -0.5585  1.0207
26283SOL     OW79426   1.784   3.226   0.911  0.3511 -0.0383  0.3729
26283SOL    HW179427   1.826   3.306   0.944  0.4178  0.0300  0.1257
26283SOL    HW279428   1.699   3.223   0.955 -1.3802  2.2548 -2.4666
26284SOL     OW79429   2.478   7.258   3.771  0.2567 -0.1673  0.0620
26284SOL    HW179430   2.560   7.304   3.787  0.4933 -0.8082  0.7290
26284SOL    HW279431   2.484   7.229   3.680  1.5594 -1.7442  0.6070
26285SOL     OW79432   8.602   4.340   4.900 -0.1059 -0.2428  0.1119
26285SOL    HW179433   8.645   4.356   4.984 -1.1012  1.0483  0.4112
26285SOL    HW279434   8.587   4.428   4.864  0.6620 -0.7698 -1.6303
26286SOL     OW79435   7.463   4.106   1.658 -0.2164 -0.7255  0.4987
26286SOL    HW179436   7.546   4.108   1.612 -0.5589  1.0318 -0.1268
26286SOL    HW279437   7.398   4.085   1.591 -0.3217 -1.9403  0.9540
26287SOL     OW79438   5.668   5.668   0.674  0.0875 -0.1787  0.1302
26287SOL    HW179439   5.739   5.733   0.671  0.1350 -0.0832  2.0214
26287SOL    HW279440   5.588   5.720   0.683 -0.0713 -0.3252 -0.4338
26288SOL     OW79441   0.731   1.200   6.735  0.2088 -0.5556 -0.0680
26288SOL    HW179442   0.680   1.123   6.758  1.3707 -1.3986 -0.2366
26288SOL    HW279443   0.821   1.169   6.729  0.3190  0.0227 -3.5859
26289SOL     OW79444   8.014   1.595   5.321 -0.2801 -0.0001 -0.0715
26289SOL    HW179445   7.934   1.601   5.269  1.2140  0.9270 -2.4403
26289SOL    HW279446   8.076   1.548   5.266  1.0497 -0.1032  1.4140
26290SOL     OW79447   8.341   0.953   1.321 -0.0110 -0.3224  0.2282
26290SOL    HW179448   8.410   0.894   1.352 -0.0076 -0.6321 -0.3513
26290SOL    HW279449   8.314   0.916   1.237 -0.6783 -0.0306  0.3130
26291SOL     OW79450   4.233   2.564   1.729 -0.4204 -0.3206 -0.9193
26291SOL    HW179451   4.245   2.545   1.823  1.0488  1.6031 -0.6666
26291SOL    HW279452   4.192   2.650   1.727  2.9150  1.3917 -1.9827
26292SOL     OW79453   6.732   2.047   7.107 -0.1783 -0.4154  0.3162
26292SOL    HW179454   6.797   2.060   7.037 -1.3990 -0.0532 -0.7981
26292SOL    HW279455   6.700   2.134   7.127 -0.4066 -0.6022  0.7666
26293SOL     OW79456   9.971   9.774   0.522 -0.3854 -0.0856  0.0861
26293SOL    HW179457  10.025   9.810   0.451 -0.5428 -1.0556 -0.5436
26293SOL    HW279458   9.913   9.845   0.546 -0.5602  0.1590 -1.0027
26294SOL     OW79459   2.005   8.604   0.305 -0.4486 -0.3944  0.0398
26294SOL    HW179460   1.960   8.628   0.386  0.2141  0.3180  0.2144
26294SOL    HW279461   2.066   8.534   0.330  1.7444  1.6400  0.8124
26295SOL     OW79462   4.050   9.427   1.436  0.4302 -0.2952  0.8420
26295SOL    HW179463   4.122   9.439   1.498  0.9343 -0.8784  0.3820
26295SOL    HW279464   4.085   9.368   1.369  0.6875  2.0469 -1.2357
26296SOL     OW79465   4.400   9.271   1.875  0.0144  0.0465  0.2094
26296SOL    HW179466   4.402   9.351   1.929  2.3464 -0.4968  1.0299
26296SOL    HW279467   4.324   9.223   1.908  1.1221 -0.0797  2.8501
26297SOL     OW79468   7.485   8.008   3.582  0.2073  0.5524  0.4066
26297SOL    HW179469   7.507   8.025   3.674  0.3210  0.3910  0.4090
26297SOL    HW279470   7.450   7.919   3.582  1.4493  0.0449  0.0870
26298SOL     OW79471   5.577   2.430   3.563  0.2585  0.1477  0.2299
26298SOL    HW179472   5.577   2.392   3.651  1.5284  0.4201  0.3643
26298SOL    HW279473   5.521   2.507   3.571  0.5139  0.2747  0.8526
26299SOL     OW79474   2.898   1.640   2.788  0.1544 -0.5697  0.3783
26299SOL    HW179475   2.854   1.572   2.737 -0.9398  0.5763 -0.2653
26299SOL    HW279476   2.913   1.601   2.874  1.6809 -2.4266 -0.6447
26300SOL     OW79477   7.452   4.903   8.308 -0.3420  0.3224  0.1890
26300SOL    HW179478   7.452   4.862   8.222 -3.3292 -1.1861  0.7621
26300SOL    HW279479   7.433   4.831   8.369  2.8535  1.0940  2.3340
26301SOL     OW79480   4.459   9.468   0.105 -0.0842 -0.1200  1.3261
26301SOL    HW179481   4.461   9.380   0.069 -1.6705 -0.7930  2.7190
26301SOL    HW279482   4.541   9.477   0.154  0.4346 -0.5173  0.5429
26302SOL     OW79483   9.303   8.413   2.136 -0.6722  0.3142 -0.2308
26302SOL    HW179484   9.298   8.320   2.112 -1.1082  0.0666  0.7539
26302SOL    HW279485   9.358   8.452   2.069 -1.2323 -0.4791 -1.1753
26303SOL     OW79486   7.667   7.454   5.780 -0.1861 -0.4751 -0.3603
26303SOL    HW179487   7.633   7.467   5.869  1.3943 -1.1163  0.3770
26303SOL    HW279488   7.683   7.360   5.774  3.0598 -0.0515  0.0104
26304SOL     OW79489   7.559   6.400   0.181  0.1482  0.0859  1.1582
26304SOL    HW179490   7.548   6.398   0.086  0.2659 -1.8261  1.1320
26304SOL    HW279491   7.490   6.458   0.212 -0.5918 -0.1290 -0.0200
26305SOL     OW79492   6.073   2.688   0.747  0.0517 -0.1839  0.0429
26305SOL    HW179493   6.102   2.677   0.838 -2.9908 -2.4640  0.9054
26305SOL    HW279494   5.994   2.741   0.753 -1.0270 -1.5862 -1.0287
26306SOL     OW79495   2.242   9.153   6.717  0.2460 -0.1475 -0.1116
26306SOL    HW179496   2.261   9.090   6.648 -0.1899 -1.2420  0.7340
26306SOL    HW279497   2.324   9.162   6.765  0.4553  0.3518 -0.5572
26307SOL     OW79498   9.678   8.325   2.200 -0.5514 -0.0755  0.3551
26307SOL    HW179499   9.640   8.413   2.192  1.4643  0.9050  0.9670
26307SOL    HW279500   9.717   8.308   2.114  0.7457  0.4968  0.8031
26308SOL     OW79501   2.492   7.638   6.373 -0.2219  0.7293 -0.3342
26308SOL    HW179502   2.405   7.641   6.414 -1.2186 -1.1304 -2.1374
26308SOL    HW279503   2.552   7.621   6.445 -1.5753  0.2970  0.7324
26309SOL     OW79504   0.244   2.297   6.841 -0.1114 -0.0894  0.1240
26309SOL    HW179505   0.281   2.381   6.866  1.0599 -1.1604  2.3016
26309SOL    HW279506   0.320   2.239   6.833 -0.9075 -1.0052 -1.1836
26310SOL     OW79507   3.350   5.092   5.119 -0.0111  0.2546 -0.1549
26310SOL    HW179508   3.377   5.137   5.039  0.4168 -0.7067 -0.5721
26310SOL    HW279509   3.286   5.027   5.089 -0.3535  0.3391  0.3809
26311SOL     OW79510   1.590   8.808   9.129 -0.2828  0.2686  0.0230
26311SOL    HW179511   1.612   8.776   9.216 -3.1088 -0.3470  0.5928
26311SOL    HW279512   1.664   8.782   9.074  0.5989 -1.1898  1.8233
26312SOL     OW79513   8.305   1.803   3.428 -0.6238  0.5354 -0.4002
26312SOL    HW179514   8.235   1.784   3.366 -1.1158  0.3361  0.2012
26312SOL    HW279515   8.386   1.792   3.378 -0.9459 -1.2812 -0.5688
26313SOL     OW79516   2.200   6.535   4.683 -0.1788  0.3952  0.3510
26313SOL    HW179517   2.124   6.517   4.627 -0.0963  0.8381  0.0952
26313SOL    HW279518   2.204   6.630   4.688  1.6263  0.4899 -1.4202
26314SOL     OW79519   0.514   6.926   2.329 -0.0150 -0.3802 -0.0242
26314SOL    HW179520   0.600   6.947   2.292  0.0178  0.1634  0.3459
26314SOL    HW279521   0.532   6.864   2.400  0.0672 -0.3253  0.0028
26315SOL     OW79522   3.097   3.452   9.831  0.3660  0.5272 -0.3231
26315SOL    HW179523   3.187   3.465   9.802  0.9234 -0.7005  0.7814
26315SOL    HW279524   3.089   3.506   9.909 -0.1862  1.4119 -0.9711
26316SOL     OW79525   9.127   8.451   1.343  0.5576  0.5248 -0.6937
26316SOL    HW179526   9.062   8.517   1.322  0.3157 -0.1675 -2.2541
26316SOL    HW279527   9.184   8.448   1.266  1.7317  0.2689  0.1506
26317SOL     OW79528   9.102   6.313   7.931 -0.1302 -0.1395 -0.3917
26317SOL    HW179529   9.122   6.397   7.888  0.0180 -0.6938 -1.4240
26317SOL    HW279530   9.169   6.253   7.899 -0.9172 -0.9441 -0.5587
26318SOL     OW79531   4.349   9.638   8.426  0.7383  0.0270  0.0369
26318SOL    HW179532   4.361   9.562   8.369  2.9527  1.4417 -1.5253
26318SOL    HW279533   4.432   9.645   8.474 -0.1830  0.3156  1.6518
26319SOL     OW79534   2.166   9.180   4.176 -0.1624 -0.1920 -1.1191
26319SOL    HW179535   2.092   9.141   4.128  0.3090 -1.4095 -0.8953
26319SOL    HW279536   2.243   9.150   4.128  0.3012 -1.1516  0.1844
26320SOL     OW79537   7.732   6.001   8.987 -0.2468 -0.1842 -0.2840
26320SOL    HW179538   7.826   5.999   8.970 -0.4448 -0.8834 -1.4321
26320SOL    HW279539   7.714   5.920   9.034 -0.4659 -0.7582 -1.3144
26321SOL     OW79540   8.500   4.528   8.608  1.1582 -0.1802  0.2437
26321SOL    HW179541   8.531   4.556   8.522  2.0147 -0.8933  0.3046
26321SOL    HW279542   8.516   4.434   8.610  1.0568 -0.1888  1.1501
26322SOL     OW79543   5.147   4.076   9.022 -0.4374  0.1840  0.3038
26322SOL    HW179544   5.060   4.058   8.987 -0.2786  0.3235 -0.1638
26322SOL    HW279545   5.203   4.087   8.945 -0.0590  0.3581  0.5977
26323SOL     OW79546   2.627   7.935   7.839 -0.0809  0.6462  0.2038
26323SOL    HW179547   2.624   7.882   7.759 -0.6427  0.6261  0.2345
26323SOL    HW279548   2.704   7.904   7.886 -0.3102 -0.0247  0.1425
26324SOL     OW79549   1.464   3.481   0.559  0.5222  0.3481  0.1765
26324SOL    HW179550   1.468   3.467   0.464  2.6555 -1.0295  0.4110
26324SOL    HW279551   1.546   3.526   0.580 -1.0967  3.0761  1.0698
26325SOL     OW79552   0.018   8.652   7.930  0.4359  0.2815 -0.3320
26325SOL    HW179553   0.042   8.711   8.001 -1.2353 -1.6664  2.0131
26325SOL    HW279554   0.101   8.617   7.898  1.1975  0.4701  1.3477
26326SOL     OW79555   3.377   1.071   4.911  0.1687  0.3267 -0.1346
26326SOL    HW179556   3.463   1.079   4.950  0.7690 -0.6183 -1.2176
26326SOL    HW279557   3.356   0.977   4.916 -0.9098  0.5692  0.3313
26327SOL     OW79558   9.289   2.681   9.338 -0.4363  0.1805 -0.2765
26327SOL    HW179559   9.307   2.714   9.426  0.1318  0.6255 -0.5534
26327SOL    HW279560   9.197   2.655   9.341 -0.5374  0.5763  0.3270
26328SOL     OW79561   0.347   9.894   8.251  0.0983  0.0861 -0.6815
26328SOL    HW179562   0.335   9.928   8.340  0.5677 -1.8701  0.1755
26328SOL    HW279563   0.278   9.829   8.241  1.8464 -1.8706 -0.5846
26329SOL     OW79564   0.577   0.012   6.388  0.0738 -0.9249  0.7791
26329SOL    HW179565   0.590   0.106   6.398 -0.9166 -0.6660 -0.1040
26329SOL    HW279566   0.664  -0.022   6.364  0.3111 -0.1343  0.4788
26330SOL     OW79567   8.821   5.364   7.656 -0.9194  0.0187 -0.0676
26330SOL    HW179568   8.835   5.344   7.749 -1.3668  1.0167  0.2247
26330SOL    HW279569   8.730   5.340   7.640 -0.5039 -1.3253 -0.5849
26331SOL     OW79570   2.945   3.955   0.885 -0.9813 -0.0362  0.0538
26331SOL    HW179571   2.988   4.036   0.911 -0.7044 -0.6244  1.5485
26331SOL    HW279572   2.856   3.981   0.862 -0.0383  1.1252 -2.5711
26332SOL     OW79573   3.929   7.095   7.498  0.0502  0.7402  0.2743
26332SOL    HW179574   3.952   7.116   7.407  3.1161 -0.2318  0.7093
26332SOL    HW279575   3.984   7.020   7.520 -2.6469 -0.8729  2.1322
26333SOL     OW79576   3.565   3.446   1.153  0.3179 -0.9343 -0.0907
26333SOL    HW179577   3.598   3.445   1.064 -1.5917  0.1478 -0.8688
26333SOL    HW279578   3.522   3.361   1.164 -0.9131 -0.4282 -0.8282
26334SOL     OW79579   0.037   5.637   1.912 -0.1777 -0.7127 -0.3876
26334SOL    HW179580   0.081   5.685   1.843 -0.0203 -1.1243 -0.5768
26334SOL    HW279581  -0.044   5.686   1.928  0.2816 -0.0356 -0.1335
26335SOL     OW79582   4.558   9.759   6.151  0.2218  0.2530  0.2052
26335SOL    HW179583   4.597   9.717   6.229  0.2570  1.0170  0.6057
26335SOL    HW279584   4.546   9.687   6.090  2.6400  0.0216 -0.1038
26336SOL     OW79585   4.090   0.132   1.766 -0.0417  0.0394  0.1427
26336SOL    HW179586   4.071   0.134   1.860  0.5723  2.0361  0.2751
26336SOL    HW279587   4.167   0.188   1.756  0.0745 -0.3662 -1.5349
26337SOL     OW79588   2.964   7.022   6.462  0.1072 -0.5397  1.0843
26337SOL    HW179589   2.917   6.941   6.484 -0.7614  0.0028  1.2664
26337SOL    HW279590   3.050   7.011   6.502  0.7178 -2.2083 -0.5501
26338SOL     OW79591   3.272   4.067   0.764 -0.0955  0.7053 -0.2591
26338SOL    HW179592   3.231   4.153   0.751 -0.7987  0.8976  2.6319
26338SOL    HW279593   3.221   4.026   0.834  2.5225 -0.4918  1.0792
26339SOL     OW79594   2.738   1.805   7.034  0.1927 -0.3924 -0.0852
26339SOL    HW179595   2.697   1.734   6.985  0.6767 -1.4451  0.9955
26339SOL    HW279596   2.801   1.762   7.092 -1.2914  0.6388  2.4671
26340SOL     OW79597   3.451   8.514   3.686  0.3257 -0.2243 -0.6897
26340SOL    HW179598   3.361   8.545   3.699  0.1822 -0.2098 -1.6384
26340SOL    HW279599   3.482   8.563   3.609  2.3779  2.3851  1.6175
26341SOL     OW79600   3.406   7.158   0.170 -0.1155  0.4343 -0.5519
26341SOL    HW179601   3.357   7.232   0.207 -2.3675 -0.5016 -1.4934
26341SOL    HW279602   3.431   7.106   0.246  0.9789  1.8007  0.0793
26342SOL     OW79603   9.264   7.037   8.955  0.0626  0.1252 -0.1054
26342SOL    HW179604   9.303   7.061   9.039  0.8466 -0.0770 -0.4051
26342SOL    HW279605   9.338   7.008   8.901 -0.2897  1.0921 -1.1608
26343SOL     OW79606   3.971   5.998   0.414 -0.0108  0.9559  0.0637
26343SOL    HW179607   3.953   6.071   0.474 -1.4107  0.7947 -0.1238
26343SOL    HW279608   4.026   5.938   0.465 -0.3554  1.2930  0.8471
26344SOL     OW79609   7.177   2.677   4.388  0.0251 -0.1815  0.6505
26344SOL    HW179610   7.254   2.713   4.344 -0.7360 -0.6892 -1.1874
26344SOL    HW279611   7.213   2.621   4.457  1.2968 -0.2041  0.0028
26345SOL     OW79612   4.016   2.332   3.748  0.0681  0.1009  0.2673
26345SOL    HW179613   3.926   2.332   3.782 -0.0898  1.9905 -0.0527
26345SOL    HW279614   4.008   2.299   3.659 -0.4013  0.7852  0.0501
26346SOL     OW79615   0.835   7.556   3.830 -0.1903 -0.0749 -0.3802
26346SOL    HW179616   0.903   7.589   3.888 -0.2681 -0.7197  0.0879
26346SOL    HW279617   0.845   7.606   3.749  1.3858 -0.7536 -0.6294
26347SOL     OW79618   4.396   5.959   2.763 -0.2469 -0.6033 -0.7043
26347SOL    HW179619   4.327   5.895   2.777  0.7581 -1.6246 -0.2005
26347SOL    HW279620   4.446   5.958   2.845 -0.0635  0.6453 -0.7802
26348SOL     OW79621   4.667   6.217   1.169 -0.2244 -0.1168 -0.0624
26348SOL    HW179622   4.573   6.225   1.181 -0.2405 -0.0478 -0.2294
26348SOL    HW279623   4.702   6.204   1.257 -0.6072 -2.4083 -0.1966
26349SOL     OW79624   2.225   5.077   6.682 -0.4488  0.3462 -0.3992
26349SOL    HW179625   2.201   5.108   6.770 -2.6356  1.1557 -1.2318
26349SOL    HW279626   2.311   5.036   6.695  0.1548  2.0571  1.7643
26350SOL     OW79627   6.934   0.595   7.870 -0.3646 -0.0786  0.2141
26350SOL    HW179628   6.901   0.606   7.781  0.5930  1.2597 -0.0024
26350SOL    HW279629   6.865   0.546   7.915 -1.0050 -0.4907 -1.1614
26351SOL     OW79630   3.562   0.166   4.054  0.4399  0.0403  0.1662
26351SOL    HW179631   3.560   0.220   4.133  1.4056  0.1107  0.1521
26351SOL    HW279632   3.568   0.229   3.982  0.5726 -0.0531  0.0948
26352SOL     OW79633   7.211   2.628   0.954  0.1074  0.2863  0.6309
26352SOL    HW179634   7.117   2.646   0.946 -0.0432 -0.1046  1.3901
26352SOL    HW279635   7.243   2.696   1.013  0.0332 -0.3596  1.4385
26353SOL     OW79636   9.896   8.511   8.245 -0.6660 -0.1298  0.3355
26353SOL    HW179637   9.987   8.500   8.216  0.1148  1.1093  2.1452
26353SOL    HW279638   9.851   8.549   8.169  0.8723  1.3873  0.1120
26354SOL     OW79639   2.992   6.210   1.519 -0.2799  0.6846 -0.2468
26354SOL    HW179640   3.000   6.190   1.426  1.0159  0.2906 -0.0707
26354SOL    HW279641   2.977   6.305   1.521 -0.8850  0.6164 -0.8637
26355SOL     OW79642   4.500   3.775   7.057 -0.4903 -0.2247  0.3707
26355SOL    HW179643   4.533   3.810   7.140 -1.9984  1.0390  0.4741
26355SOL    HW279644   4.562   3.807   6.991  2.0205 -3.0536  1.1238
26356SOL     OW79645   7.480   6.702   5.686 -0.1033  0.4783 -0.6069
26356SOL    HW179646   7.556   6.677   5.633  0.0354 -4.7143  1.5005
26356SOL    HW279647   7.408   6.648   5.653 -1.1514  0.4591  1.5645
26357SOL     OW79648   9.614   2.429   7.589 -0.2264  0.3825 -0.0798
26357SOL    HW179649   9.533   2.426   7.538  0.3608 -3.2392 -1.0393
26357SOL    HW279650   9.585   2.437   7.680 -1.5294  1.0940 -0.5261
26358SOL     OW79651   0.569   6.271   1.485  0.3505  0.5082  0.3729
26358SOL    HW179652   0.588   6.212   1.412 -0.8887  4.0647 -3.1672
26358SOL    HW279653   0.486   6.239   1.520  0.8195 -1.1080  0.1046
26359SOL     OW79654   4.837   9.156   3.661 -0.0361 -0.1916  0.2865
26359SOL    HW179655   4.867   9.081   3.711 -0.1816 -0.6081 -0.2339
26359SOL    HW279656   4.814   9.119   3.575 -2.9531 -0.1067  0.9217
26360SOL     OW79657   7.453   5.036   1.611  0.0485  0.3722  0.0334
26360SOL    HW179658   7.541   5.008   1.636  0.6786  0.9086 -1.4178
26360SOL    HW279659   7.468   5.093   1.536 -1.5947 -0.2425 -0.8061
26361SOL     OW79660   5.529   3.062   2.725 -0.1501  0.0695  0.1145
26361SOL    HW179661   5.615   3.073   2.685 -0.2789  2.3560  0.3678
26361SOL    HW279662   5.547   3.022   2.810  0.5429 -0.4780 -0.2785
26362SOL     OW79663   4.172   3.236   5.313  0.1733 -0.7445  0.1200
26362SOL    HW179664   4.249   3.208   5.363 -0.7567 -1.6620  1.1243
26362SOL    HW279665   4.129   3.154   5.289 -1.1198 -0.2335  0.6297
26363SOL     OW79666   2.000   2.601   5.761 -0.3045 -0.3309  0.6598
26363SOL    HW179667   1.915   2.561   5.738 -0.7836  1.7402 -1.5017
26363SOL    HW279668   1.977   2.676   5.816 -0.0136  0.8516 -0.7821
26364SOL     OW79669   0.895   4.244   8.487  0.4168  0.0730 -0.3322
26364SOL    HW179670   0.986   4.218   8.471  0.8196  1.1979  0.0739
26364SOL    HW279671   0.900   4.307   8.558 -0.7890 -0.5325  0.3136
26365SOL     OW79672   0.741   0.515   7.202  0.2267 -0.0976 -0.0966
26365SOL    HW179673   0.749   0.430   7.246  0.4829  1.0626  2.2489
26365SOL    HW279674   0.666   0.557   7.244  0.2427  0.9495 -1.0710
26366SOL     OW79675   7.254   7.989   1.376 -0.0691 -0.0851  0.0615
26366SOL    HW179676   7.225   7.944   1.455  0.0047 -2.8318 -1.3510
26366SOL    HW279677   7.174   8.012   1.330 -0.0967  0.7946  0.5307
26367SOL     OW79678   4.058   5.073   4.959 -0.2992  0.1436 -0.3257
26367SOL    HW179679   3.987   5.087   5.021 -0.5624 -0.6840 -0.4345
26367SOL    HW279680   4.060   5.154   4.907  1.1135  1.6239  1.8892
26368SOL     OW79681   6.296   1.493   7.367 -0.5874  0.2562  0.0380
26368SOL    HW179682   6.351   1.562   7.332  0.7319 -0.0281  1.4309
26368SOL    HW279683   6.214   1.536   7.390  0.3391  1.4584  1.2138
26369SOL     OW79684   0.822   8.968   2.024  0.2246  0.5277  0.3890
26369SOL    HW179685   0.886   8.906   2.060 -0.7909 -0.7576  0.0852
26369SOL    HW279686   0.762   8.985   2.097 -0.5499 -0.3146 -0.0364
26370SOL     OW79687   6.386   9.067   6.889 -0.6440  0.0058 -0.6597
26370SOL    HW179688   6.377   9.115   6.971 -1.2548 -0.3405 -0.5167
26370SOL    HW279689   6.444   9.122   6.836  0.4940 -0.2069  0.3237
26371SOL     OW79690   8.270   0.430   0.505  0.0557 -0.4389 -0.3144
26371SOL    HW179691   8.327   0.453   0.431 -0.8713  0.5973 -0.7281
26371SOL    HW279692   8.196   0.489   0.497 -0.9674 -1.6010  0.3617
26372SOL     OW79693   9.853   0.668   5.052 -0.2429 -0.3674 -0.3574
26372SOL    HW179694   9.835   0.657   4.959 -0.7929  1.4371 -0.4861
26372SOL    HW279695   9.769   0.694   5.091  0.4322  0.9732  0.2675
26373SOL     OW79696   4.946   3.307   2.113 -0.0968 -0.4463 -0.2324
26373SOL    HW179697   4.937   3.267   2.027  0.2649 -1.3068  0.1245
26373SOL    HW279698   4.880   3.264   2.167 -1.1511  0.9320 -0.3594
26374SOL     OW79699   7.338   4.049   0.560 -0.4728 -0.4631 -0.4266
26374SOL    HW179700   7.375   4.058   0.647  0.1984 -0.1462 -0.7333
26374SOL    HW279701   7.336   4.138   0.525 -0.3314 -0.6409 -0.8939
26375SOL     OW79702   2.469   7.310   7.095 -0.0372 -0.8174  0.4450
26375SOL    HW179703   2.546   7.344   7.142  0.0882 -0.8326  0.2497
26375SOL    HW279704   2.504   7.244   7.036 -0.1701 -0.6411  0.1695
26376SOL     OW79705   9.732   9.277   7.250  0.2627  0.7527 -0.5017
26376SOL    HW179706   9.759   9.347   7.190  0.3332  1.1733  0.0042
26376SOL    HW279707   9.766   9.305   7.335  0.7348 -0.1607 -0.3821
26377SOL     OW79708   6.786   0.952   5.726  0.1637  0.1473  0.4900
26377SOL    HW179709   6.756   0.897   5.653 -0.8543 -0.3157  1.2466
26377SOL    HW279710   6.729   0.929   5.799  1.0389  0.7611  1.3891
26378SOL     OW79711   1.720   4.258   6.785 -0.1204 -1.0180 -0.4211
26378SOL    HW179712   1.638   4.224   6.821  0.2840  0.8116  2.6140
26378SOL    HW279713   1.717   4.235   6.692 -3.2713 -2.4552 -0.1032
26379SOL     OW79714   5.564   4.374   9.709  0.1506 -0.0211  0.2123
26379SOL    HW179715   5.579   4.460   9.749  1.1690  0.2187 -0.6546
26379SOL    HW279716   5.634   4.319   9.744  0.5468 -0.0286 -0.5708
26380SOL     OW79717   7.052   9.030   2.568  0.0440 -0.5650  0.1047
26380SOL    HW179718   7.031   9.018   2.660  1.0350  0.4609  0.4902
26380SOL    HW279719   7.134   8.983   2.555 -0.4806 -1.3488 -0.4532
26381SOL     OW79720   4.441   3.848   0.685  0.4672  0.2032  0.2322
26381SOL    HW179721   4.515   3.822   0.740 -0.9791 -3.7946  0.6762
26381SOL    HW279722   4.453   3.799   0.603 -1.3922 -0.2164  0.1592
26382SOL     OW79723   5.612   6.850   7.345 -0.3737  0.9890 -0.0818
26382SOL    HW179724   5.522   6.873   7.367 -0.2729 -0.1827  1.8248
26382SOL    HW279725   5.639   6.791   7.416  1.2812 -0.1377 -1.5770
26383SOL     OW79726   1.954   0.032   9.585 -0.3405 -0.2820 -0.3073
26383SOL    HW179727   2.014   0.094   9.542  0.3701 -0.0273  0.9883
26383SOL    HW279728   1.867   0.068   9.568 -0.0933 -0.2116 -1.5313
26384SOL     OW79729   8.481   7.498   4.752 -0.3256  0.3919  0.4835
26384SOL    HW179730   8.392   7.532   4.741 -0.9535 -1.2430  0.0747
26384SOL    HW279731   8.469   7.417   4.801  0.8581 -0.1718 -0.1147
26385SOL     OW79732   8.108   4.953   0.213  1.0417 -0.1083 -0.3619
26385SOL    HW179733   8.161   5.004   0.151  1.3704  1.7389  1.3024
26385SOL    HW279734   8.146   4.974   0.299 -1.2895 -0.1004  0.7484
26386SOL     OW79735   9.581   5.870   0.777 -0.3262 -0.0640 -0.0969
26386SOL    HW179736   9.527   5.912   0.844 -1.9735  0.3898 -1.6365
26386SOL    HW279737   9.562   5.777   0.786 -0.6341  0.0049 -0.0211
26387SOL     OW79738   8.262   5.530   3.874  0.1542  0.0119  0.6912
26387SOL    HW179739   8.339   5.585   3.857  1.0626 -1.4462 -0.1807
26387SOL    HW279740   8.285   5.445   3.835 -1.9809 -0.4130  0.2568
26388SOL     OW79741   3.727   9.607   3.153  0.5356  0.0362 -0.5212
26388SOL    HW179742   3.638   9.637   3.171  0.4568 -0.7732  0.5556
26388SOL    HW279743   3.783   9.675   3.190  0.3534 -0.8300  1.5342
26389SOL     OW79744   5.094   7.691   7.016 -0.1189 -0.4546 -0.0611
26389SOL    HW179745   5.063   7.775   6.983 -0.8125 -0.5884  0.2393
26389SOL    HW279746   5.132   7.648   6.939 -1.6458 -0.7369 -0.6934
26390SOL     OW79747   7.049   1.384   1.885  0.5206 -0.0989  0.3077
26390SOL    HW179748   6.967   1.335   1.888 -0.1966  0.9212 -1.3500
26390SOL    HW279749   7.062   1.414   1.975 -1.0070 -0.1788  0.5890
26391SOL     OW79750   4.505   7.415   5.936  0.0584  0.9175  0.4879
26391SOL    HW179751   4.528   7.416   6.029  1.4915  0.8320  0.1577
26391SOL    HW279752   4.585   7.388   5.892 -1.2576 -1.6286 -0.6072
26392SOL     OW79753   2.530   8.890   5.383 -0.1170 -0.6029 -0.4767
26392SOL    HW179754   2.439   8.913   5.401  0.0210 -1.1776  1.2045
26392SOL    HW279755   2.528   8.797   5.361  0.2253 -1.1413  1.5564
26393SOL     OW79756   5.878   3.337   9.729  0.0132 -0.3690  0.1550
26393SOL    HW179757   5.910   3.281   9.659  0.8099 -0.2919  0.4487
26393SOL    HW279758   5.838   3.411   9.684  0.5769 -0.2893 -0.2229
26394SOL     OW79759   6.838   6.968   7.830 -0.6149 -0.1431 -0.5716
26394SOL    HW179760   6.858   7.060   7.847  0.8633 -0.7455  1.3927
26394SOL    HW279761   6.889   6.947   7.752  0.5490  0.2574  0.0529
26395SOL     OW79762   3.328   0.173   9.329  0.7581 -0.1722 -0.4994
26395SOL    HW179763   3.260   0.109   9.349  0.2936  0.5818  0.4070
26395SOL    HW279764   3.363   0.145   9.245 -1.4075  0.0182 -1.5371
26396SOL     OW79765   9.478   3.976   2.038 -0.2790  0.5070  0.4847
26396SOL    HW179766   9.495   4.062   2.077 -3.9063  0.9504  1.5061
26396SOL    HW279767   9.439   3.995   1.953  0.9850 -0.2514 -0.2903
26397SOL     OW79768   8.000   4.638   3.814  0.4233 -0.4828  0.3867
26397SOL    HW179769   7.932   4.620   3.880  1.3322 -0.7677  1.2747
26397SOL    HW279770   8.060   4.699   3.858  1.5498 -1.4089  0.1719
26398SOL     OW79771   2.565   0.880   0.302  0.3566 -0.3764 -0.2026
26398SOL    HW179772   2.576   0.953   0.363 -1.4191 -0.4490  0.2483
26398SOL    HW279773   2.634   0.892   0.237  0.7415  1.0971  0.4535
26399SOL     OW79774   1.529   9.054   7.029 -0.7394  0.1673 -0.4801
26399SOL    HW179775   1.581   8.996   6.973  0.2378  1.2287 -0.7135
26399SOL    HW279776   1.573   9.052   7.114  0.6894  2.2522 -1.0819
26400SOL     OW79777   4.766   5.399   5.484  0.0497 -0.1151 -0.4007
26400SOL    HW179778   4.791   5.397   5.391 -0.3362  2.2090 -0.6170
26400SOL    HW279779   4.671   5.408   5.483  0.2353  3.9369 -0.0271
26401SOL     OW79780   3.360   7.532   0.600  0.0860 -0.0928  0.4508
26401SOL    HW179781   3.324   7.588   0.532  0.7200 -0.6644 -0.3736
26401SOL    HW279782   3.397   7.592   0.665 -0.3916  0.4511  0.2211
26402SOL     OW79783   3.817   4.218   6.657  0.2887 -0.2080 -0.0074
26402SOL    HW179784   3.897   4.198   6.707  0.5188 -0.9927 -0.6541
26402SOL    HW279785   3.764   4.139   6.665 -0.6894  0.5233  0.8928
26403SOL     OW79786   8.673   3.305   1.920  0.3233  0.3582 -0.1005
26403SOL    HW179787   8.754   3.352   1.901 -0.0597  1.1375  0.1228
26403SOL    HW279788   8.636   3.285   1.834  0.4846  0.4880 -0.2013
26404SOL     OW79789   5.313   2.979   1.167  0.1459  0.3914 -0.9195
26404SOL    HW179790   5.383   3.001   1.227 -1.0245  1.5601  0.0895
26404SOL    HW279791   5.240   2.953   1.224  0.7514 -4.6564 -1.9086
26405SOL     OW79792   7.799   5.118   1.007 -0.5378  0.5039 -0.6222
26405SOL    HW179793   7.757   5.043   0.965 -1.9146  1.1300 -0.4322
26405SOL    HW279794   7.768   5.194   0.957  0.4074  0.9998 -0.4882
26406SOL     OW79795   2.903   2.671   3.417 -0.6223 -0.2104 -0.4782
26406SOL    HW179796   2.887   2.765   3.429  1.5519 -0.0160  1.4575
26406SOL    HW279797   2.882   2.656   3.325 -3.8256  1.5106 -0.1914
26407SOL     OW79798   1.153   5.096   6.129  1.4290  0.4649  0.0668
26407SOL    HW179799   1.093   5.025   6.152  1.2329 -0.0793 -1.9584
26407SOL    HW279800   1.101   5.176   6.141  0.1129 -0.0119 -1.9892
26408SOL     OW79801   7.039   6.114   4.906  0.4714 -0.1160 -0.0709
26408SOL    HW179802   7.019   6.170   4.831  1.1819 -0.4902 -0.5533
26408SOL    HW279803   7.024   6.170   4.982  0.4948  0.5159 -0.5251
26409SOL     OW79804   4.336   4.054   5.586 -0.3867  0.2722  0.2004
26409SOL    HW179805   4.407   4.111   5.555 -1.0526 -0.0607 -2.0926
26409SOL    HW279806   4.344   3.975   5.533 -1.3864 -0.5120  1.1757
26410SOL     OW79807   5.110   3.434   4.027 -0.1702  0.0225 -0.3016
26410SOL    HW179808   5.168   3.420   4.102  0.5754 -0.3439 -0.9305
26410SOL    HW279809   5.022   3.432   4.065  0.2310  1.6338  0.8335
26411SOL     OW79810   0.654   9.919   7.485  0.1869  0.3654 -0.5893
26411SOL    HW179811   0.572   9.869   7.483  0.4330 -0.0270 -1.4803
26411SOL    HW279812   0.628  10.007   7.512 -0.6358  0.4142 -1.4812
26412SOL     OW79813   9.008   2.209   8.944  0.0757 -0.3917 -0.2654
26412SOL    HW179814   9.042   2.208   9.034 -3.1091  2.0270  1.1770
26412SOL    HW279815   8.941   2.140   8.944 -0.3135 -0.0135 -0.6029
26413SOL     OW79816   2.500   0.664   5.183  0.1545 -0.5131  0.6351
26413SOL    HW179817   2.584   0.624   5.207  0.9436  0.3493 -0.5882
26413SOL    HW279818   2.465   0.606   5.115  0.3485 -0.2314  0.2890
26414SOL     OW79819   2.661   6.996   4.569  0.4327 -0.2659  0.0693
26414SOL    HW179820   2.609   7.053   4.511 -1.0679 -0.6418  0.9928
26414SOL    HW279821   2.608   6.917   4.578  1.6622 -1.0876  0.2541
26415SOL     OW79822   8.109   2.109   5.946 -0.2140 -0.2554  0.1099
26415SOL    HW179823   8.042   2.085   5.881  0.1747  0.1556 -0.4462
26415SOL    HW279824   8.146   2.191   5.913 -0.3977  0.2568  1.1414
26416SOL     OW79825   3.070   6.481   4.809  0.3217  0.4067  0.2261
26416SOL    HW179826   3.064   6.559   4.863 -0.9832  0.7671 -0.3908
26416SOL    HW279827   3.077   6.514   4.719 -2.5984 -0.0669 -0.3064
26417SOL     OW79828   0.204   8.880   7.059 -0.4717  0.4078  0.1060
26417SOL    HW179829   0.257   8.894   7.138 -0.1233  0.7607 -0.1814
26417SOL    HW279830   0.266   8.843   6.996 -0.8260 -0.1757  0.0983
26418SOL     OW79831   2.933   3.415   7.575 -0.0011 -0.0030  0.5482
26418SOL    HW179832   2.956   3.419   7.668  0.2933  0.1991  0.4708
26418SOL    HW279833   2.964   3.329   7.547  0.3910  0.1472  0.5161
26419SOL     OW79834   9.815   2.563   5.702  0.4087 -0.0230 -0.1050
26419SOL    HW179835   9.720   2.568   5.698  0.4891  0.4549 -2.4124
26419SOL    HW279836   9.838   2.607   5.784 -1.3533 -0.7819  0.8544
26420SOL     OW79837   3.910   6.879   5.185  0.5722  0.3933  0.5142
26420SOL    HW179838   3.816   6.866   5.192  0.6263  0.0630  0.6516
26420SOL    HW279839   3.925   6.903   5.093  0.5959 -1.7212 -0.0938
26421SOL     OW79840   4.788   3.366   0.096  0.0951 -0.3678 -0.1504
26421SOL    HW179841   4.831   3.317   0.165 -0.0152 -0.6012 -0.2432
26421SOL    HW279842   4.854   3.374   0.027  0.6042  0.9362  0.4704
26422SOL     OW79843   3.788   0.878   2.880  0.5344 -0.9799 -0.5851
26422SOL    HW179844   3.799   0.930   2.960 -0.5340  0.9905 -1.6383
26422SOL    HW279845   3.859   0.908   2.822  0.0865 -0.8810 -1.0923
26423SOL     OW79846   4.857   9.496   8.358  0.1756  0.2469  0.2362
26423SOL    HW179847   4.832   9.405   8.340  2.5692 -0.4680  0.0422
26423SOL    HW279848   4.835   9.544   8.279 -1.1993 -0.1328  0.3738
26424SOL     OW79849   3.763   7.282   1.936  0.6101  0.8113  0.3727
26424SOL    HW179850   3.819   7.321   1.869 -0.5687 -0.9086 -1.7239
26424SOL    HW279851   3.792   7.191   1.942 -1.3957  0.0773 -0.2309
26425SOL     OW79852   7.739   5.472   8.000 -0.0432  0.2512  0.2988
26425SOL    HW179853   7.654   5.433   7.982 -0.0212  0.2842  0.1232
26425SOL    HW279854   7.779   5.413   8.064  0.1384 -0.2228 -0.2404
26426SOL     OW79855   8.679   1.044   3.021  0.3317  0.2578 -0.0386
26426SOL    HW179856   8.695   0.966   2.967 -1.1887 -1.0098  1.2285
26426SOL    HW279857   8.585   1.041   3.040  0.7308  0.7983  2.3805
26427SOL     OW79858   3.177   2.079   0.770 -0.1882  0.2890 -0.0948
26427SOL    HW179859   3.164   2.059   0.862 -1.1471  0.0822 -0.2612
26427SOL    HW279860   3.198   1.994   0.730 -1.4526  0.0592 -0.3299
26428SOL     OW79861   5.831   4.563   6.352  0.3658  0.0386  0.4352
26428SOL    HW179862   5.873   4.642   6.317  1.8750  0.0167  2.0355
26428SOL    HW279863   5.745   4.593   6.383 -0.3914  0.3489 -1.7847
26429SOL     OW79864   6.767   3.471   3.250 -0.4335  0.7371 -0.1952
26429SOL    HW179865   6.808   3.505   3.171  1.7377  0.0090  0.5584
26429SOL    HW279866   6.705   3.539   3.277 -0.4615  1.4254 -1.9327
26430SOL     OW79867   4.889   6.920   9.439  0.3948 -0.1331  0.5943
26430SOL    HW179868   4.937   6.862   9.499 -1.4417 -1.3801  0.9408
26430SOL    HW279869   4.798   6.916   9.469 -0.1309  1.3636 -0.6434
26431SOL     OW79870   5.006   7.909   8.452  0.7486  0.6382 -0.0495
26431SOL    HW179871   4.957   7.962   8.514  1.4021  0.6330  0.4787
26431SOL    HW279872   5.066   7.858   8.505  0.7072 -0.0222 -0.6188
26432SOL     OW79873   4.880   6.453   2.512 -0.2003 -0.4223 -0.2578
26432SOL    HW179874   4.870   6.495   2.597 -0.0956  0.6048 -0.7358
26432SOL    HW279875   4.862   6.361   2.528  0.0068 -0.2667  0.9104
26433SOL     OW79876   7.628   1.069   2.816 -0.4717  0.6412 -0.0876
26433SOL    HW179877   7.687   1.020   2.873 -1.9238 -0.2121  0.7313
26433SOL    HW279878   7.675   1.075   2.733  0.3511 -0.8689  0.2372
26434SOL     OW79879   8.560   8.081   8.682 -0.0256 -0.0052 -0.2929
26434SOL    HW179880   8.642   8.125   8.707  0.3572 -1.0855  0.4141
26434SOL    HW279881   8.492   8.130   8.729  0.1679  1.0762 -1.1071
26435SOL     OW79882   1.287   0.670   3.715 -0.1659 -0.3994 -0.2824
26435SOL    HW179883   1.302   0.765   3.713  0.2348 -0.4119  1.2303
26435SOL    HW279884   1.296   0.643   3.624  0.1169  0.9513 -0.6860
26436SOL     OW79885   4.724   8.057   5.431  0.1630 -0.4142  0.1725
26436SOL    HW179886   4.685   7.971   5.446 -0.1548 -0.2481  0.3154
26436SOL    HW279887   4.674   8.116   5.488  0.2160 -0.0960 -0.1070
26437SOL     OW79888   3.042   6.918   6.839  0.1708  0.0664 -0.1190
26437SOL    HW179889   3.085   6.958   6.763 -0.3643 -0.2749 -0.6089
26437SOL    HW279890   3.016   6.831   6.809 -1.8906  0.6548 -0.2301
26438SOL     OW79891   8.236   6.618   0.252  0.2136 -0.8439 -0.1577
26438SOL    HW179892   8.186   6.538   0.234  1.3135 -1.1706 -1.9839
26438SOL    HW279893   8.260   6.652   0.165 -0.3414  1.5729  0.5551
26439SOL     OW79894   3.755   0.077   6.633  0.1006 -0.1407 -0.0675
26439SOL    HW179895   3.709  -0.004   6.653  0.3495 -0.9799 -2.4949
26439SOL    HW279896   3.689   0.130   6.586 -0.0573  1.0883  1.4760
26440SOL     OW79897   2.729   2.523   3.114 -0.1299  0.9442 -0.1465
26440SOL    HW179898   2.692   2.611   3.113 -0.7532  0.6811 -0.5930
26440SOL    HW279899   2.656   2.465   3.090  0.2134  0.2840  0.3754
26441SOL     OW79900   8.630   7.839   1.631 -0.4448 -0.7492 -0.4164
26441SOL    HW179901   8.647   7.894   1.707  0.0573 -1.3546 -0.0877
26441SOL    HW279902   8.535   7.843   1.619 -0.4744 -0.2831 -0.0461
26442SOL     OW79903   0.615   0.756   8.652  0.2442 -0.0297  0.6528
26442SOL    HW179904   0.632   0.841   8.693  0.9045 -0.8543  2.1534
26442SOL    HW279905   0.613   0.775   8.558 -0.1158  1.7153  0.9762
26443SOL     OW79906   7.648   7.809   6.114 -0.6804  0.3571  0.4220
26443SOL    HW179907   7.569   7.862   6.100 -0.3203  0.3214 -2.1847
26443SOL    HW279908   7.622   7.720   6.090 -0.4596 -0.1611  1.9347
26444SOL     OW79909   2.283   5.287   2.156 -0.0362  0.3373  0.1214
26444SOL    HW179910   2.274   5.225   2.084 -1.2972 -0.2934  0.8029
26444SOL    HW279911   2.266   5.372   2.117 -1.0261 -0.0326 -0.2672
26445SOL     OW79912   2.455   9.157   3.582  0.8753 -0.3038 -0.5066
26445SOL    HW179913   2.361   9.170   3.566  0.6121  0.8870  1.5479
26445SOL    HW279914   2.496   9.234   3.544  0.6579  0.6058  0.9913
26446SOL     OW79915   2.969   2.420   1.604 -0.1665  0.5402  0.2351
26446SOL    HW179916   2.978   2.514   1.620 -1.0577  0.8522 -0.9477
26446SOL    HW279917   3.058   2.386   1.616  0.2329  1.5785  0.3924
26447SOL     OW79918   4.495   4.173   1.032  0.2554  0.5146  0.5763
26447SOL    HW179919   4.554   4.099   1.045  1.1482  0.8125 -1.3087
26447SOL    HW279920   4.434   4.144   0.965  0.0410  1.1651  0.4816
26448SOL     OW79921   0.929   8.323   1.365 -0.7210 -0.2578 -0.3577
26448SOL    HW179922   0.877   8.243   1.362 -0.7145 -0.3573  1.4341
26448SOL    HW279923   1.009   8.301   1.318 -1.1210 -0.9842 -0.7233
26449SOL     OW79924   1.057   3.225   3.031 -0.0225  0.0965  0.2976
26449SOL    HW179925   0.975   3.275   3.026 -0.2063 -0.1847  0.5151
26449SOL    HW279926   1.112   3.275   3.092  0.7886  1.4609 -1.4582
26450SOL     OW79927   2.807   9.294   9.679  0.0291  0.3450 -0.3702
26450SOL    HW179928   2.737   9.353   9.650 -2.2785 -1.0461  1.9458
26450SOL    HW279929   2.826   9.322   9.769  0.0172 -1.4009  0.2120
26451SOL     OW79930   6.782   3.933   3.262 -0.1358 -0.3247  0.2660
26451SOL    HW179931   6.821   4.013   3.225 -1.3797 -0.3174 -1.1311
26451SOL    HW279932   6.850   3.866   3.251  0.5323  0.3055  0.4826
26452SOL     OW79933   9.322   7.733   8.534  0.3610  0.3117  0.1630
26452SOL    HW179934   9.377   7.761   8.462 -0.3333  0.4016 -0.3403
26452SOL    HW279935   9.236   7.718   8.495 -0.7808  3.0134  1.4230
26453SOL     OW79936   1.982   6.158   4.331 -0.0767 -0.4048  0.0103
26453SOL    HW179937   2.029   6.221   4.385  0.5162 -0.7502 -0.0998
26453SOL    HW279938   2.029   6.076   4.342  0.3023 -0.3987 -1.3237
26454SOL     OW79939   7.491   8.086   5.830  0.0614  0.1992 -0.1822
26454SOL    HW179940   7.565   8.145   5.818 -1.0989  1.9440  0.7519
26454SOL    HW279941   7.488   8.070   5.925 -1.2905  0.9634 -0.0628
26455SOL     OW79942   3.342   0.982   9.366  0.4029  0.0540 -0.1778
26455SOL    HW179943   3.418   0.926   9.379 -0.9957 -2.5187 -1.9936
26455SOL    HW279944   3.347   1.009   9.274 -0.4383  0.5542 -0.0910
26456SOL     OW79945   8.999   1.881   8.696  0.0163 -0.2323 -0.0811
26456SOL    HW179946   8.911   1.899   8.731 -1.3453 -2.5814 -1.9631
26456SOL    HW279947   9.007   1.786   8.700  1.7738 -0.1849 -1.5606
26457SOL     OW79948   3.149   1.381   6.547 -0.1853 -0.0857  0.0985
26457SOL    HW179949   3.236   1.413   6.521 -0.4604  0.6997  0.1268
26457SOL    HW279950   3.092   1.405   6.475 -0.5724  0.3278  0.5348
26458SOL     OW79951   0.528   9.353   6.080  0.0759  0.0959  0.4438
26458SOL    HW179952   0.502   9.405   6.156  0.3680  1.3062 -0.2613
26458SOL    HW279953   0.467   9.278   6.080 -1.4930  1.3223  0.5086
26459SOL     OW79954   8.235   7.407   4.991 -0.1278 -0.0180  0.4385
26459SOL    HW179955   8.287   7.430   5.067  0.8291  0.6186 -0.3774
26459SOL    HW279956   8.237   7.311   4.989  3.3709 -0.0973 -1.0141
26460SOL     OW79957   3.649   6.637   0.148 -0.1803 -0.2050  0.1624
26460SOL    HW179958   3.600   6.593   0.218 -0.6782  0.6263  0.3439
26460SOL    HW279959   3.680   6.565   0.093  2.4703 -1.1179  2.6174
26461SOL     OW79960   9.542   2.746   1.729  0.0364  0.1795 -0.2272
26461SOL    HW179961   9.590   2.769   1.809 -0.0827 -1.8962  0.5160
26461SOL    HW279962   9.606   2.698   1.676  0.2437  1.9047 -1.6302
26462SOL     OW79963   6.685   7.710   9.279  0.1954 -0.2880  0.1208
26462SOL    HW179964   6.668   7.616   9.273  0.6277 -0.4527  1.1982
26462SOL    HW279965   6.695   7.738   9.188  0.9095 -1.4484 -0.1918
26463SOL     OW79966   7.368   8.299   3.749 -0.5283  0.2242 -0.5040
26463SOL    HW179967   7.273   8.311   3.752 -0.2990  2.2968 -0.5789
26463SOL    HW279968   7.387   8.240   3.822 -1.8211  0.1378 -0.2141
26464SOL     OW79969   7.789   9.642   2.518 -0.1303 -0.1371  0.3225
26464SOL    HW179970   7.864   9.685   2.476 -0.9282  0.1329 -0.8958
26464SOL    HW279971   7.750   9.710   2.573  0.2816 -0.1540  0.6345
26465SOL     OW79972   7.956   2.611   5.759  0.2294 -0.4648 -0.3090
26465SOL    HW179973   7.884   2.548   5.763 -0.6321  0.4706 -0.4308
26465SOL    HW279974   7.964   2.633   5.666  1.4820 -1.4256 -0.4581
26466SOL     OW79975   6.610   8.643   8.203  0.1697  0.0866 -0.2421
26466SOL    HW179976   6.519   8.613   8.207 -0.3394  1.5273 -0.4563
26466SOL    HW279977   6.629   8.672   8.293  0.3391  0.0112 -0.2531
26467SOL     OW79978   1.397   0.228   2.316  0.1980  0.8669  0.6736
26467SOL    HW179979   1.306   0.246   2.339 -0.6164 -0.9762 -0.8572
26467SOL    HW279980   1.406   0.257   2.225  0.2801 -1.4785 -0.1337
26468SOL     OW79981   1.792   2.180   7.188 -0.0769 -0.2409 -0.0990
26468SOL    HW179982   1.738   2.109   7.222  0.7996 -0.7603  0.2511
26468SOL    HW279983   1.766   2.257   7.238 -0.5469 -0.4654  0.0030
26469SOL     OW79984   2.259   4.289   0.201 -0.2657 -0.4135  0.4154
26469SOL    HW179985   2.204   4.328   0.269 -3.4253 -2.9991 -0.4085
26469SOL    HW279986   2.253   4.351   0.127 -0.3579  0.3170  1.0178
26470SOL     OW79987   7.199   8.633   5.975  0.1648  0.2841 -0.7488
26470SOL    HW179988   7.246   8.717   5.971 -0.6404  0.7794 -0.1547
26470SOL    HW279989   7.189   8.615   6.068 -0.1697 -0.1880 -0.8735
26471SOL     OW79990   2.773   6.731   1.885  0.2234  0.3235  0.3165
26471SOL    HW179991   2.729   6.705   1.804  2.8903 -0.8143 -0.8904
26471SOL    HW279992   2.817   6.813   1.863  2.6448 -1.0031 -0.1710
26472SOL     OW79993   1.272   5.073   9.903  0.2106 -0.4351  0.1691
26472SOL    HW179994   1.197   5.120   9.938  1.3808  0.5471  1.4759
26472SOL    HW279995   1.286   5.000   9.963  0.7712 -0.1481  0.3971
26473SOL     OW79996   2.033   3.500   6.940  0.4491  0.2829 -0.4197
26473SOL    HW179997   2.106   3.443   6.915 -0.3776 -0.3881 -1.3825
26473SOL    HW279998   1.962   3.475   6.881 -0.2200  1.6996 -0.2632
26474SOL     OW79999   6.862   0.020   9.161  0.0250  0.2125  0.3054
26474SOL    HW180000   6.839   0.110   9.181  0.2983  0.4594 -0.4368
26474SOL    HW280001   6.797  -0.033   9.207 -0.9118  0.8380 -0.2660
26475SOL     OW80002   1.766   6.394   2.857 -0.2103 -0.6850  0.4541
26475SOL    HW180003   1.681   6.430   2.828  0.3834 -0.4464 -1.0743
26475SOL    HW280004   1.749   6.301   2.872 -0.5391 -0.8511 -0.8167
26476SOL     OW80005   6.599   2.738   2.203  0.4216 -0.6889 -0.0636
26476SOL    HW180006   6.629   2.799   2.135  0.8673  1.2829  1.8036
26476SOL    HW280007   6.505   2.731   2.188  0.3975  0.2634 -0.4975
26477SOL     OW80008   2.150   3.895   0.411  0.3468 -0.1638 -0.2613
26477SOL    HW180009   2.181   3.972   0.363  0.0602  0.2071  0.1433
26477SOL    HW280010   2.218   3.878   0.475 -0.0767  0.4102  0.3616
26478SOL     OW80011   2.848   9.733   6.898  0.2414  0.4483 -0.1236
26478SOL    HW180012   2.813   9.644   6.890 -0.0179  0.4822  0.5743
26478SOL    HW280013   2.926   9.722   6.952 -0.8665  0.8855  1.6559
26479SOL     OW80014   1.597   9.737   3.378 -0.6328  0.0238 -0.1831
26479SOL    HW180015   1.669   9.707   3.434 -0.7751 -0.4600 -0.2484
26479SOL    HW280016   1.518   9.722   3.430 -0.5299  3.8485  1.3505
26480SOL     OW80017   1.101   5.698   1.799  0.1376  0.3685 -0.3838
26480SOL    HW180018   1.183   5.660   1.828 -0.1263  0.1494  0.0776
26480SOL    HW280019   1.038   5.675   1.866 -0.2126  0.9030 -0.5190
26481SOL     OW80020   7.429   0.034   4.781  0.5520  0.3078  0.0842
26481SOL    HW180021   7.495   0.034   4.850  0.7067 -4.5226  0.2302
26481SOL    HW280022   7.346   0.051   4.827  1.0772  1.1893  0.7376
26482SOL     OW80023   3.774   5.638   1.725 -0.1636  0.1796  0.1288
26482SOL    HW180024   3.850   5.661   1.671 -0.1691  0.8771  0.4136
26482SOL    HW280025   3.809   5.624   1.812 -0.5067  1.6905  0.5358
26483SOL     OW80026   5.622   9.179   5.369  0.1272  0.3891  0.1359
26483SOL    HW180027   5.548   9.196   5.310  0.8628 -0.2240 -0.9890
26483SOL    HW280028   5.597   9.099   5.416  0.1627  0.0557 -0.4041
26484SOL     OW80029   1.763   4.764   6.708 -0.3879 -0.6740  0.4384
26484SOL    HW180030   1.773   4.828   6.778  1.4127 -1.8075  1.2928
26484SOL    HW280031   1.851   4.730   6.693 -1.0044 -1.6756 -1.2174
26485SOL     OW80032   0.683   8.890   5.828 -0.3577  0.2161  0.3626
26485SOL    HW180033   0.608   8.886   5.888 -1.2695  2.3867 -0.5105
26485SOL    HW280034   0.644   8.882   5.741  0.6692 -0.4695 -0.0414
26486SOL     OW80035   6.850   0.140   8.298 -0.2075 -0.2509  0.0005
26486SOL    HW180036   6.778   0.204   8.299 -0.3371 -0.4007  0.3123
26486SOL    HW280037   6.914   0.175   8.360 -0.1161 -0.2405 -0.0987
26487SOL     OW80038   1.106   4.711   5.835 -0.3076 -0.4185 -0.3695
26487SOL    HW180039   1.127   4.689   5.744  1.1311  0.3914 -0.2586
26487SOL    HW280040   1.140   4.800   5.846 -0.0831 -0.6641  1.0914
26488SOL     OW80041   4.204   7.594   2.573 -0.5608  0.3303 -0.2599
26488SOL    HW180042   4.241   7.657   2.510  1.3037  0.1541  0.6175
26488SOL    HW280043   4.114   7.625   2.587 -0.2414  1.7727 -1.1740
26489SOL     OW80044   2.224   4.282   8.981  0.0138 -0.6331  0.2755
26489SOL    HW180045   2.130   4.284   8.963  0.0144  4.0752 -0.7085
26489SOL    HW280046   2.263   4.265   8.895  0.0810 -1.3230  0.4398
26490SOL     OW80047   6.734   4.748   2.066  0.0793  0.2539  0.0681
26490SOL    HW180048   6.643   4.776   2.073  0.5078  1.8315 -0.1483
26490SOL    HW280049   6.736   4.661   2.105 -1.4928  0.2344  0.1624
26491SOL     OW80050   6.163   6.412   5.401  0.1750 -0.0119  0.9887
26491SOL    HW180051   6.248   6.452   5.383 -0.0189  0.1045  0.2832
26491SOL    HW280052   6.108   6.485   5.428  0.5522 -0.2351  2.4312
26492SOL     OW80053   7.587   5.537   4.489 -0.8665 -0.6725  0.3074
26492SOL    HW180054   7.529   5.481   4.437 -2.0944  1.1290 -0.3529
26492SOL    HW280055   7.566   5.516   4.580 -1.5524 -1.0264  0.0682
26493SOL     OW80056   6.738   4.495   2.221  0.0986  0.0192 -0.1059
26493SOL    HW180057   6.667   4.549   2.256  0.5624  1.8281 -1.7974
26493SOL    HW280058   6.699   4.447   2.148  0.4596  0.5540 -0.6560
26494SOL     OW80059   4.740   1.159   2.580  0.0990  0.4275  0.6200
26494SOL    HW180060   4.806   1.209   2.532 -1.1778  1.1158 -0.4614
26494SOL    HW280061   4.747   1.191   2.670  0.0653  1.7666  0.1684
26495SOL     OW80062   2.864   0.296   9.903  0.0181 -0.0162 -0.0339
26495SOL    HW180063   2.840   0.316   9.993  0.5559  1.0996 -0.1207
26495SOL    HW280064   2.959   0.280   9.906 -0.0967 -0.8359 -0.2734
26496SOL     OW80065   0.481   1.332   5.518  0.7827  0.4113  0.7055
26496SOL    HW180066   0.423   1.266   5.478 -1.9262  1.1528  3.1251
26496SOL    HW280067   0.547   1.280   5.564 -0.4087 -0.6254  1.3118
26497SOL     OW80068   9.162   9.743   2.430  0.2002 -0.1795  0.2258
26497SOL    HW180069   9.192   9.706   2.347  0.2387 -1.4436  0.7657
26497SOL    HW280070   9.131   9.831   2.408 -1.1710 -1.0030 -1.4190
26498SOL     OW80071   2.179   0.703   0.636 -0.8203  0.0742  0.4775
26498SOL    HW180072   2.146   0.730   0.721  0.2509  0.1730  0.8784
26498SOL    HW280073   2.102   0.704   0.578 -1.1497  2.3140  0.8697
26499SOL     OW80074   3.792   5.827   3.547 -0.2663  0.4113  0.0643
26499SOL    HW180075   3.874   5.842   3.499  0.1681 -0.9719  0.3114
26499SOL    HW280076   3.820   5.809   3.637 -0.6155 -1.9765 -0.2213
26500SOL     OW80077   7.193   5.923   3.612  0.5725 -0.6953  0.0253
26500SOL    HW180078   7.160   5.921   3.522 -0.4953  1.6936  0.2897
26500SOL    HW280079   7.150   5.849   3.655 -1.2556 -0.1221 -0.7199
26501SOL     OW80080   4.809   7.865   2.996  0.0612  0.0268 -0.0166
26501SOL    HW180081   4.870   7.933   2.968  0.7673 -1.0960 -1.3344
26501SOL    HW280082   4.741   7.865   2.929 -1.7876  1.6375  1.7148
26502SOL     OW80083   8.281   6.711   0.825  0.1902  0.0697  0.3507
26502SOL    HW180084   8.203   6.657   0.814 -1.6689  2.1375  2.2593
26502SOL    HW280085   8.250   6.801   0.815  2.6065  0.9494 -0.0422
26503SOL     OW80086   1.987   9.212   8.323 -0.2038 -0.2187 -0.2163
26503SOL    HW180087   1.964   9.285   8.265  0.1049  0.5027  0.5368
26503SOL    HW280088   1.976   9.248   8.411  1.5921 -0.5424  0.1809
26504SOL     OW80089   9.844   9.493   6.205  0.3944 -0.0411  0.3622
26504SOL    HW180090   9.870   9.434   6.134 -3.0078 -0.0251 -1.0691
26504SOL    HW280091   9.826   9.576   6.161  1.0017  0.8346  1.7284
26505SOL     OW80092   0.887   8.244   2.609  0.3045  0.5229  1.0350
26505SOL    HW180093   0.978   8.241   2.579  0.1641 -2.5102  0.6572
26505SOL    HW280094   0.893   8.255   2.704  1.4271 -4.3482  1.7835
26506SOL     OW80095   3.206   8.730   1.293 -0.3638  0.0273 -0.0397
26506SOL    HW180096   3.130   8.744   1.238  0.7127 -0.2507 -1.6702
26506SOL    HW280097   3.236   8.642   1.270  2.9368  1.6419 -2.7281
26507SOL     OW80098   8.387   7.835   3.294 -0.0699 -0.0345  0.1123
26507SOL    HW180099   8.326   7.762   3.284 -1.4822  0.9904  0.9447
26507SOL    HW280100   8.466   7.807   3.246 -1.1089 -1.4611 -0.8456
26508SOL     OW80101   6.234   3.310   9.454 -0.0722 -0.2751  0.3689
26508SOL    HW180102   6.265   3.230   9.412 -0.9245 -0.8470  0.8125
26508SOL    HW280103   6.297   3.377   9.426 -0.3243 -0.7301 -1.3952
26509SOL     OW80104   5.363   7.153   6.743  0.7130 -0.2444  0.6664
26509SOL    HW180105   5.366   7.229   6.685 -0.6597 -0.1979  0.6193
26509SOL    HW280106   5.286   7.168   6.798  0.5311 -1.4976  0.7791
26510SOL     OW80107   3.548   5.586   4.150 -0.2698  0.2995  0.3752
26510SOL    HW180108   3.605   5.513   4.173 -0.1668 -0.1558 -1.1636
26510SOL    HW280109   3.583   5.660   4.199  1.1592 -0.1426  0.0908
26511SOL     OW80110   9.854   7.718   0.081 -0.4476  0.0307 -0.6874
26511SOL    HW180111   9.784   7.658   0.106 -0.9817  0.5851 -0.8339
26511SOL    HW280112   9.836   7.740  -0.010  0.5034 -0.6118 -1.0572
26512SOL     OW80113   0.410   2.773   0.966  0.3590 -0.4667 -0.1096
26512SOL    HW180114   0.354   2.706   0.926 -1.1919 -0.0546  1.2877
26512SOL    HW280115   0.447   2.730   1.043  0.4561 -0.1299  0.0332
26513SOL     OW80116   3.364   8.004   2.037 -0.3783 -0.1943 -0.3562
26513SOL    HW180117   3.436   7.941   2.035 -0.3786 -0.2557  0.6938
26513SOL    HW280118   3.408   8.089   2.039 -0.3265 -0.2298  0.2109
26514SOL     OW80119   4.788   9.799   7.912 -0.1910 -0.1419  0.3637
26514SOL    HW180120   4.853   9.758   7.854  0.7729 -0.2071  1.4578
26514SOL    HW280121   4.706   9.792   7.864  0.4401 -0.9114 -0.6521
26515SOL     OW80122   2.808   4.133   7.540 -0.2543 -0.1147  0.5197
26515SOL    HW180123   2.836   4.224   7.538 -2.6200  0.6606 -0.2715
26515SOL    HW280124   2.830   4.103   7.629  3.2101  0.2353 -0.0728
26516SOL     OW80125   6.305   3.173   5.180  0.0130  0.3029  0.5978
26516SOL    HW180126   6.232   3.230   5.155  0.5940  1.4975  1.4710
26516SOL    HW280127   6.265   3.104   5.233 -0.5501  0.6528  0.6360
26517SOL     OW80128   7.530   0.664   1.228 -0.0905  0.1942 -0.3938
26517SOL    HW180129   7.474   0.616   1.288  2.1306  0.4175  2.0087
26517SOL    HW280130   7.543   0.749   1.270  1.4338  0.4138 -1.2428
26518SOL     OW80131   7.354   4.172   2.637 -0.1308 -0.4156 -0.8202
26518SOL    HW180132   7.322   4.160   2.726  2.5430 -0.4767  0.2511
26518SOL    HW280133   7.329   4.262   2.614  0.7230  0.2623  0.7643
26519SOL     OW80134   6.623   1.734   8.380 -0.6709  1.2158  0.6327
26519SOL    HW180135   6.543   1.688   8.353 -0.5507  0.7274  1.0862
26519SOL    HW280136   6.611   1.823   8.348 -0.4896  0.6651 -1.1068
26520SOL     OW80137   0.118   7.822   9.507 -0.0339 -0.0141 -0.1281
26520SOL    HW180138   0.157   7.910   9.511  0.9679 -0.4742  1.1218
26520SOL    HW280139   0.153   7.783   9.427 -0.2355  0.6077 -0.5247
26521SOL     OW80140   9.556   5.680   4.556 -0.2514 -0.0705 -0.4347
26521SOL    HW180141   9.530   5.733   4.481  0.2837 -1.6841 -1.8203
26521SOL    HW280142   9.475   5.641   4.588 -0.8232  2.2926  1.2680
26522SOL     OW80143   8.965   2.983   6.784 -0.4804 -1.0290 -0.3263
26522SOL    HW180144   9.058   2.999   6.799 -0.8148 -0.2565  1.1037
26522SOL    HW280145   8.924   3.068   6.796 -1.5211 -1.6204  0.4449
26523SOL     OW80146   5.275   3.492   3.449 -0.1730  0.9681 -0.0297
26523SOL    HW180147   5.335   3.419   3.458 -0.5950  0.7219  0.9282
26523SOL    HW280148   5.273   3.511   3.355  0.6706  0.3786 -0.1714
26524SOL     OW80149   0.711   1.022   8.675 -0.0978 -0.2175 -0.4276
26524SOL    HW180150   0.786   0.977   8.636 -0.6404 -0.6579 -0.9693
26524SOL    HW280151   0.740   1.113   8.684  1.1379 -0.7072  1.0021
26525SOL     OW80152   1.826   4.927   9.104 -0.1912 -0.5858 -0.4950
26525SOL    HW180153   1.870   4.944   9.187  0.6804  0.4157 -1.1448
26525SOL    HW280154   1.736   4.955   9.118 -0.0310 -0.3561  0.0864
26526SOL     OW80155   3.589   3.551   2.794 -0.0690 -0.3791  0.2888
26526SOL    HW180156   3.556   3.632   2.834  1.6966 -0.6511  2.4559
26526SOL    HW280157   3.680   3.571   2.771 -0.1144 -1.2570 -0.7558
26527SOL     OW80158   6.660   4.083   2.351 -0.5848  0.0779  0.2506
26527SOL    HW180159   6.694   4.169   2.374 -1.3541  0.3034  0.5859
26527SOL    HW280160   6.706   4.023   2.410  0.0192  0.2444 -0.0482
26528SOL     OW80161   4.794   9.799   4.418  0.0405  0.2279  0.2757
26528SOL    HW180162   4.772   9.887   4.386 -2.0274 -0.2007  0.3630
26528SOL    HW280163   4.849   9.761   4.350 -0.2902  1.0698 -0.4767
26529SOL     OW80164   4.103   2.043   5.432  0.5254 -0.1182 -0.4737
26529SOL    HW180165   4.156   1.964   5.434  1.3431  0.4208 -0.0137
26529SOL    HW280166   4.095   2.068   5.524  0.6486  0.5777 -0.6499
26530SOL     OW80167   2.201   4.530   3.730  0.5167  0.0848  0.1208
26530SOL    HW180168   2.286   4.498   3.701 -0.1702 -2.7921  0.8647
26530SOL    HW280169   2.205   4.524   3.826 -1.1422 -2.2778  0.1465
26531SOL     OW80170   1.557   6.857   7.432  0.0431 -0.2622 -0.2705
26531SOL    HW180171   1.518   6.923   7.376 -0.7642 -0.8874 -0.4663
26531SOL    HW280172   1.494   6.845   7.503  0.3262 -0.5953 -0.0701
26532SOL     OW80173   2.993   0.308   4.085 -0.4742  0.0914  0.5320
26532SOL    HW180174   2.943   0.248   4.030  0.7955 -0.8151  0.3134
26532SOL    HW280175   2.986   0.272   4.173 -1.6468  0.9669  0.8284
26533SOL     OW80176   3.563   5.772   7.138 -0.4390  0.2665 -0.6160
26533SOL    HW180177   3.641   5.726   7.169  0.3289  0.9264 -1.4727
26533SOL    HW280178   3.508   5.704   7.099  0.8989  0.0795 -2.3025
26534SOL     OW80179   4.740   1.042   6.067 -0.1159 -0.1396  0.5302
26534SOL    HW180180   4.685   1.076   5.997 -0.5113  1.1647  1.4470
26534SOL    HW280181   4.723   1.098   6.142  1.0802 -0.8521  1.3897
26535SOL     OW80182   3.552   2.637   3.277  0.3476  0.3113  0.4046
26535SOL    HW180183   3.497   2.566   3.243  0.1060  0.6367  0.1173
26535SOL    HW280184   3.632   2.593   3.304  0.7337  0.0913 -1.0012
26536SOL     OW80185   0.661   8.207   7.388 -0.4242 -0.3190  0.2530
26536SOL    HW180186   0.648   8.206   7.293  0.4870  2.8841 -0.0152
26536SOL    HW280187   0.754   8.188   7.400 -0.6683 -1.3714  0.5927
26537SOL     OW80188   3.649   3.036   0.801 -0.8103  0.3370  0.2990
26537SOL    HW180189   3.665   2.941   0.798  0.7877  0.6033 -1.8381
26537SOL    HW280190   3.736   3.075   0.791 -1.7798  1.9312 -4.9957
26538SOL     OW80191   8.719   4.732   6.892 -0.0151 -0.1752 -0.1685
26538SOL    HW180192   8.734   4.646   6.851  0.0967 -0.0716 -0.3455
26538SOL    HW280193   8.646   4.769   6.843 -0.9233 -0.7151  0.7498
26539SOL     OW80194   6.571   3.533   8.457  0.4135  0.2794  0.3613
26539SOL    HW180195   6.531   3.556   8.540 -1.7382 -2.5743  0.2650
26539SOL    HW280196   6.658   3.500   8.480  0.8567  1.9323  1.1424
26540SOL     OW80197   3.627   0.909   5.382  0.1647 -0.3884 -0.3359
26540SOL    HW180198   3.717   0.897   5.413  0.4137  0.5289 -0.6523
26540SOL    HW280199   3.579   0.833   5.415  1.1043 -1.0011 -0.3403
26541SOL     OW80200   9.385   5.681   8.193 -0.0172  0.0381 -0.8482
26541SOL    HW180201   9.337   5.747   8.243 -0.4178 -0.7486 -0.1664
26541SOL    HW280202   9.476   5.710   8.196  0.1682 -0.5429  1.3419
26542SOL     OW80203   6.909   7.021   9.709 -0.3519  0.1732 -0.1771
26542SOL    HW180204   6.815   7.002   9.709 -0.3616 -1.6833  5.1084
26542SOL    HW280205   6.914   7.116   9.723 -1.3532  0.4116 -1.2765
26543SOL     OW80206   5.044   3.028   2.794  0.8325 -0.4617  0.1965
26543SOL    HW180207   5.062   3.067   2.879  2.2937  0.1665 -0.3743
26543SOL    HW280208   5.106   2.955   2.787  0.6629 -0.5646 -0.2886
26544SOL     OW80209   4.751   8.745   1.113  0.1081  0.6674  0.0388
26544SOL    HW180210   4.791   8.830   1.134 -1.2806  0.7461  2.6336
26544SOL    HW280211   4.693   8.764   1.039  2.2400  1.2302 -1.5947
26545SOL     OW80212   2.165   6.357   2.544  0.5433 -0.1261 -0.1091
26545SOL    HW180213   2.134   6.435   2.498 -1.2564 -0.1395  0.9767
26545SOL    HW280214   2.130   6.366   2.632  1.4170 -1.5285  0.4069
26546SOL     OW80215   0.278   3.020   3.226  0.2796  0.2873  0.0476
26546SOL    HW180216   0.230   3.031   3.309  2.4510 -2.4908  1.8309
26546SOL    HW280217   0.246   2.937   3.191  1.2680  0.1509 -0.5519
26547SOL     OW80218   8.957   9.738   3.659  0.0453  0.4224 -0.2881
26547SOL    HW180219   8.970   9.824   3.617 -1.9011 -0.1517 -2.2318
26547SOL    HW280220   8.998   9.676   3.599  0.7132 -0.1059  0.6980
26548SOL     OW80221   1.440   9.076   2.154 -0.0235 -0.0276  0.0334
26548SOL    HW180222   1.432   9.161   2.110  1.0345  0.8789  1.4915
26548SOL    HW280223   1.376   9.080   2.225  0.2863 -0.2800  0.3324
26549SOL     OW80224   4.511   5.175   2.055  0.0903  0.1574 -0.1669
26549SOL    HW180225   4.418   5.160   2.037  0.4849 -0.7525 -1.6140
26549SOL    HW280226   4.513   5.251   2.112 -1.5403  0.2591 -0.2133
26550SOL     OW80227   6.779   7.866   8.645 -0.3243 -0.2878  0.6772
26550SOL    HW180228   6.816   7.780   8.666 -0.4904 -0.8844 -1.3169
26550SOL    HW280229   6.846   7.909   8.592 -0.6161  0.4534  0.8952
26551SOL     OW80230   1.004   4.922   8.145  0.3921  0.0053  0.4781
26551SOL    HW180231   1.025   4.901   8.054  0.0914 -0.3553  0.4896
26551SOL    HW280232   0.970   4.840   8.181 -2.6851  0.9760 -0.0039
26552SOL     OW80233   0.267   2.783   8.357  0.0267  0.1186 -0.2088
26552SOL    HW180234   0.301   2.734   8.433 -0.4454  0.7521  0.4256
26552SOL    HW280235   0.202   2.724   8.318  2.4382 -1.5457 -2.0351
26553SOL     OW80236   1.021   4.719   2.954 -0.3092  0.6884  0.1460
26553SOL    HW180237   1.032   4.787   2.887  2.0440  0.3444  0.0968
26553SOL    HW280238   1.081   4.649   2.928  0.1366  0.2366  2.1994
26554SOL     OW80239   5.407   7.639   7.159  0.5005 -0.3096 -0.2938
26554SOL    HW180240   5.357   7.584   7.220  0.4910 -0.4824 -0.4549
26554SOL    HW280241   5.396   7.728   7.193 -1.5635 -0.0601 -1.4194
26555SOL     OW80242   1.766   4.225   3.722 -0.7784  0.1801  0.1186
26555SOL    HW180243   1.780   4.292   3.654 -1.1924  2.7109  2.3523
26555SOL    HW280244   1.675   4.199   3.711 -0.4015 -0.6248 -1.2583
26556SOL     OW80245   1.198   3.808   5.303 -0.4078 -0.0138 -0.7628
26556SOL    HW180246   1.127   3.748   5.327  0.4180 -1.1372 -1.0701
26556SOL    HW280247   1.156   3.872   5.246 -1.1513 -0.7438 -1.0599
26557SOL     OW80248   2.415   6.704   9.836  0.4275 -0.4430 -0.2902
26557SOL    HW180249   2.396   6.612   9.856 -0.0307 -0.0853  1.0480
26557SOL    HW280250   2.477   6.701   9.763 -1.8795 -1.7519 -2.3554
26558SOL     OW80251   5.512   6.310   6.392 -0.7803  0.2763  0.2722
26558SOL    HW180252   5.597   6.279   6.424 -0.7951  2.6773  2.9900
26558SOL    HW280253   5.449   6.249   6.429 -0.3866 -1.7845 -2.1094
26559SOL     OW80254   3.225   3.579   0.547  0.1165 -0.1930 -0.0618
26559SOL    HW180255   3.168   3.546   0.616  1.0338 -0.7082  0.4735
26559SOL    HW280256   3.169   3.634   0.493 -0.8363 -0.5517  0.5472
26560SOL     OW80257   6.778   2.475   6.931  0.1939 -0.5941 -0.0614
26560SOL    HW180258   6.748   2.562   6.906 -1.3020 -1.6363 -2.3015
26560SOL    HW280259   6.873   2.478   6.923  0.0695  0.5077 -1.3661
26561SOL     OW80260   3.948   7.058   9.746  0.0666  0.4129 -0.4028
26561SOL    HW180261   3.890   7.115   9.795 -0.0349 -0.3733  0.4183
26561SOL    HW280262   3.974   7.110   9.670  1.5102  2.2732  1.2639
26562SOL     OW80263   7.367   5.328   6.911  0.4688 -0.3468  0.0077
26562SOL    HW180264   7.407   5.391   6.971 -0.5932  1.3295 -0.9674
26562SOL    HW280265   7.281   5.311   6.949  0.9942 -1.7962  0.6270
26563SOL     OW80266   0.803   7.181   6.741  0.0283  1.0647  0.3260
26563SOL    HW180267   0.889   7.143   6.725 -0.3569  0.2196  0.2295
26563SOL    HW280268   0.749   7.153   6.667 -0.9102 -0.2559  1.4417
26564SOL     OW80269   7.300   1.341   5.553 -0.3416 -0.1474 -0.1820
26564SOL    HW180270   7.225   1.381   5.597  0.7686  0.3017  1.3745
26564SOL    HW280271   7.283   1.247   5.557 -0.6513 -0.0670  0.4896
26565SOL     OW80272   5.611   1.281   2.678  0.1352 -0.2986 -0.0712
26565SOL    HW180273   5.644   1.292   2.767 -3.0676 -1.2499  1.3941
26565SOL    HW280274   5.614   1.186   2.664 -3.7762 -0.7619  1.0910
26566SOL     OW80275   0.763   0.280   5.158  0.3960 -0.6835 -0.0900
26566SOL    HW180276   0.851   0.310   5.180  1.0923 -3.1820  0.9417
26566SOL    HW280277   0.742   0.324   5.076  1.6109  1.7797  0.8156
26567SOL     OW80278   4.835   7.584   0.613  0.3587  0.2760 -0.3444
26567SOL    HW180279   4.848   7.490   0.627 -0.4078 -0.1992 -2.4563
26567SOL    HW280280   4.751   7.604   0.655  0.8020  0.1808  0.6233
26568SOL     OW80281   3.769   6.297   2.381  0.5126  0.0990  0.2685
26568SOL    HW180282   3.735   6.285   2.469 -0.7425  2.3624  0.1687
26568SOL    HW280283   3.856   6.257   2.383  0.2780 -0.4102  2.3353
26569SOL     OW80284   8.609   5.926   7.880 -0.3432 -0.0510  0.3032
26569SOL    HW180285   8.658   5.972   7.812  0.4706 -0.8879  0.2977
26569SOL    HW280286   8.606   5.986   7.954 -2.1803  1.3204 -0.7954
26570SOL     OW80287   0.777   1.935   2.231 -0.4343  0.0701 -0.1348
26570SOL    HW180288   0.831   2.014   2.233 -2.3776  1.4582  1.8687
26570SOL    HW280289   0.692   1.963   2.264 -0.7638 -3.1684  2.2541
26571SOL     OW80290   2.180   1.290   3.698  0.2337 -0.7429  0.2826
26571SOL    HW180291   2.144   1.376   3.676 -0.5464 -1.1142  0.0946
26571SOL    HW280292   2.205   1.252   3.614 -0.6686 -1.2430  0.2293
26572SOL     OW80293   3.594   8.161   0.749 -0.2514  0.3286 -0.3696
26572SOL    HW180294   3.500   8.155   0.765 -0.2924  3.5577  1.4740
26572SOL    HW280295   3.635   8.126   0.828  0.0799  0.2236 -0.5807
26573SOL     OW80296   8.460   8.328   7.677 -0.0617 -0.1706 -0.1258
26573SOL    HW180297   8.549   8.320   7.711 -0.7108  1.3962  2.1539
26573SOL    HW280298   8.445   8.245   7.630  2.3290 -0.7353 -0.0289
26574SOL     OW80299   4.819   4.816   6.085  0.5263 -0.5784 -0.4578
26574SOL    HW180300   4.911   4.818   6.057 -0.0496  2.4373 -2.5307
26574SOL    HW280301   4.806   4.898   6.132 -0.9275 -1.4491  0.7601
26575SOL     OW80302   7.569   3.480   5.725  0.3299 -0.2286 -0.0031
26575SOL    HW180303   7.539   3.507   5.812  1.2949 -0.3156  0.3744
26575SOL    HW280304   7.592   3.388   5.735  0.4855 -0.2272 -0.3414
26576SOL     OW80305   5.935   4.452   2.630  0.2552 -0.0365  0.0525
26576SOL    HW180306   5.880   4.498   2.567  1.9394  0.8406 -0.8270
26576SOL    HW280307   5.910   4.360   2.620 -0.2971  0.2200 -1.0836
26577SOL     OW80308   1.018   2.230   7.181 -0.2735 -0.0032 -0.0953
26577SOL    HW180309   0.928   2.245   7.211 -0.1044 -0.8443  0.8744
26577SOL    HW280310   1.059   2.316   7.186 -1.2444  0.5779 -1.3873
26578SOL     OW80311   8.234   9.293   1.449 -0.5516  0.3632 -0.2129
26578SOL    HW180312   8.225   9.367   1.388 -0.4133 -0.8849 -1.7897
26578SOL    HW280313   8.154   9.297   1.503 -0.5786  1.5985 -0.3016
26579SOL     OW80314   6.710   4.801   3.163 -0.2214  0.1790 -0.0875
26579SOL    HW180315   6.723   4.896   3.166  0.7226  0.0598  0.1350
26579SOL    HW280316   6.645   4.787   3.095  0.6970  0.8946 -1.1392
26580SOL     OW80317   7.231   1.343   2.647 -0.1609  0.3345  0.2655
26580SOL    HW180318   7.273   1.263   2.614 -0.0592  0.7702 -0.7022
26580SOL    HW280319   7.279   1.364   2.727 -0.2648 -0.6384  0.5907
26581SOL     OW80320   5.324   4.734   1.559 -0.0369  0.0859  0.6006
26581SOL    HW180321   5.260   4.719   1.629  1.0643  1.2325  1.9368
26581SOL    HW280322   5.409   4.732   1.604  0.6883  1.2661 -0.6342
26582SOL     OW80323   5.092   6.276   5.135 -0.1438 -0.0691  0.1571
26582SOL    HW180324   5.018   6.262   5.075  1.2545 -1.4236 -1.3593
26582SOL    HW280325   5.053   6.271   5.222 -1.6504 -2.4435 -0.5357
26583SOL     OW80326   1.579   0.454   9.850  0.5609  0.0184 -0.6121
26583SOL    HW180327   1.611   0.390   9.786 -1.1988 -0.4360 -1.1159
26583SOL    HW280328   1.505   0.497   9.805  1.6142  2.3693 -0.2549
26584SOL     OW80329   1.406   8.075   7.019 -0.5477 -0.0047  0.0615
26584SOL    HW180330   1.453   8.042   7.095  0.3652  1.7490  0.3237
26584SOL    HW280331   1.366   7.998   6.979  0.8761 -1.2745  1.0038
26585SOL     OW80332   0.757   5.842   3.125 -0.3517 -0.6515 -0.0309
26585SOL    HW180333   0.815   5.769   3.101 -0.2607 -0.3087 -0.8709
26585SOL    HW280334   0.814   5.919   3.123 -0.6792 -0.4132 -0.1494
26586SOL     OW80335   0.301   6.227   4.345  0.5743  0.2676  0.3345
26586SOL    HW180336   0.256   6.310   4.358 -0.0033  0.0532 -0.2363
26586SOL    HW280337   0.292   6.209   4.252  0.0090 -0.8120  0.5769
26587SOL     OW80338   8.897   8.133   5.378  0.1279  0.1765 -0.2726
26587SOL    HW180339   8.847   8.182   5.312  0.3505 -0.9162 -1.2852
26587SOL    HW280340   8.985   8.128   5.340 -0.1558 -1.9648 -0.7433
26588SOL     OW80341   7.430   9.357   2.901  0.9247 -0.2844 -0.4436
26588SOL    HW180342   7.508   9.313   2.867  1.1938 -0.6905  0.6802
26588SOL    HW280343   7.440   9.448   2.875  2.4624 -0.0464  0.8526
26589SOL     OW80344   1.310   6.249   5.606  0.3329 -0.2280 -0.3158
26589SOL    HW180345   1.347   6.181   5.662 -0.3623  0.5141  1.0952
26589SOL    HW280346   1.227   6.212   5.576  0.1479 -0.1788  0.1208
26590SOL     OW80347   9.570   0.237   0.156 -0.4411 -0.4658  0.6558
26590SOL    HW180348   9.591   0.310   0.098  1.2322 -1.4671 -0.0929
26590SOL    HW280349   9.633   0.244   0.228 -3.1586  1.3772  3.0779
26591SOL     OW80350   9.122   0.719   0.835  0.6301  0.2728 -0.1773
26591SOL    HW180351   9.100   0.635   0.795  2.7174 -0.0558 -0.7981
26591SOL    HW280352   9.138   0.778   0.761  1.1435  0.6378  0.2127
26592SOL     OW80353   5.731   4.265   5.093  0.3624  0.5389 -0.7521
26592SOL    HW180354   5.791   4.201   5.132 -1.3138 -0.4429  0.3524
26592SOL    HW280355   5.650   4.255   5.143 -0.3524  2.6739 -1.3927
26593SOL     OW80356   8.558   0.235   5.674  0.4534 -0.2387  0.7469
26593SOL    HW180357   8.603   0.280   5.602 -0.3319 -1.7129 -0.7270
26593SOL    HW280358   8.597   0.273   5.753 -0.0107  2.8301 -0.3559
26594SOL     OW80359   9.736   4.701   1.470  0.7295 -0.1523 -0.0644
26594SOL    HW180360   9.806   4.656   1.516  0.7591 -0.1311 -0.0893
26594SOL    HW280361   9.671   4.633   1.452  1.8712 -0.7331 -2.3210
26595SOL     OW80362   0.989   4.340   0.495  0.4228 -0.7014 -0.0386
26595SOL    HW180363   1.042   4.298   0.563  2.8089 -1.4912 -2.2431
26595SOL    HW280364   1.023   4.305   0.413 -2.1011  0.4795 -1.6981
26596SOL     OW80365   2.368   1.818   9.547  0.0718 -0.0409 -0.1807
26596SOL    HW180366   2.303   1.860   9.490  2.1022  1.1112 -1.7710
26596SOL    HW280367   2.379   1.731   9.511  0.6193  0.3421 -0.9555
26597SOL     OW80368   9.557   7.674   7.749  0.4294  0.1129 -0.2401
26597SOL    HW180369   9.559   7.583   7.718  1.4141  0.4491 -1.2256
26597SOL    HW280370   9.629   7.679   7.813  1.3192  0.5326 -1.2402
26598SOL     OW80371   5.485   9.472   5.117 -0.2659  0.0212  0.5099
26598SOL    HW180372   5.433   9.524   5.179  0.9246 -1.4093  2.8702
26598SOL    HW280373   5.453   9.382   5.129  0.4447 -0.3883 -0.5002
26599SOL     OW80374   8.656   4.101   5.599 -0.1495 -0.5452  0.0865
26599SOL    HW180375   8.730   4.080   5.656  0.4228 -0.9219 -0.7606
26599SOL    HW280376   8.693   4.096   5.510 -0.6517  1.4762 -0.2762
26600SOL     OW80377   5.090   3.383   5.106 -0.1461  0.5710  0.0593
26600SOL    HW180378   5.088   3.429   5.190 -0.3930 -0.3797  0.5853
26600SOL    HW280379   5.148   3.436   5.052 -1.2429  2.0962  0.2867
26601SOL     OW80380   0.924   5.915   1.809  0.0042  0.2103  0.4135
26601SOL    HW180381   0.901   5.900   1.900  1.1595 -1.1708  0.4937
26601SOL    HW280382   0.949   5.829   1.775 -2.8348  0.1505 -1.9389
26602SOL     OW80383   4.878   3.834   9.351  0.7073 -0.6562 -0.5054
26602SOL    HW180384   4.811   3.899   9.372  2.2639  0.0270  3.2077
26602SOL    HW280385   4.902   3.853   9.261 -1.4074  1.5841 -0.6967
26603SOL     OW80386   8.810   0.714   8.771 -0.1807  0.0519  0.0387
26603SOL    HW180387   8.903   0.711   8.794 -0.1988  1.1022  0.2815
26603SOL    HW280388   8.789   0.807   8.766 -0.5300 -0.1072 -2.9120
26604SOL     OW80389   0.719   2.840   9.058  0.3239  0.2829  0.0876
26604SOL    HW180390   0.672   2.909   9.010 -0.3474 -0.4807 -0.3635
26604SOL    HW280391   0.694   2.853   9.149 -0.2859  0.2645 -0.0730
26605SOL     OW80392   8.870   1.797   7.400 -0.0133  0.7984 -0.0122
26605SOL    HW180393   8.828   1.850   7.468 -0.6137  0.8286 -0.4044
26605SOL    HW280394   8.842   1.837   7.318 -0.9791 -0.4847 -0.3373
26606SOL     OW80395   2.029   4.102   8.470  0.3360  0.2505  0.2235
26606SOL    HW180396   1.935   4.090   8.487  0.2232  1.6372  0.7037
26606SOL    HW280397   2.072   4.034   8.521 -0.4068 -0.3731  0.0328
26607SOL     OW80398   5.289   1.271   5.368 -0.6067 -0.4463  0.4242
26607SOL    HW180399   5.274   1.278   5.274 -0.9586  1.3587  0.5687
26607SOL    HW280400   5.201   1.266   5.406 -0.4798 -0.7932  0.6713
26608SOL     OW80401   2.830   7.799   3.417 -0.0798 -0.3310  0.6009
26608SOL    HW180402   2.736   7.784   3.404  0.1655 -0.0539 -1.9272
26608SOL    HW280403   2.870   7.714   3.396  0.3510  0.0594 -0.1760
26609SOL     OW80404   4.445   6.591   8.344  0.1268  0.2464 -0.8125
26609SOL    HW180405   4.453   6.587   8.248 -1.3616 -0.0070 -0.9472
26609SOL    HW280406   4.402   6.509   8.369  0.8725  0.1278  0.1253
26610SOL     OW80407   2.864   4.974   7.547  0.4177 -0.2031  0.2417
26610SOL    HW180408   2.912   5.052   7.573  1.0731 -1.6814  4.0145
26610SOL    HW280409   2.859   4.920   7.626 -3.9156 -2.0200 -0.9346
26611SOL     OW80410   6.608   4.527   9.110 -0.4055  0.6487  0.2455
26611SOL    HW180411   6.662   4.524   9.189  0.4427 -0.2290 -0.3365
26611SOL    HW280412   6.521   4.553   9.141 -0.1514  0.0896  1.4934
26612SOL     OW80413   7.638   1.501   7.579  0.0193 -0.3390  0.1464
26612SOL    HW180414   7.657   1.424   7.632  1.9734  0.4355  0.6713
26612SOL    HW280415   7.562   1.541   7.621 -0.0885 -1.1710  0.7572
26613SOL     OW80416   0.492   9.862   5.171 -0.0532  0.6004  0.3067
26613SOL    HW180417   0.561   9.798   5.187  0.5179  1.0310 -0.3628
26613SOL    HW280418   0.519   9.940   5.220  0.3863  1.0520 -0.6224
26614SOL     OW80419   7.101   2.152   8.352 -0.1531 -0.9915 -0.4805
26614SOL    HW180420   7.014   2.129   8.385 -0.0758 -0.8547 -0.1818
26614SOL    HW280421   7.127   2.228   8.404 -0.6596  0.1669 -1.8559
26615SOL     OW80422   9.251   6.625   9.892 -0.3683 -0.8875 -0.1586
26615SOL    HW180423   9.185   6.561   9.918 -0.8013 -0.5416 -0.3986
26615SOL    HW280424   9.211   6.674   9.820  0.9511 -2.0851 -1.7897
26616SOL     OW80425   7.078   7.516   8.348 -0.0364 -0.2584  0.1200
26616SOL    HW180426   7.095   7.467   8.428  1.6246 -1.3545 -0.8456
26616SOL    HW280427   6.990   7.491   8.322 -0.9271  0.7491  2.0109
26617SOL     OW80428   3.836   6.207   3.667  0.6503  0.1523  0.0547
26617SOL    HW180429   3.916   6.193   3.618  0.2459 -0.3818 -0.4669
26617SOL    HW280430   3.765   6.190   3.605  0.1279 -0.0673  0.6882
26618SOL     OW80431   2.034   9.716   8.088 -0.1508 -0.3131 -0.2948
26618SOL    HW180432   2.085   9.645   8.127 -0.3535  0.1725  0.8827
26618SOL    HW280433   1.960   9.728   8.146  0.5092  1.6608  0.2107
26619SOL     OW80434   1.302   0.156   7.363 -0.2047 -0.4798 -0.2837
26619SOL    HW180435   1.289   0.141   7.269 -1.8761 -1.5295  0.0800
26619SOL    HW280436   1.238   0.223   7.386  2.9590  2.9690 -0.6146
26620SOL     OW80437   5.924   1.224   8.610 -0.0484 -0.4198 -0.1771
26620SOL    HW180438   5.953   1.212   8.519  0.0670  1.1022 -0.3651
26620SOL    HW280439   5.853   1.161   8.621 -0.2522 -0.4245 -1.4150
26621SOL     OW80440   6.800   2.755   2.431  0.0536  0.7583 -0.5285
26621SOL    HW180441   6.718   2.728   2.390 -0.6165  1.8209  0.0649
26621SOL    HW280442   6.863   2.687   2.407 -1.5007 -1.2574  0.7673
26622SOL     OW80443   5.335   1.861   5.738  0.6224 -0.2844 -0.0512
26622SOL    HW180444   5.251   1.887   5.775  0.1584 -0.9735 -0.6073
26622SOL    HW280445   5.341   1.767   5.754  0.4609 -0.5840 -1.6017
26623SOL     OW80446   5.584   0.502   5.048  0.5469  0.4831 -0.0694
26623SOL    HW180447   5.678   0.490   5.034  0.2983 -1.0777 -0.4771
26623SOL    HW280448   5.542   0.456   4.975 -0.5399  1.6580 -0.2209
26624SOL     OW80449   1.374   5.807   5.456  0.2017 -0.3835  0.0182
26624SOL    HW180450   1.360   5.765   5.371  0.0027 -1.5722  0.6160
26624SOL    HW280451   1.446   5.868   5.442  0.3374 -0.7579 -0.9353
26625SOL     OW80452   4.565   8.749   6.083  0.0337 -0.6355  0.4014
26625SOL    HW180453   4.628   8.739   6.011  1.1035  0.3777  1.1588
26625SOL    HW280454   4.480   8.754   6.039  0.5749 -0.9243 -0.7294
26626SOL     OW80455   9.916   4.221   6.218 -0.2568  0.4606 -0.3798
26626SOL    HW180456   9.847   4.188   6.275 -0.7482  0.8884 -0.7114
26626SOL    HW280457   9.985   4.248   6.277  0.3868 -1.5859 -0.1007
26627SOL     OW80458   2.044   5.150   8.268  0.3031 -0.2944  0.1167
26627SOL    HW180459   2.102   5.222   8.293  0.1693 -0.0827 -0.1777
26627SOL    HW280460   2.091   5.071   8.294 -0.2361 -0.0650  1.9227
26628SOL     OW80461   8.634   5.437   9.691 -0.6363 -0.8387 -0.0320
26628SOL    HW180462   8.693   5.407   9.621  0.0590 -0.4656  0.3783
26628SOL    HW280463   8.552   5.391   9.675 -1.2000  0.7599 -2.3381
26629SOL     OW80464   6.277   9.336   9.675 -0.5442  0.4890 -0.4975
26629SOL    HW180465   6.308   9.346   9.765 -0.8464  0.0426 -0.3397
26629SOL    HW280466   6.290   9.422   9.635 -2.0830  1.2353  0.5058
26630SOL     OW80467   3.448   7.542   7.079  0.5099 -0.0318 -0.7898
26630SOL    HW180468   3.528   7.512   7.035  0.0971 -1.3128 -0.7332
26630SOL    HW280469   3.472   7.549   7.171  0.5782 -0.3699 -0.7798
26631SOL     OW80470   7.915   7.372   4.251  0.3071 -0.6766 -0.2823
26631SOL    HW180471   7.899   7.360   4.157 -1.3030 -1.6062  0.0644
26631SOL    HW280472   7.989   7.433   4.256 -1.5756  1.9671 -2.1480
26632SOL     OW80473   3.910   9.624   4.274 -0.0407 -0.1207  0.2083
26632SOL    HW180474   3.923   9.671   4.356  0.2072  0.0279  0.0849
26632SOL    HW280475   3.847   9.677   4.226 -0.1732 -0.1991  0.2949
26633SOL     OW80476   1.880   0.363   1.753 -0.0522 -0.0922  0.1290
26633SOL    HW180477   1.801   0.361   1.698  0.2113 -1.2756 -0.2457
26633SOL    HW280478   1.847   0.357   1.842 -0.4018 -1.2427 -0.0498
26634SOL     OW80479   4.709   6.197   6.332 -0.1382 -0.3035  0.1458
26634SOL    HW180480   4.692   6.189   6.426 -2.3571  0.6583 -0.1236
26634SOL    HW280481   4.725   6.107   6.304  2.2185 -0.4414  1.6721
26635SOL     OW80482   2.036   7.476   3.322  0.4010  0.9141  0.1279
26635SOL    HW180483   1.996   7.520   3.247 -0.3927 -0.2919 -0.1905
26635SOL    HW280484   2.087   7.405   3.283  1.1437  1.1472  0.6623
26636SOL     OW80485   2.883   6.892   9.166  0.1451  0.5238 -0.6619
26636SOL    HW180486   2.912   6.983   9.172 -0.1920  0.7108 -1.6451
26636SOL    HW280487   2.788   6.897   9.173  0.0979  0.2894 -1.0778
26637SOL     OW80488   2.542   2.220   7.369  0.0869  0.2916 -0.0122
26637SOL    HW180489   2.452   2.253   7.358  0.0676  0.3689  0.3771
26637SOL    HW280490   2.542   2.136   7.323 -0.2670  0.1537  0.2306
26638SOL     OW80491   1.408   1.941   3.812  0.6640 -0.1460 -0.5241
26638SOL    HW180492   1.344   2.012   3.820 -1.4398 -1.7241 -2.1722
26638SOL    HW280493   1.481   1.979   3.765  0.0831  1.2216 -0.3600
26639SOL     OW80494   6.488   6.576   8.657  0.2371  0.3953  0.1971
26639SOL    HW180495   6.418   6.511   8.657 -0.7393  1.4177  0.2445
26639SOL    HW280496   6.535   6.560   8.739  1.0558 -1.3070 -0.5550
26640SOL     OW80497   7.023   8.817   5.604  0.5521  0.5548  0.1330
26640SOL    HW180498   7.102   8.768   5.627  0.2947 -0.6589 -1.4570
26640SOL    HW280499   6.958   8.750   5.581 -1.6037  1.3811  3.0698
26641SOL     OW80500   1.751   2.273   6.410 -0.3211 -0.3336  0.1732
26641SOL    HW180501   1.806   2.351   6.403 -0.5042 -0.2507 -0.3462
26641SOL    HW280502   1.692   2.278   6.335 -0.4173 -0.9059  0.2063
26642SOL     OW80503   9.630   1.565   2.004  0.6603 -0.0674  0.4279
26642SOL    HW180504   9.602   1.558   1.913  1.3368  0.1916  0.1888
26642SOL    HW280505   9.726   1.570   1.999  0.6513  1.4535  1.0288
26643SOL     OW80506   8.863   5.978   8.300 -0.2637 -0.3649  0.1487
26643SOL    HW180507   8.900   5.954   8.215  2.6591 -0.7470  1.4131
26643SOL    HW280508   8.860   6.074   8.299 -0.1848 -0.3656 -0.3332
26644SOL     OW80509   6.188   5.762   0.631  0.0679 -0.6258  0.4105
26644SOL    HW180510   6.202   5.735   0.722  0.7481 -1.4470  0.0717
26644SOL    HW280511   6.194   5.681   0.581  1.5354  0.0464 -0.5689
26645SOL     OW80512   7.740   7.018   8.478  0.1163 -0.1699  0.0037
26645SOL    HW180513   7.790   7.060   8.548  1.8283 -1.0405 -0.6372
26645SOL    HW280514   7.763   7.067   8.399 -1.6235  0.6651 -0.0352
26646SOL     OW80515   1.400   9.690   8.402  0.0409  0.5078  0.3469
26646SOL    HW180516   1.370   9.669   8.490 -0.9297 -1.0390 -0.3005
26646SOL    HW280517   1.319   9.706   8.353  0.4143 -0.7192 -0.7288
26647SOL     OW80518   6.342   9.049   9.830  0.1222 -0.2207  0.3210
26647SOL    HW180519   6.430   9.053   9.867  0.3427  1.8758 -0.2740
26647SOL    HW280520   6.349   9.094   9.746 -1.5166  0.0234  0.2664
26648SOL     OW80521   4.373   3.822   9.781  0.6614  0.0991 -0.3349
26648SOL    HW180522   4.360   3.727   9.781  1.5266 -0.0395  0.3362
26648SOL    HW280523   4.319   3.854   9.709 -0.8539 -0.7243  0.3989
26649SOL     OW80524   9.459   5.413   4.641 -0.2203  0.2358  0.1403
26649SOL    HW180525   9.530   5.436   4.701  0.7850 -1.0528 -0.5133
26649SOL    HW280526   9.413   5.341   4.686 -0.6975  0.6061  0.2521
26650SOL     OW80527   7.628   0.873   2.245  0.5799  0.1591 -0.2413
26650SOL    HW180528   7.632   0.803   2.180  0.4370 -0.0715 -0.0055
26650SOL    HW280529   7.535   0.879   2.267  0.4151  1.2389 -1.1354
26651SOL     OW80530   9.339   9.017   2.661  0.0407  0.6113 -0.4385
26651SOL    HW180531   9.321   9.097   2.711 -1.4361  0.3464 -0.4805
26651SOL    HW280532   9.309   9.037   2.572  1.8221  0.7742 -1.0384
26652SOL     OW80533   2.116   6.467   5.116 -0.0806 -0.6492  0.3651
26652SOL    HW180534   2.196   6.500   5.076 -0.7160 -0.6729 -0.9965
26652SOL    HW280535   2.143   6.435   5.202  0.7022  2.7449  1.5325
26653SOL     OW80536   8.718   2.564   0.762  0.2001 -0.6739  0.5773
26653SOL    HW180537   8.723   2.543   0.855  0.1450 -0.6394  0.5879
26653SOL    HW280538   8.628   2.544   0.737  0.2637 -0.8511  0.4903
26654SOL     OW80539   1.836   4.222   1.014 -0.6418  0.3612 -0.7380
26654SOL    HW180540   1.837   4.142   1.067  1.9111  0.9036  0.2137
26654SOL    HW280541   1.786   4.285   1.065 -0.4052  0.1166 -0.2009
26655SOL     OW80542   8.057   5.343   3.016  0.2000  0.5318  0.5808
26655SOL    HW180543   7.980   5.327   3.071  0.0625  0.0571  0.2626
26655SOL    HW280544   8.103   5.415   3.058  0.4987 -0.3074  1.7484
26656SOL     OW80545   4.106   5.149   1.623 -0.1273  0.6387 -0.2702
26656SOL    HW180546   4.088   5.084   1.555 -0.0692  1.0971 -0.7343
26656SOL    HW280547   4.065   5.113   1.701  0.5870 -0.3365 -0.3187
26657SOL     OW80548   7.968   5.548   5.930 -0.1771 -0.1463  0.6862
26657SOL    HW180549   7.961   5.454   5.942  0.1868 -0.3875 -0.7958
26657SOL    HW280550   8.008   5.559   5.843 -0.0848  1.3641  0.8824
26658SOL     OW80551   7.017   6.223   3.867  0.5744  0.0045  0.3017
26658SOL    HW180552   7.074   6.150   3.888  1.3709  0.1512 -1.1951
26658SOL    HW280553   6.930   6.184   3.857  0.9010 -0.6643  0.0083
26659SOL     OW80554   1.455   5.844   6.997  0.0106 -0.0327 -0.1801
26659SOL    HW180555   1.429   5.917   7.054 -0.4055 -0.1439 -0.2182
26659SOL    HW280556   1.517   5.882   6.936  0.6736  0.0303  0.5192
26660SOL     OW80557   9.663   0.461   9.980 -0.6090  0.3527 -0.2463
26660SOL    HW180558   9.644   0.460   9.886 -0.8439 -0.8785 -0.2046
26660SOL    HW280559   9.744   0.410   9.989 -1.3360 -0.7361  0.3482
26661SOL     OW80560   0.070   6.615   1.960 -0.1169 -0.0235 -0.1303
26661SOL    HW180561   0.031   6.528   1.967  2.1571 -1.2934 -1.7489
26661SOL    HW280562   0.141   6.614   2.023  0.1613  0.4972 -0.4297
26662SOL     OW80563   0.124   5.140   0.343  0.0253  0.1289 -0.3266
26662SOL    HW180564   0.033   5.156   0.367  0.0989 -1.0575  0.8727
26662SOL    HW280565   0.127   5.154   0.248 -0.9505  2.1082 -0.1302
26663SOL     OW80566   3.056   4.178   2.530  1.0334 -0.1339 -0.0902
26663SOL    HW180567   3.119   4.168   2.459  0.2218 -2.7881 -0.5762
26663SOL    HW280568   3.100   4.139   2.606  0.5591 -0.5998 -0.0527
26664SOL     OW80569   0.625   3.094   3.593 -0.5448 -0.2309  0.1025
26664SOL    HW180570   0.610   3.154   3.520  2.1772  0.1697 -0.2434
26664SOL    HW280571   0.711   3.055   3.574 -0.1671 -0.7842  2.6449
26665SOL     OW80572   5.736   0.249   1.251  0.3874 -0.0023 -0.1053
26665SOL    HW180573   5.772   0.223   1.166 -0.1441 -0.9178 -0.0587
26665SOL    HW280574   5.692   0.171   1.283 -0.3331  0.6559  0.5328
26666SOL     OW80575   8.455   2.114   0.282  0.2499 -0.2898 -0.5256
26666SOL    HW180576   8.469   2.044   0.346  0.9058  0.3753  0.0794
26666SOL    HW280577   8.505   2.188   0.317 -2.2671  1.2366  0.0704
26667SOL     OW80578   0.548   1.192   0.970  0.0297  0.4781 -0.2980
26667SOL    HW180579   0.494   1.125   1.011  0.8252 -0.1244 -0.2134
26667SOL    HW280580   0.509   1.205   0.883 -1.5831  1.6617  0.5598
26668SOL     OW80581   4.239   7.831   3.364 -0.1068  0.4183  0.4947
26668SOL    HW180582   4.271   7.781   3.439  1.3679 -0.0505 -0.4048
26668SOL    HW280583   4.302   7.813   3.294 -1.1211  1.2940 -0.6998
26669SOL     OW80584   8.816   5.919   1.959 -0.1718 -0.1011  0.0588
26669SOL    HW180585   8.810   5.938   2.053 -1.1977 -0.8363  0.1577
26669SOL    HW280586   8.731   5.944   1.924 -0.2265 -0.9644 -0.4595
26670SOL     OW80587   7.872   2.994   1.032 -0.0585  0.3872 -0.1016
26670SOL    HW180588   7.908   3.029   1.113  1.5524 -0.3784 -0.4344
26670SOL    HW280589   7.779   2.981   1.049 -0.2995  2.7823  0.7061
26671SOL     OW80590   0.501   2.722   1.286  0.6861 -0.0362  0.1226
26671SOL    HW180591   0.481   2.660   1.216  0.8307  0.9051 -0.7694
26671SOL    HW280592   0.460   2.804   1.258  1.2237  0.4966  0.8680
26672SOL     OW80593   0.583   8.138   1.912  0.1819  0.3828  0.4830
26672SOL    HW180594   0.549   8.057   1.950  0.8421 -0.5240 -0.7814
26672SOL    HW280595   0.532   8.208   1.954  0.2781 -0.6002  2.3327
26673SOL     OW80596   7.874   4.979   9.288 -0.0701 -0.5298 -0.3809
26673SOL    HW180597   7.921   4.902   9.321 -0.9647 -0.9344 -0.0340
26673SOL    HW280598   7.839   4.952   9.203 -0.4650 -0.5331 -0.2163
26674SOL     OW80599   5.967   0.307   5.536  0.5067  0.1321 -0.8160
26674SOL    HW180600   5.985   0.387   5.486  2.1175 -0.1098 -0.6786
26674SOL    HW280601   5.887   0.327   5.585  0.3792  1.3297 -1.4667
26675SOL     OW80602   3.184   5.068   9.528  0.1064  0.1060  0.5855
26675SOL    HW180603   3.264   5.028   9.492  0.8147  1.1679  0.9330
26675SOL    HW280604   3.168   5.143   9.471  0.7482  1.3055  1.9468
26676SOL     OW80605   7.530   8.649   7.663 -0.0957  0.4401 -0.0465
26676SOL    HW180606   7.584   8.650   7.742  0.8039 -2.9566 -0.4541
26676SOL    HW280607   7.443   8.624   7.693 -0.9040  3.2877  0.2715
26677SOL     OW80608   5.915   5.269   5.584 -0.3735 -0.2524 -0.0697
26677SOL    HW180609   5.985   5.319   5.626 -0.3995 -0.0787 -0.2269
26677SOL    HW280610   5.853   5.250   5.654  0.2343 -1.1277  0.2368
26678SOL     OW80611   3.154   0.257   0.530  0.6724  0.6138  0.6537
26678SOL    HW180612   3.078   0.299   0.489  0.6269  0.3021  0.4194
26678SOL    HW280613   3.194   0.327   0.581 -0.5004  0.4874  1.8200
26679SOL     OW80614   8.415   7.426   6.021 -0.3870 -0.1025  0.3457
26679SOL    HW180615   8.449   7.514   6.036  0.5395 -0.1531 -1.2763
26679SOL    HW280616   8.431   7.380   6.103  3.8482 -0.2058 -0.3226
26680SOL     OW80617   4.938   6.842   6.275 -0.3983  0.0322  0.2844
26680SOL    HW180618   4.987   6.918   6.306 -0.8670  0.6797 -0.5108
26680SOL    HW280619   4.913   6.795   6.355 -0.3041  0.8401  0.8020
26681SOL     OW80620   3.815   2.956   2.041 -0.0708 -0.3865 -0.0527
26681SOL    HW180621   3.722   2.946   2.061  0.0968 -1.0046  0.4317
26681SOL    HW280622   3.832   3.049   2.059 -0.4554 -0.4049  0.4644
26682SOL     OW80623   9.382   3.945   6.001 -0.2851  0.0531 -0.0615
26682SOL    HW180624   9.305   3.962   6.055 -0.5137 -0.8127 -0.1001
26682SOL    HW280625   9.373   3.853   5.975  0.5962  0.0349 -0.3261
26683SOL     OW80626   4.417   6.755   0.048  0.2323  0.3307  0.0989
26683SOL    HW180627   4.339   6.725   0.095 -1.8963  1.9703 -2.0840
26683SOL    HW280628   4.438   6.840   0.088  0.9242 -0.1069  0.6803
26684SOL     OW80629   7.632   3.437   0.430 -0.0115 -0.2605  0.1462
26684SOL    HW180630   7.613   3.469   0.342 -1.6759  0.1003  0.5990
26684SOL    HW280631   7.549   3.444   0.477  0.9855  0.2319  1.9598
26685SOL     OW80632   2.512   1.053   7.357 -0.2215  0.5619  0.1931
26685SOL    HW180633   2.420   1.035   7.375  0.0471  0.7868  2.0342
26685SOL    HW280634   2.546   1.090   7.439  1.7609 -0.5432 -0.0548
26686SOL     OW80635   8.490   2.941   4.205  0.1697  0.0469 -0.2026
26686SOL    HW180636   8.435   2.868   4.179  0.0482 -0.1097  0.4771
26686SOL    HW280637   8.540   2.909   4.280 -0.6931  0.9919  0.8193
26687SOL     OW80638   1.531   1.272   7.306  0.7840 -0.2347 -0.1447
26687SOL    HW180639   1.563   1.183   7.320 -0.3347 -0.5164  0.9075
26687SOL    HW280640   1.523   1.280   7.211  0.5387 -1.4029 -0.2469
26688SOL     OW80641   7.480   8.625   7.030  0.6910  0.2217  0.6216
26688SOL    HW180642   7.566   8.593   7.056  1.4784  0.6119 -1.2896
26688SOL    HW280643   7.457   8.690   7.097  1.5205 -0.4410  1.5792
26689SOL     OW80644   7.733   7.131   8.907 -0.1491 -0.1232  0.1653
26689SOL    HW180645   7.651   7.165   8.944 -0.6182 -0.2953 -0.6681
26689SOL    HW280646   7.794   7.205   8.912 -0.8853  0.5892 -0.7774
26690SOL     OW80647   3.181   8.652   8.685  0.3571 -0.4055 -0.5549
26690SOL    HW180648   3.196   8.746   8.676 -0.4127 -0.2574 -0.3721
26690SOL    HW280649   3.254   8.620   8.738 -0.2215  0.3720  0.7547
26691SOL     OW80650   2.495   0.796   3.851  0.5849 -0.3142 -0.3177
26691SOL    HW180651   2.496   0.770   3.943  0.2238  1.0125  0.0837
26691SOL    HW280652   2.538   0.882   3.850 -0.8627  0.4366 -1.1354
26692SOL     OW80653   3.700   6.844   8.224 -0.2690 -0.5334 -0.0613
26692SOL    HW180654   3.666   6.884   8.304  1.9700 -0.4232  0.9116
26692SOL    HW280655   3.678   6.752   8.232 -0.7628 -0.3919  0.2860
26693SOL     OW80656   1.420   5.191   8.350 -0.1096  0.3328 -0.0472
26693SOL    HW180657   1.397   5.276   8.311  1.5318  0.5415 -0.6308
26693SOL    HW280658   1.362   5.129   8.306 -2.4261  1.2771  1.4880
26694SOL     OW80659   5.918   8.852   1.969  0.3627  0.1676  0.1733
26694SOL    HW180660   5.949   8.848   2.059 -0.3104 -1.0774  0.3683
26694SOL    HW280661   5.989   8.812   1.918 -0.2274 -1.2566  0.4366
26695SOL     OW80662   1.440   7.627   1.746  0.2133 -0.1185 -0.1287
26695SOL    HW180663   1.345   7.624   1.762  0.7093 -0.0062  4.1412
26695SOL    HW280664   1.465   7.716   1.770  1.5369 -0.5456  0.1233
26696SOL     OW80665   6.914   4.759   7.358  0.1087 -0.2477 -0.4052
26696SOL    HW180666   6.822   4.783   7.370 -0.4462 -1.9333 -0.9294
26696SOL    HW280667   6.929   4.769   7.265 -0.2019 -1.9817 -0.6763
26697SOL     OW80668   0.833   7.248   8.286 -0.3698 -0.4675  0.6043
26697SOL    HW180669   0.903   7.188   8.261 -0.9566  0.0730 -2.8357
26697SOL    HW280670   0.758   7.191   8.304 -0.1461 -0.8934  0.2098
26698SOL     OW80671   0.067   3.846   7.476  0.4136 -0.0473 -0.0076
26698SOL    HW180672   0.012   3.924   7.467 -1.3174 -1.1005  0.9675
26698SOL    HW280673   0.027   3.796   7.548  2.5659 -0.9524  0.6560
26699SOL     OW80674   7.263   1.762   3.478  0.3038  0.5524 -0.1166
26699SOL    HW180675   7.278   1.848   3.439  0.1517  0.7274  0.2040
26699SOL    HW280676   7.179   1.733   3.444  0.3858  0.5007 -0.2756
26700SOL     OW80677   9.716   1.438   2.525  0.0970 -0.5821 -0.2698
26700SOL    HW180678   9.637   1.492   2.529  1.5935  1.9082 -1.5243
26700SOL    HW280679   9.768   1.465   2.601  2.3140  2.4602 -2.6074
26701SOL     OW80680   2.324   6.059   2.001  0.0863 -0.9546 -0.3803
26701SOL    HW180681   2.351   5.971   1.976  1.2277 -0.5729 -0.5292
26701SOL    HW280682   2.244   6.074   1.950  0.8865 -1.2123 -1.7656
26702SOL     OW80683   4.919   3.865   7.319  0.2888  0.2583  0.2380
26702SOL    HW180684   4.856   3.933   7.294  0.1257 -0.0559 -0.2248
26702SOL    HW280685   4.905   3.853   7.413 -0.8444 -0.3003  0.0154
26703SOL     OW80686   5.423   0.013   9.474 -0.3212  0.3787 -0.3986
26703SOL    HW180687   5.353   0.058   9.426 -0.0099  1.0054 -0.2687
26703SOL    HW280688   5.382  -0.068   9.504 -0.7056  0.2678 -1.1756
26704SOL     OW80689   6.475   3.310   9.986  0.0069 -0.4232 -0.1929
26704SOL    HW180690   6.500   3.373   9.918 -0.2587  0.0879  0.1725
26704SOL    HW280691   6.550   3.251   9.992  0.3980  0.0458 -0.3321
26705SOL     OW80692   1.581   2.019   7.268  0.8717 -0.5551 -0.5179
26705SOL    HW180693   1.503   1.981   7.226 -0.5251  1.4164  0.1337
26705SOL    HW280694   1.605   1.955   7.335 -2.2690  0.1812  1.5281
26706SOL     OW80695   0.115   6.011   5.085  0.0102  0.3360  0.1076
26706SOL    HW180696   0.055   5.949   5.127  0.3029 -0.6197 -0.8380
26706SOL    HW280697   0.201   5.971   5.095  0.2000  0.5674 -0.5517
26707SOL     OW80698   6.843   1.314   2.746  0.1211  0.6405 -0.1326
26707SOL    HW180699   6.831   1.291   2.838 -0.0453 -0.7058 -0.4679
26707SOL    HW280700   6.778   1.383   2.730 -0.6914  0.0260  0.4538
26708SOL     OW80701   3.522   4.600   2.691 -0.0863  0.2915 -0.7094
26708SOL    HW180702   3.502   4.513   2.724 -1.0997  0.3967 -1.0002
26708SOL    HW280703   3.595   4.630   2.745 -1.7511  0.5120  1.5742
26709SOL     OW80704   6.265   0.413   0.060 -0.0460  0.0666  0.2581
26709SOL    HW180705   6.270   0.413   0.156  1.5694  0.5428  0.1998
26709SOL    HW280706   6.331   0.477   0.032  0.1225 -0.6962 -1.1918
26710SOL     OW80707   9.794   1.506   7.914  0.7974 -0.2382  0.3098
26710SOL    HW180708   9.779   1.559   7.992  1.6689  0.2011  0.1974
26710SOL    HW280709   9.839   1.565   7.853 -2.6356  0.4630 -1.8284
26711SOL     OW80710   3.055   9.339   9.531  0.0833 -0.2506 -0.0689
26711SOL    HW180711   3.075   9.421   9.487  0.3080  0.4387  1.2652
26711SOL    HW280712   2.968   9.353   9.569  0.3029 -0.4503  0.5246
26712SOL     OW80713   2.035   5.465   6.927 -0.3551 -0.3803  0.5828
26712SOL    HW180714   1.962   5.508   6.973 -0.7274 -0.6772  0.2786
26712SOL    HW280715   2.101   5.451   6.995  0.3025  1.7756  0.4575
26713SOL     OW80716   3.051   5.461   4.678 -0.0454  0.1099  0.3501
26713SOL    HW180717   3.095   5.407   4.744 -0.8683 -1.0336 -0.0048
26713SOL    HW280718   2.973   5.494   4.723  0.2014  0.6356  0.4115
26714SOL     OW80719   4.921   2.163   4.874  0.2525 -0.2245  0.3601
26714SOL    HW180720   4.869   2.150   4.953  0.0854 -0.2992  0.2398
26714SOL    HW280721   4.864   2.132   4.803  0.3719 -0.0902  0.2045
26715SOL     OW80722   7.742   7.669   8.006 -0.0754 -0.2235 -0.1649
26715SOL    HW180723   7.661   7.699   8.047  0.5998  1.7352 -0.1663
26715SOL    HW280724   7.811   7.691   8.068  0.4286 -2.6530  0.2202
26716SOL     OW80725   7.308   9.173   1.614 -0.2055  0.8474  0.0102
26716SOL    HW180726   7.248   9.105   1.583  2.1498 -0.2849 -2.4667
26716SOL    HW280727   7.306   9.165   1.709 -1.1534 -1.6592 -0.1403
26717SOL     OW80728   5.530   7.564   3.152 -0.2068 -0.1340 -0.6108
26717SOL    HW180729   5.556   7.642   3.200 -2.1993  1.7575 -2.4158
26717SOL    HW280730   5.461   7.524   3.205  0.5503 -0.4979  0.1238
26718SOL     OW80731   6.477   2.665   4.720 -0.2011 -0.2923  0.2433
26718SOL    HW180732   6.520   2.675   4.804 -0.4756  0.4331  0.3104
26718SOL    HW280733   6.532   2.715   4.659  0.6220 -1.7389 -0.2475
26719SOL     OW80734   8.389   8.274   0.660  0.3465 -0.0451  0.0118
26719SOL    HW180735   8.337   8.307   0.733  0.1479  0.2679 -0.2654
26719SOL    HW280736   8.325   8.262   0.589  0.5134 -0.4784 -0.0661
26720SOL     OW80737   2.800   8.809   8.673  0.0037  0.2779  0.0756
26720SOL    HW180738   2.868   8.822   8.607  0.6579  1.1540  0.8812
26720SOL    HW280739   2.745   8.739   8.638  2.2643 -1.6371  0.1293
26721SOL     OW80740   8.193   9.478   4.574 -0.3399 -0.1773  0.3861
26721SOL    HW180741   8.151   9.394   4.554  1.1234 -0.7450 -0.4550
26721SOL    HW280742   8.265   9.456   4.633  0.3310  0.4065 -0.1888
26722SOL     OW80743   2.573   8.114   2.544 -0.0764  0.1556 -0.7438
26722SOL    HW180744   2.617   8.149   2.622 -0.2672 -1.1398 -0.0350
26722SOL    HW280745   2.481   8.108   2.569  0.1803 -2.4875 -0.1779
26723SOL     OW80746   5.275   3.518   4.540  0.0755 -0.6060  0.4617
26723SOL    HW180747   5.234   3.551   4.460  0.8872 -0.7144 -0.0007
26723SOL    HW280748   5.315   3.435   4.515 -1.5615 -1.8039  1.5114
26724SOL     OW80749   9.594   3.374   0.364  0.5903 -0.5886 -0.0715
26724SOL    HW180750   9.563   3.436   0.299  2.2147 -0.3428 -0.6561
26724SOL    HW280751   9.687   3.394   0.375  0.3794 -0.5587  2.3924
26725SOL     OW80752   8.368   5.021   1.272  0.3345  0.3044  0.5220
26725SOL    HW180753   8.411   5.022   1.358  0.3203  0.1642  0.5323
26725SOL    HW280754   8.370   4.928   1.246 -0.1273  0.2705  0.6039
26726SOL     OW80755   4.146   8.544   1.274  0.0399 -0.5903 -0.5123
26726SOL    HW180756   4.211   8.584   1.332 -1.1701 -1.8245  1.8437
26726SOL    HW280757   4.177   8.454   1.262 -0.4237 -0.7366 -0.6352
26727SOL     OW80758   3.639   0.375   3.894 -0.1715  0.2740 -0.1536
26727SOL    HW180759   3.710   0.439   3.883  1.5631 -1.0265  2.6161
26727SOL    HW280760   3.605   0.362   3.805  2.4966  1.5735 -1.4664
26728SOL     OW80761   8.042   5.078   4.973  0.0378 -0.2164  0.1266
26728SOL    HW180762   7.953   5.109   4.991 -0.7776 -3.0412  1.4509
26728SOL    HW280763   8.039   5.048   4.882 -0.0328  0.6057 -0.1553
26729SOL     OW80764   5.011   8.931   4.694  0.1654  0.0666  0.9907
26729SOL    HW180765   5.004   8.878   4.774 -0.7434 -0.3846  0.6254
26729SOL    HW280766   5.081   8.889   4.644 -1.2984 -1.5341  0.1869
26730SOL     OW80767   8.455   6.563   8.565  0.9778 -0.5616  0.6693
26730SOL    HW180768   8.435   6.577   8.658 -1.3408  0.1551  0.1293
26730SOL    HW280769   8.512   6.636   8.542  0.5208 -0.0078  1.2435
26731SOL     OW80770   1.690   6.768   3.751  0.2970 -0.1455 -0.0580
26731SOL    HW180771   1.752   6.821   3.700  0.1809  1.1642  1.0791
26731SOL    HW280772   1.745   6.707   3.799  0.4039 -1.4491 -1.7433
26732SOL     OW80773   3.240   0.684   8.807  0.2848  0.4281 -0.1094
26732SOL    HW180774   3.254   0.673   8.901  0.9278  1.4140 -0.0704
26732SOL    HW280775   3.327   0.682   8.769  0.0422  0.2331 -0.6639
26733SOL     OW80776   1.281   6.261   9.590 -0.1157  0.0581 -0.0998
26733SOL    HW180777   1.220   6.326   9.625  0.5464 -0.0775  1.3628
26733SOL    HW280778   1.240   6.177   9.609  0.3654 -0.0233  0.6057
26734SOL     OW80779   2.278   4.856   5.127 -0.2389 -0.0982 -0.6251
26734SOL    HW180780   2.192   4.872   5.167 -0.0630 -0.9072  0.0939
26734SOL    HW280781   2.264   4.875   5.034 -0.5825  2.0789 -0.1954
26735SOL     OW80782   4.491   6.828   8.482  0.3664  0.2925  0.4794
26735SOL    HW180783   4.496   6.741   8.443  0.0377  1.0090 -1.2517
26735SOL    HW280784   4.411   6.825   8.535 -0.3120 -0.0946 -0.5442
26736SOL     OW80785   3.543   0.909   8.479 -0.2880 -0.2590 -0.1877
26736SOL    HW180786   3.582   0.992   8.453  0.6511 -1.1670 -1.8513
26736SOL    HW280787   3.591   0.884   8.559 -0.2986  0.5960  0.0883
26737SOL     OW80788   3.713   3.177   6.046  0.0083 -0.2520 -0.5291
26737SOL    HW180789   3.670   3.207   6.126 -2.3095  2.4547 -2.5891
26737SOL    HW280790   3.648   3.121   6.003  0.1238  0.5140 -1.7508
26738SOL     OW80791   9.209   0.562   7.066 -0.3009 -0.2367 -0.2269
26738SOL    HW180792   9.116   0.545   7.049 -0.5943 -0.1571  1.1998
26738SOL    HW280793   9.213   0.655   7.086  0.0453 -0.2993 -0.0026
26739SOL     OW80794   3.633   9.910   9.414 -0.1925  0.4212 -0.4971
26739SOL    HW180795   3.637   9.829   9.463  1.5306  0.2162 -0.9263
26739SOL    HW280796   3.642   9.979   9.480  1.4222  0.1636 -0.4105
26740SOL     OW80797   0.664   2.567   7.282  0.0724 -0.3815 -0.0013
26740SOL    HW180798   0.688   2.609   7.200 -0.4203  0.3034  0.1897
26740SOL    HW280799   0.659   2.639   7.345  2.0642 -1.0854  1.0416
26741SOL     OW80800   2.346   3.485   5.435  0.1084 -0.2262 -0.1964
26741SOL    HW180801   2.364   3.434   5.514 -0.7422 -0.7716 -0.3391
26741SOL    HW280802   2.313   3.569   5.467  1.9578  0.4686  0.0520
26742SOL     OW80803   5.763   8.525   8.699 -0.1745 -0.5741  0.1995
26742SOL    HW180804   5.782   8.609   8.657 -0.0776 -0.4403  0.5109
26742SOL    HW280805   5.807   8.460   8.644 -1.1819 -0.5371 -0.6902
26743SOL     OW80806   3.124   2.764   0.455 -0.1843 -0.0005  0.4842
26743SOL    HW180807   3.178   2.837   0.424  0.0477 -0.1776  0.4689
26743SOL    HW280808   3.161   2.687   0.412 -1.2069  0.0293 -0.4918
26744SOL     OW80809   7.339   4.545   1.588 -0.3798 -0.6973 -0.6760
26744SOL    HW180810   7.421   4.555   1.636 -0.9089 -0.9213  0.2989
26744SOL    HW280811   7.278   4.508   1.652 -1.4952  0.3008 -1.1310
26745SOL     OW80812   8.694   1.837   9.244  0.0653  0.1818 -0.2517
26745SOL    HW180813   8.682   1.747   9.272  0.0056 -0.0701 -1.0788
26745SOL    HW280814   8.630   1.887   9.295  0.6538 -0.1165  0.8005
26746SOL     OW80815   8.990   9.763   6.358 -0.8055 -0.2179 -0.3567
26746SOL    HW180816   8.968   9.833   6.296 -2.7447  0.2734  0.7733
26746SOL    HW280817   9.052   9.804   6.419  0.4115 -0.4353 -1.4095
26747SOL     OW80818   8.845   7.003   6.048 -0.4200  0.1646 -0.0829
26747SOL    HW180819   8.886   6.941   5.989  0.7178  0.4704  0.3574
26747SOL    HW280820   8.763   6.962   6.073  0.2831 -1.1461  0.1562
26748SOL     OW80821   8.387   4.569   0.390  0.5621  0.2713  0.3202
26748SOL    HW180822   8.306   4.518   0.383  0.6769  0.2332 -0.9971
26748SOL    HW280823   8.387   4.625   0.312  1.4547  0.7901  0.6755
26749SOL     OW80824   9.348   1.678   4.603 -0.2723 -0.5655 -0.5003
26749SOL    HW180825   9.428   1.683   4.655 -0.7516 -1.2304  0.3168
26749SOL    HW280826   9.379   1.672   4.512  0.5496  1.7128 -0.4285
26750SOL     OW80827   3.179   1.873   8.410  0.7543 -0.0398  0.2413
26750SOL    HW180828   3.175   1.864   8.505  2.7533 -0.2848  0.3404
26750SOL    HW280829   3.196   1.966   8.397 -1.2455  0.3469 -0.0018
26751SOL     OW80830   7.524   7.577   3.566  0.0456 -0.1514  0.0824
26751SOL    HW180831   7.567   7.621   3.492  1.2500  0.5477  1.1550
26751SOL    HW280832   7.519   7.485   3.540 -0.7970  0.2893 -1.4220
26752SOL     OW80833   9.575   6.264   6.049  0.1656 -0.5664  0.6399
26752SOL    HW180834   9.556   6.343   6.100 -0.3183 -0.6769  0.6376
26752SOL    HW280835   9.578   6.193   6.113 -2.7258 -1.0970  0.3325
26753SOL     OW80836   1.700   5.165   9.641 -0.3226 -0.5636 -0.1884
26753SOL    HW180837   1.618   5.213   9.638  1.6477  3.6446  2.9026
26753SOL    HW280838   1.763   5.222   9.597  1.5351 -2.1056  0.3479
26754SOL     OW80839   7.366   3.284   8.474  0.4054 -0.0012  0.0375
26754SOL    HW180840   7.406   3.205   8.510 -1.2262 -1.0667 -0.3872
26754SOL    HW280841   7.378   3.276   8.379  0.1455  0.1888 -0.0143
26755SOL     OW80842   1.650   4.332   3.965  0.3528 -0.0185  0.1764
26755SOL    HW180843   1.698   4.284   4.033  0.5171 -1.5097 -0.9412
26755SOL    HW280844   1.691   4.305   3.883  0.1908  1.7855 -0.5401
26756SOL     OW80845   9.647   0.436   4.073  0.1161  0.3934 -0.5687
26756SOL    HW180846   9.658   0.363   4.134  0.4495  1.0549  0.1702
26756SOL    HW280847   9.577   0.488   4.111 -1.9719 -0.8799 -2.4247
26757SOL     OW80848   8.619   4.182   8.944  0.0980 -0.0744 -0.5265
26757SOL    HW180849   8.577   4.128   8.877 -0.1790  2.8726 -2.8931
26757SOL    HW280850   8.712   4.171   8.929  0.0977 -1.1487  0.1360
26758SOL     OW80851   0.843   8.614   0.223  0.5530  0.0557 -0.0977
26758SOL    HW180852   0.894   8.689   0.192  1.7196  0.4982  2.6395
26758SOL    HW280853   0.908   8.545   0.236  0.6002  0.5511  3.2226
26759SOL     OW80854   0.587   6.220   7.457  0.4644  0.0195  0.0398
26759SOL    HW180855   0.598   6.132   7.494  1.0182 -0.4861 -1.3029
26759SOL    HW280856   0.671   6.263   7.471  0.8618 -0.3631 -1.0982
26760SOL     OW80857   1.917   2.221   4.013  0.7719 -0.1133 -0.4454
26760SOL    HW180858   1.891   2.197   3.924 -0.5340 -0.5729  0.0530
26760SOL    HW280859   1.952   2.310   4.004 -1.4525  0.7513 -1.0869
26761SOL     OW80860   2.055   9.595   6.183  0.0802 -0.2707 -0.0372
26761SOL    HW180861   1.963   9.578   6.203 -0.1068  1.4361  0.7118
26761SOL    HW280862   2.069   9.554   6.098 -1.4410 -0.3574 -0.2779
26762SOL     OW80863   8.525   4.978   3.197  0.0520 -0.3586  0.3435
26762SOL    HW180864   8.572   4.901   3.230  0.6838  0.6925  2.0272
26762SOL    HW280865   8.442   4.943   3.164  0.5603 -1.8309  0.5324
26763SOL     OW80866   7.742   0.985   6.196 -0.1867  0.1776  0.0643
26763SOL    HW180867   7.682   1.047   6.153  0.8715  0.3630 -1.2108
26763SOL    HW280868   7.806   1.041   6.240 -0.3472 -0.0169  0.5446
26764SOL     OW80869   8.020   3.606   9.374 -0.2874 -0.0242 -0.0080
26764SOL    HW180870   7.998   3.645   9.289 -0.8356 -0.1086  0.0913
26764SOL    HW280871   8.087   3.664   9.410  0.6323 -0.5042 -0.8956
26765SOL     OW80872   0.562   6.816   5.671  0.2887  0.3375  0.2271
26765SOL    HW180873   0.591   6.900   5.705  0.9621 -0.2635  1.1947
26765SOL    HW280874   0.598   6.812   5.582  0.6657  0.8505  0.3561
26766SOL     OW80875   2.199   0.342   4.953 -0.5322 -0.4573 -0.1676
26766SOL    HW180876   2.231   0.263   4.908  1.1105  0.6324 -1.0243
26766SOL    HW280877   2.122   0.369   4.903  0.6580  0.1448 -1.7500
26767SOL     OW80878   6.614   1.329   0.619  0.6342 -0.1027 -0.3955
26767SOL    HW180879   6.575   1.243   0.602 -0.3434  0.5746 -1.7891
26767SOL    HW280880   6.661   1.349   0.538  0.9815  0.6118 -0.0186
26768SOL     OW80881   2.230   4.496   7.361 -0.1628 -0.5679  0.6386
26768SOL    HW180882   2.299   4.435   7.385  0.0426 -1.1418 -1.2361
26768SOL    HW280883   2.161   4.441   7.323 -0.4460  0.2561 -0.0849
26769SOL     OW80884   8.789   2.700   9.389 -0.6098  0.0154 -0.3231
26769SOL    HW180885   8.746   2.786   9.394 -0.8554 -0.0924 -0.5754
26769SOL    HW280886   8.780   2.664   9.477 -1.8391 -0.3897 -0.6030
26770SOL     OW80887   1.066   8.409   0.270 -0.0359 -0.2465 -0.0191
26770SOL    HW180888   1.088   8.415   0.363 -1.0653 -0.5175  0.2494
26770SOL    HW280889   1.135   8.458   0.226  0.8140 -0.6515  0.8338
26771SOL     OW80890   9.114   5.611   0.471 -0.4570 -0.1405  0.1190
26771SOL    HW180891   9.165   5.668   0.528 -2.2489  0.4698  1.1952
26771SOL    HW280892   9.126   5.648   0.383  0.3747  0.3998  0.4493
26772SOL     OW80893   0.248   8.560   7.785  0.0650 -0.3036 -0.0955
26772SOL    HW180894   0.335   8.594   7.805 -0.3320  0.7762 -0.1323
26772SOL    HW280895   0.251   8.469   7.813  1.2539 -0.3294 -0.2484
26773SOL     OW80896   9.927   0.648   8.705  0.0978 -0.5851 -0.0307
26773SOL    HW180897   9.888   0.653   8.792  0.1057 -0.6697 -0.0228
26773SOL    HW280898  10.012   0.607   8.719 -0.1128 -1.0693 -0.1487
26774SOL     OW80899   1.101   0.471   7.777  0.2748 -0.0779 -0.2670
26774SOL    HW180900   1.013   0.486   7.745  0.8656  0.2778 -1.7923
26774SOL    HW280901   1.151   0.445   7.700  1.1357 -1.9917  0.8624
26775SOL     OW80902   6.744   0.931   6.414 -0.2735 -0.4237  0.1549
26775SOL    HW180903   6.748   1.004   6.476 -1.4017 -0.1736 -0.0321
26775SOL    HW280904   6.835   0.914   6.391  0.1462 -0.2602  1.5758
26776SOL     OW80905   0.597   9.079   6.585  0.0681  0.7409 -0.9174
26776SOL    HW180906   0.538   9.046   6.653 -0.8064 -1.0360 -2.4767
26776SOL    HW280907   0.613   9.170   6.610 -1.7652  0.7013  0.6172
26777SOL     OW80908   7.549   5.952   2.358 -0.2710 -0.0700  0.1134
26777SOL    HW180909   7.553   6.021   2.292  0.6368 -0.2392 -0.0132
26777SOL    HW280910   7.461   5.961   2.396 -0.6879  0.2251 -0.8912
26778SOL     OW80911   7.848   0.627   7.543 -0.7761  0.1662 -0.0127
26778SOL    HW180912   7.891   0.544   7.566 -0.1246  0.4543 -0.1850
26778SOL    HW280913   7.831   0.620   7.449 -1.7921 -0.2512  0.1829
26779SOL     OW80914   4.168   3.733   8.942 -0.4788 -0.3229  0.1546
26779SOL    HW180915   4.207   3.683   8.871 -1.2072 -0.8518  0.1143
26779SOL    HW280916   4.240   3.747   9.004 -0.1141 -0.8585 -0.1442
26780SOL     OW80917   3.994   4.796   2.711 -0.2413 -0.0185  0.0399
26780SOL    HW180918   3.958   4.735   2.775  0.5299  1.5388  2.0942
26780SOL    HW280919   3.967   4.761   2.626 -2.3088 -1.5686  1.2349
26781SOL     OW80920   9.069   3.279   5.138  0.6648  0.3224  0.3716
26781SOL    HW180921   9.003   3.341   5.106  1.0028  0.3179 -0.3480
26781SOL    HW280922   9.031   3.243   5.218 -0.2224  0.2984 -0.0478
26782SOL     OW80923   8.931   7.816   6.501 -0.1848  0.7518  0.5046
26782SOL    HW180924   9.010   7.774   6.467  0.2347  1.9652 -0.0941
26782SOL    HW280925   8.923   7.785   6.591 -0.6063 -1.5497 -0.2695
26783SOL     OW80926   9.682   7.966   3.519  0.0109  0.2373 -0.0519
26783SOL    HW180927   9.757   7.907   3.518  0.0580  0.2653  1.0486
26783SOL    HW280928   9.632   7.941   3.596 -0.8530  0.5559 -0.4864
26784SOL     OW80929   3.331   0.493   3.364  0.5380  0.1516 -0.0628
26784SOL    HW180930   3.321   0.580   3.404  0.0654 -0.6458  1.6642
26784SOL    HW280931   3.248   0.449   3.382  0.7025 -0.6115 -1.0894
26785SOL     OW80932   6.460   1.199   1.927 -0.6182  0.0157 -0.5197
26785SOL    HW180933   6.461   1.281   1.879 -1.7394 -0.3122 -1.1413
26785SOL    HW280934   6.546   1.194   1.969 -0.0916  0.9194 -1.4510
26786SOL     OW80935   5.852   2.835   7.525 -0.3486  0.2587  0.0132
26786SOL    HW180936   5.774   2.780   7.518  0.6900 -1.3687  0.6249
26786SOL    HW280937   5.873   2.835   7.619  0.9365 -0.1666 -0.2501
26787SOL     OW80938   3.078   1.780   4.664 -0.4579 -0.0914 -0.6375
26787SOL    HW180939   3.153   1.732   4.697 -0.5912 -0.0032 -0.1928
26787SOL    HW280940   3.110   1.868   4.648 -0.3232 -0.2073 -1.0267
26788SOL     OW80941   2.795   6.988   6.926 -0.0615 -0.9444  0.0039
26788SOL    HW180942   2.882   6.975   6.888 -1.0224 -2.3699 -1.7953
26788SOL    HW280943   2.760   6.900   6.937 -2.0445 -0.3500 -1.1722
26789SOL     OW80944   8.379   6.196   2.502  0.2668  0.3798 -0.3984
26789SOL    HW180945   8.288   6.187   2.473  0.4768 -1.3949 -0.6081
26789SOL    HW280946   8.378   6.167   2.593  0.9945 -2.0539 -1.0968
26790SOL     OW80947   9.831   4.869   4.199  0.5249  0.0402 -0.4291
26790SOL    HW180948   9.838   4.782   4.239  0.8736  0.1276 -0.2893
26790SOL    HW280949   9.915   4.881   4.154  0.6975  0.5144 -0.0018
26791SOL     OW80950   0.583   3.675   0.784  0.4561 -0.0902 -0.1211
26791SOL    HW180951   0.499   3.710   0.813  0.8892  0.9035 -0.0189
26791SOL    HW280952   0.568   3.652   0.692  0.1933  0.5163 -0.2373
26792SOL     OW80953   1.103   9.828   8.992  0.2924  0.3068 -0.7360
26792SOL    HW180954   1.151   9.897   8.946  0.7948  1.1600  0.9778
26792SOL    HW280955   1.087   9.761   8.926  1.3378  1.2966 -2.0344
26793SOL     OW80956   3.865   2.136   7.813  0.5414  0.6563  0.2600
26793SOL    HW180957   3.843   2.133   7.720  1.3500  2.0322 -0.0026
26793SOL    HW280958   3.849   2.047   7.844  1.9794 -0.3075 -1.5850
26794SOL     OW80959   9.000   8.129   0.513 -0.7688  0.2273  0.3006
26794SOL    HW180960   9.077   8.183   0.531  0.0956 -1.7984  3.5239
26794SOL    HW280961   8.928   8.191   0.506  0.7477  2.0092 -0.2172
26795SOL     OW80962   8.511   5.999   3.983  0.0267 -0.0451 -0.3338
26795SOL    HW180963   8.474   6.075   4.027  0.8076  0.5829 -0.7450
26795SOL    HW280964   8.526   6.028   3.893 -0.2222 -0.8720 -0.6497
26796SOL     OW80965   7.261   3.735   3.725  0.0067 -0.0290  0.4004
26796SOL    HW180966   7.311   3.814   3.707  0.0839  0.0261  0.8381
26796SOL    HW280967   7.225   3.709   3.640  2.1154 -0.9955 -0.2918
26797SOL     OW80968   5.148   1.376   3.384 -0.7397 -0.1799  0.6818
26797SOL    HW180969   5.112   1.341   3.466 -0.0645 -0.6047  0.8048
26797SOL    HW280970   5.136   1.471   3.391  1.3579  0.0358  2.3071
26798SOL     OW80971   0.130   1.384   1.033  0.2301 -0.0549 -0.4098
26798SOL    HW180972   0.133   1.477   1.011  2.7220  0.0517  0.1256
26798SOL    HW280973   0.107   1.383   1.126 -2.1252 -0.1407 -0.9339
26799SOL     OW80974   1.343   3.480   1.455 -0.3673  0.2672 -0.4498
26799SOL    HW180975   1.274   3.539   1.426  0.9108  2.1001  0.0814
26799SOL    HW280976   1.321   3.460   1.546 -0.7387 -0.0146 -0.5965
26800SOL     OW80977   1.423   8.323   1.620  0.3148  0.6443 -0.0322
26800SOL    HW180978   1.389   8.360   1.701 -0.5458 -0.2232  0.0163
26800SOL    HW280979   1.346   8.290   1.574  0.9892 -0.5442 -0.3540
26801SOL     OW80980   0.928   5.909   9.573  0.0426 -0.3356 -0.1731
26801SOL    HW180981   0.931   6.001   9.596 -0.8980 -0.3120 -0.1041
26801SOL    HW280982   1.017   5.889   9.542  0.4887  0.3643  0.6184
26802SOL     OW80983   3.625   8.130   3.126 -0.0834 -0.1380  0.1170
26802SOL    HW180984   3.697   8.193   3.132 -0.6579  0.5741 -0.3506
26802SOL    HW280985   3.587   8.144   3.040 -2.6765  1.6112  1.4305
26803SOL     OW80986   4.236   6.471   2.892  0.5162 -0.2364 -0.0052
26803SOL    HW180987   4.327   6.495   2.903  0.7710 -0.0488 -2.0489
26803SOL    HW280988   4.217   6.411   2.964  1.9094  0.5767  1.0730
26804SOL     OW80989   7.379   0.619   8.737  0.5879  0.5329 -0.0624
26804SOL    HW180990   7.394   0.598   8.645 -1.1589  1.0035 -0.4885
26804SOL    HW280991   7.333   0.543   8.773 -2.1407  1.7909 -0.6026
26805SOL     OW80992   9.634   3.489   1.369 -0.0250 -0.1864  0.2521
26805SOL    HW180993   9.592   3.407   1.393 -2.4971  0.3823 -1.7303
26805SOL    HW280994   9.599   3.553   1.431  0.8321 -0.3713  0.9329
26806SOL     OW80995   4.109   6.816   9.332  0.3975 -0.0247  0.4539
26806SOL    HW180996   4.087   6.723   9.335  0.9018 -0.1674  3.9894
26806SOL    HW280997   4.027   6.861   9.351  0.4265  0.1655  0.1222
26807SOL     OW80998   1.166   8.017   3.874  0.1978 -0.0630  0.4384
26807SOL    HW180999   1.179   8.111   3.860  0.4593 -0.2589 -0.7116
26807SOL    HW281000   1.253   7.979   3.861  0.1623 -0.4303  1.2439
26808SOL     OW81001   6.607   9.377   9.650 -0.2472  0.2722 -0.5011
26808SOL    HW181002   6.567   9.462   9.669  0.0300  0.5228 -1.0005
26808SOL    HW281003   6.598   9.328   9.731 -0.3883  0.7892 -0.1949
26809SOL     OW81004   8.151   5.945   4.111  0.7388  0.3825  0.2381
26809SOL    HW181005   8.161   5.943   4.016 -0.5178  1.0466  0.0741
26809SOL    HW281006   8.175   5.857   4.139 -0.6333 -0.4059 -0.9028
26810SOL     OW81007   7.701   9.566   6.381  0.3838  0.0468  0.3026
26810SOL    HW181008   7.646   9.488   6.385  1.2600 -0.5779  0.5428
26810SOL    HW281009   7.774   9.546   6.440 -0.1215  1.6477  1.5292
26811SOL     OW81010   5.836   1.968   3.005 -0.0676  0.5380  0.2878
26811SOL    HW181011   5.891   2.002   2.935 -0.3192 -1.2789 -0.8751
26811SOL    HW281012   5.896   1.920   3.062  0.1333  1.9924  1.3676
26812SOL     OW81013   2.869   3.622   3.128 -0.1488 -0.0036 -0.8555
26812SOL    HW181014   2.827   3.554   3.076 -0.8337  1.1252 -1.8142
26812SOL    HW281015   2.801   3.652   3.188  0.0504  0.0785 -0.6702
26813SOL     OW81016   0.909   8.315   8.094 -0.2863 -0.7608 -0.0785
26813SOL    HW181017   0.853   8.387   8.066 -1.3194 -1.4477  0.1253
26813SOL    HW281018   0.889   8.303   8.187  2.2444  0.7399  0.7561
26814SOL     OW81019   7.155   2.740   3.444 -0.3687 -1.1199  0.4449
26814SOL    HW181020   7.071   2.726   3.400 -0.4503 -0.8683  0.5188
26814SOL    HW281021   7.221   2.721   3.376 -0.5052  0.5213 -0.2013
26815SOL     OW81022   7.892   5.346   4.580  0.0476 -0.2021  0.2089
26815SOL    HW181023   7.851   5.337   4.666 -0.7096  0.2881 -0.0959
26815SOL    HW281024   7.924   5.436   4.577  1.2131 -0.5900  0.4620
26816SOL     OW81025   7.616   2.514   8.948 -0.6617 -0.4556  0.2435
26816SOL    HW181026   7.603   2.588   9.007 -0.5901 -0.2631  0.0189
26816SOL    HW281027   7.673   2.454   8.997  1.1677  0.6584 -0.4339
26817SOL     OW81028   3.566   1.515   8.802 -0.3132 -0.2752  1.1190
26817SOL    HW181029   3.564   1.424   8.772 -2.2709 -0.5678  1.9550
26817SOL    HW281030   3.659   1.536   8.810  0.2471 -2.8859  2.8450
26818SOL     OW81031   3.213   5.737   8.503 -0.6378 -0.6202 -0.1691
26818SOL    HW181032   3.262   5.818   8.485 -0.4932 -0.6202  0.2037
26818SOL    HW281033   3.269   5.667   8.469 -0.2242 -0.6438  0.5203
26819SOL     OW81034   9.356   4.044   3.937 -0.6818 -0.0066 -0.0102
26819SOL    HW181035   9.271   4.074   3.905  0.8252  4.1864 -0.7425
26819SOL    HW281036   9.419   4.082   3.875  1.9189  0.9674  2.9542
26820SOL     OW81037   9.918   1.540   8.470 -0.4797  0.3491  0.1608
26820SOL    HW181038   9.877   1.624   8.448  0.1371  0.1465 -2.0224
26820SOL    HW281039   9.895   1.483   8.397 -0.0546 -1.1067  1.1299
26821SOL     OW81040   4.278   4.881   0.478  0.2421  0.3142  0.5354
26821SOL    HW181041   4.207   4.823   0.449  1.2939 -0.6351 -0.1985
26821SOL    HW281042   4.273   4.878   0.574  1.5260 -2.6728  0.6219
26822SOL     OW81043   1.247   0.897   7.344 -0.0926 -0.1055 -0.1245
26822SOL    HW181044   1.235   0.802   7.341  0.1180 -0.1363 -0.0330
26822SOL    HW281045   1.334   0.911   7.306 -0.6886  0.1699 -1.4388
26823SOL     OW81046   9.042   1.499   7.990  0.0355 -0.0166 -0.6326
26823SOL    HW181047   8.996   1.424   7.951 -1.3352  0.1662  0.5789
26823SOL    HW281048   9.088   1.540   7.917 -2.3817  0.2711 -2.0706
26824SOL     OW81049   1.422   2.568   1.787  0.7301  0.4632  0.6033
26824SOL    HW181050   1.360   2.534   1.722  1.4397  0.8759 -0.3186
26824SOL    HW281051   1.401   2.521   1.867 -1.6455  1.5025  0.6858
26825SOL     OW81052   8.961   5.859   9.339 -0.0601 -0.4350  0.0577
26825SOL    HW181053   8.960   5.949   9.372  0.2316 -0.6501  0.6656
26825SOL    HW281054   9.048   5.849   9.301 -0.2691 -0.3038 -0.4646
26826SOL     OW81055   4.184   8.888   2.912  0.3772 -0.9072 -0.5547
26826SOL    HW181056   4.270   8.929   2.912  0.1231 -0.2170 -3.0164
26826SOL    HW281057   4.131   8.942   2.971  1.3453 -0.7721  0.2210
26827SOL     OW81058   8.355   2.033   1.000 -0.3788 -0.5687 -0.0419
26827SOL    HW181059   8.411   2.059   0.927 -1.1316  0.0229 -0.4125
26827SOL    HW281060   8.410   1.972   1.051  0.0645 -1.1842 -1.2186
26828SOL     OW81061   0.156   9.696   8.251 -0.6263 -0.3420 -0.5347
26828SOL    HW181062   0.167   9.603   8.269 -0.4010  0.0409  1.4639
26828SOL    HW281063   0.111   9.731   8.327 -0.4464  1.2479 -1.1123
26829SOL     OW81064   3.590   9.794   6.651  0.6828 -0.1506  0.3776
26829SOL    HW181065   3.554   9.705   6.651 -1.5096  0.6899 -0.1199
26829SOL    HW281066   3.642   9.799   6.571  0.9940 -1.0299  0.5101
26830SOL     OW81067   7.307   5.019   4.694 -0.6600  0.1824 -0.1850
26830SOL    HW181068   7.375   5.010   4.627 -1.1784  0.0053 -0.6924
26830SOL    HW281069   7.355   5.042   4.773 -0.1539  1.6847 -0.8927
26831SOL     OW81070   7.299   0.414   8.474 -0.0455  0.3043  0.5054
26831SOL    HW181071   7.228   0.457   8.520  1.7430  2.2945  1.5630
26831SOL    HW281072   7.290   0.442   8.383 -0.6002  0.5251  0.6291
26832SOL     OW81073   9.836   2.672   6.882 -0.2063 -0.5131  0.0160
26832SOL    HW181074   9.783   2.748   6.904 -1.1226 -1.2555  0.4562
26832SOL    HW281075   9.881   2.649   6.964  0.5193 -0.1081 -0.2620
26833SOL     OW81076   8.767   1.242   7.534 -0.1290  0.1449 -0.1767
26833SOL    HW181077   8.766   1.300   7.458 -1.3555  1.3231  0.6905
26833SOL    HW281078   8.690   1.186   7.523 -0.0793  0.0422 -0.0124
26834SOL     OW81079   4.224   7.094   8.829 -0.1001  0.1655  0.1920
26834SOL    HW181080   4.145   7.109   8.882 -1.7201 -2.4514 -1.2774
26834SOL    HW281081   4.277   7.034   8.882  0.4659  1.1612  0.7662
26835SOL     OW81082   8.693   1.864   9.544  0.2650  0.2909 -0.2705
26835SOL    HW181083   8.687   1.880   9.639  0.4747  1.0595 -0.3820
26835SOL    HW281084   8.686   1.768   9.536  0.7313  0.1772  0.5544
26836SOL     OW81085   3.830   2.713   7.527 -0.1046  0.0019  0.1763
26836SOL    HW181086   3.813   2.662   7.447 -1.1046 -1.0215  1.0022
26836SOL    HW281087   3.900   2.666   7.571  0.8683  0.9056 -0.3581
26837SOL     OW81088   2.022   9.712   7.813  0.1705  0.5672 -0.2997
26837SOL    HW181089   2.024   9.804   7.785 -1.1576  0.9748  0.8488
26837SOL    HW281090   2.010   9.716   7.908 -1.1762 -0.7866 -0.3779
26838SOL     OW81091   2.032   1.102   4.674 -0.5121  0.1501  0.3981
26838SOL    HW181092   2.124   1.089   4.698 -0.3616  0.5295  0.0471
26838SOL    HW281093   2.010   1.027   4.620 -0.4824 -0.0687  0.6882
26839SOL     OW81094   7.346   3.098   0.653  0.7935  0.2961 -0.3840
26839SOL    HW181095   7.425   3.064   0.610  1.1270  1.1825 -0.5038
26839SOL    HW281096   7.318   3.171   0.597 -0.1878 -0.0915 -0.4066
26840SOL     OW81097   2.067   1.193   9.438  0.0661 -0.6861  0.1962
26840SOL    HW181098   2.033   1.275   9.400  1.0442  0.0263  0.7945
26840SOL    HW281099   2.040   1.196   9.529 -0.2089 -1.2194  0.1328
26841SOL     OW81100   6.313   1.337   8.289 -0.5498 -0.1137  0.0322
26841SOL    HW181101   6.336   1.254   8.248 -0.2946  0.2108 -0.5117
26841SOL    HW281102   6.238   1.369   8.238 -1.4043 -0.5674  0.9948
26842SOL     OW81103   1.935   3.500   3.564 -0.1376 -0.1620  0.3384
26842SOL    HW181104   1.956   3.545   3.483 -0.1168 -0.9854 -0.1229
26842SOL    HW281105   1.894   3.418   3.537 -1.5477  0.2244  1.1788
26843SOL     OW81106   0.106   6.032   3.034  0.7030  0.6275 -0.0552
26843SOL    HW181107   0.111   6.037   2.939  1.2009  1.9337  0.0180
26843SOL    HW281108   0.022   6.074   3.056  0.2523 -0.3083  0.0536
26844SOL     OW81109   8.334   8.032   3.706 -0.1764 -0.0347 -0.5736
26844SOL    HW181110   8.398   7.989   3.649  0.8273 -2.7546  2.2740
26844SOL    HW281111   8.373   8.117   3.726  0.9907 -0.3461 -1.4127
26845SOL     OW81112   9.950   4.723   0.354 -0.3855  0.8158 -0.7282
26845SOL    HW181113   9.913   4.781   0.421  0.1716  1.6265 -1.1126
26845SOL    HW281114   9.873   4.690   0.307 -0.8646 -0.5297  0.8844
26846SOL     OW81115   1.987   6.566   4.401  0.4127 -0.1049 -0.7635
26846SOL    HW181116   2.048   6.492   4.393 -0.2986 -0.7702 -0.1940
26846SOL    HW281117   2.022   6.632   4.341  1.1632 -0.8358 -1.1584
26847SOL     OW81118   9.448   3.662   3.531  0.1384 -0.0137 -0.2245
26847SOL    HW181119   9.379   3.599   3.510 -0.9242  1.4821 -1.3919
26847SOL    HW281120   9.430   3.738   3.476  2.8556  0.3723 -0.7178
26848SOL     OW81121   7.925   1.717   6.825 -0.7548  0.5053 -0.4071
26848SOL    HW181122   7.942   1.634   6.781 -1.1345  1.0649 -1.6586
26848SOL    HW281123   7.865   1.695   6.896 -0.8314 -0.2848 -0.7082
26849SOL     OW81124   8.511   1.531   7.327 -0.6674  0.1167 -0.0692
26849SOL    HW181125   8.500   1.437   7.313  0.8561 -0.1402  0.3172
26849SOL    HW281126   8.435   1.570   7.284 -0.5772 -1.1949 -1.5380
26850SOL     OW81127   0.965   2.108   7.839  0.1078  0.5115  0.0578
26850SOL    HW181128   1.027   2.177   7.817  0.1809  0.5738  0.4686
26850SOL    HW281129   0.971   2.098   7.934  0.8029 -0.7217 -0.0880
26851SOL     OW81130   5.206   8.579   7.628 -0.1114  0.5081 -0.1290
26851SOL    HW181131   5.135   8.626   7.585  0.5136  1.0576 -0.5877
26851SOL    HW281132   5.283   8.595   7.572  0.4950  0.3865  0.6451
26852SOL     OW81133   3.158   6.691   8.780 -0.1976  0.4689 -0.3482
26852SOL    HW181134   3.244   6.674   8.742 -0.5351  0.3158 -1.0555
26852SOL    HW281135   3.110   6.738   8.711 -0.4490  1.1888  0.2925
26853SOL     OW81136   7.176   1.987   5.068  0.2136 -0.0380 -0.1948
26853SOL    HW181137   7.084   1.963   5.056 -0.2990  2.4104 -2.0130
26853SOL    HW281138   7.225   1.911   5.038 -1.2586 -0.4254 -1.7567
26854SOL     OW81139   4.620   8.499   3.532 -0.1993  0.2068  0.0973
26854SOL    HW181140   4.569   8.521   3.610  0.5247  0.1816  0.5828
26854SOL    HW281141   4.584   8.415   3.503 -1.3199  0.8100 -0.3440
26855SOL     OW81142   8.709   6.518   9.358 -0.2510 -0.9942  0.2081
26855SOL    HW181143   8.646   6.545   9.424 -2.1505 -1.5384 -1.2994
26855SOL    HW281144   8.727   6.597   9.307  0.4125 -0.8180  0.6911
26856SOL     OW81145   8.825   2.962   1.992 -0.4754  0.1373 -0.6723
26856SOL    HW181146   8.832   3.054   2.020  0.7243  0.2689 -1.3187
26856SOL    HW281147   8.914   2.939   1.966 -0.7744 -1.2096 -0.5586
26857SOL     OW81148   7.993   5.502   7.048 -0.4631  0.2613 -0.2094
26857SOL    HW181149   8.010   5.581   6.996 -0.4827  1.3452  1.3560
26857SOL    HW281150   7.922   5.527   7.107  0.3557 -0.5205  1.1596
26858SOL     OW81151   4.542   4.593   5.568  0.2156  0.0294  0.6963
26858SOL    HW181152   4.580   4.664   5.517 -0.1558 -1.4943 -1.8783
26858SOL    HW281153   4.599   4.518   5.550  1.4209 -0.1701  4.3978
26859SOL     OW81154   6.590   9.214   8.019  0.4313  0.0796 -0.1033
26859SOL    HW181155   6.668   9.225   8.074  0.1554  1.4000  0.0676
26859SOL    HW281156   6.518   9.243   8.075  0.1572  1.6118 -1.1673
26860SOL     OW81157   4.314   7.232   8.411 -0.1126  0.3405  0.2550
26860SOL    HW181158   4.341   7.196   8.496 -0.1331  0.9373  0.5158
26860SOL    HW281159   4.397   7.249   8.365  0.0402  2.7428  1.2898
26861SOL     OW81160   6.468   6.909   3.020  0.6378  0.5492 -0.2678
26861SOL    HW181161   6.396   6.853   3.048  2.3321 -2.1463 -0.9137
26861SOL    HW281162   6.470   6.979   3.085 -1.4463 -0.2388  0.7495
26862SOL     OW81163   3.211   7.603   7.345  0.3992  0.6824 -0.2325
26862SOL    HW181164   3.207   7.616   7.440 -0.2673  1.6466 -0.3786
26862SOL    HW281165   3.220   7.509   7.334  2.3223  0.6879  0.8407
26863SOL     OW81166   2.058   5.364   0.099  0.5904  0.2092 -0.1688
26863SOL    HW181167   2.066   5.283   0.049  1.2704 -0.5318  1.0922
26863SOL    HW281168   1.966   5.367   0.124  0.3702  0.2948 -0.9552
26864SOL     OW81169   6.791   1.927   2.492 -0.2855  0.0609  0.1653
26864SOL    HW181170   6.834   1.862   2.547 -0.8086 -0.7072 -0.3145
26864SOL    HW281171   6.729   1.876   2.438 -0.2085  0.8603 -0.7053
26865SOL     OW81172   4.976   6.342   9.280  0.0819 -0.2304  0.3534
26865SOL    HW181173   4.906   6.319   9.219  1.7726 -0.1511 -1.7295
26865SOL    HW281174   4.982   6.437   9.276 -0.9733 -0.0460  2.0962
26866SOL     OW81175   0.146   4.244   5.953  0.1536  0.0981 -0.3156
26866SOL    HW181176   0.053   4.229   5.973  0.2766 -0.7293 -0.3300
26866SOL    HW281177   0.161   4.335   5.978 -0.0857 -0.4290  1.9448
26867SOL     OW81178   0.807   3.210   9.165 -0.5658  0.2179  0.4185
26867SOL    HW181179   0.829   3.299   9.192 -1.3150 -0.1939  2.5423
26867SOL    HW281180   0.754   3.175   9.237 -2.1216 -1.2286 -1.3214
26868SOL     OW81181   2.334   6.412   4.259  0.4555 -0.2893 -0.1677
26868SOL    HW181182   2.322   6.502   4.289 -0.0057 -0.0651 -1.0119
26868SOL    HW281183   2.428   6.396   4.269  0.7100  0.6239 -0.9554
26869SOL     OW81184   4.958   1.520   7.758 -0.5466 -0.0471 -0.2107
26869SOL    HW181185   4.989   1.473   7.680  1.0290  0.2620  0.1859
26869SOL    HW281186   5.038   1.540   7.807 -1.3222  1.4901  0.5080
26870SOL     OW81187   1.801   0.079   4.366 -0.0237  0.0450 -0.3583
26870SOL    HW181188   1.889   0.043   4.351 -0.0620  0.0679 -0.6493
26870SOL    HW281189   1.744   0.029   4.308  0.0825  1.2440 -1.5545
26871SOL     OW81190   1.502   3.495   9.565  0.0280 -0.3898  0.5453
26871SOL    HW181191   1.559   3.499   9.642  2.2555 -1.6019 -0.9255
26871SOL    HW281192   1.478   3.402   9.557 -2.2599  0.0958  1.1425
26872SOL     OW81193   9.007   2.276   0.562  0.1125  0.2258 -0.6577
26872SOL    HW181194   8.919   2.305   0.537 -1.5511 -3.7033  0.0382
26872SOL    HW281195   8.993   2.207   0.627  3.7693 -0.4139 -0.3153
26873SOL     OW81196   1.936   7.095   9.000 -1.1772  0.0410 -0.2886
26873SOL    HW181197   1.932   7.173   9.055 -0.9563  0.3297 -0.6747
26873SOL    HW281198   1.883   7.118   8.923 -0.4078  0.1404 -0.7981
26874SOL     OW81199   1.828   6.517   1.173  0.0614 -0.0469 -0.4642
26874SOL    HW181200   1.852   6.428   1.199  1.6688  0.8278  1.3291
26874SOL    HW281201   1.733   6.517   1.172  0.0337 -2.0848 -1.7119
26875SOL     OW81202   4.439   0.699   9.331  0.2394  0.2878  0.7778
26875SOL    HW181203   4.530   0.702   9.359 -0.1182  0.6000  1.9724
26875SOL    HW281204   4.404   0.785   9.354  0.2324  1.1220 -1.9206
26876SOL     OW81205   3.270   2.980   6.179 -0.3301 -0.0794 -0.9032
26876SOL    HW181206   3.214   2.913   6.218  0.9231 -1.4591 -1.3977
26876SOL    HW281207   3.209   3.036   6.129 -1.5699  0.0322  0.6700
26877SOL     OW81208   3.464   3.681   4.093 -0.2266  0.1875  0.1958
26877SOL    HW181209   3.544   3.672   4.145  0.0390  0.7937 -0.0969
26877SOL    HW281210   3.431   3.768   4.115  0.1515  0.6480 -1.0072
26878SOL     OW81211   6.107   3.970   5.416 -0.2331  0.3626  0.0585
26878SOL    HW181212   6.158   3.998   5.339 -1.3276  0.4141 -0.6715
26878SOL    HW281213   6.159   4.000   5.491  0.0782  1.7569 -0.6711
26879SOL     OW81214   1.954   1.107   8.687 -0.5277 -0.6274 -0.1503
26879SOL    HW181215   2.022   1.166   8.719  2.8819 -4.3135  0.1809
26879SOL    HW281216   1.879   1.163   8.671  1.9566  3.5127  1.2611
26880SOL     OW81217   8.513   7.206   4.526 -0.7455  0.7445 -0.4056
26880SOL    HW181218   8.450   7.277   4.522 -0.6338  0.8596 -0.1634
26880SOL    HW281219   8.482   7.150   4.597 -1.6645 -0.2573 -1.5523
26881SOL     OW81220   4.404   9.268   2.361  0.2214  0.4073  0.0486
26881SOL    HW181221   4.347   9.344   2.368  1.1031  1.2902 -1.6121
26881SOL    HW281222   4.481   9.291   2.414  0.0219  0.1924  0.4354
26882SOL     OW81223   8.631   8.002   5.906 -0.2798  0.3675 -0.0899
26882SOL    HW181224   8.574   8.027   5.833 -0.6441  0.4172  0.2065
26882SOL    HW281225   8.694   7.940   5.867  0.3430  1.3743 -0.7184
26883SOL     OW81226   6.425   6.568   8.988  0.2567 -0.8107  0.5652
26883SOL    HW181227   6.452   6.476   8.989  0.0352 -0.8927 -0.3945
26883SOL    HW281228   6.498   6.614   8.946  0.2170 -0.5924  0.7327
26884SOL     OW81229   7.856   6.568   1.986 -0.1488 -0.6378  0.0825
26884SOL    HW181230   7.927   6.512   1.953  1.1807  0.6729  0.6083
26884SOL    HW281231   7.801   6.583   1.909  0.0712 -1.7736 -0.3201
26885SOL     OW81232   1.709   1.247   8.696  0.1263 -0.1775  0.5142
26885SOL    HW181233   1.614   1.256   8.696  0.1066 -0.1215 -0.7415
26885SOL    HW281234   1.742   1.328   8.734 -0.3240 -0.1819  0.9169
26886SOL     OW81235   1.290   3.914   6.432 -0.3860  0.0990 -0.0693
26886SOL    HW181236   1.326   3.909   6.344 -1.7232  0.6867 -0.6689
26886SOL    HW281237   1.210   3.965   6.423 -1.3839 -1.1448  1.2120
26887SOL     OW81238   7.268   6.470   9.834  0.1232 -0.0937  0.1110
26887SOL    HW181239   7.212   6.520   9.775  1.7203 -0.7851 -2.1197
26887SOL    HW281240   7.209   6.406   9.875 -0.8899 -0.1699 -1.4018
26888SOL     OW81241   9.611   0.501   0.330 -0.7014  0.1035 -0.4818
26888SOL    HW181242   9.585   0.457   0.411  0.1536 -0.3013 -0.4121
26888SOL    HW281243   9.660   0.434   0.282 -1.8415  0.1017 -1.6916
26889SOL     OW81244   3.525   2.396   4.066 -0.5128 -0.2337  0.1934
26889SOL    HW181245   3.555   2.337   3.997  0.8311  0.4437  0.1709
26889SOL    HW281246   3.534   2.345   4.146 -1.6450 -0.8657 -0.0653
26890SOL     OW81247   5.063   3.566   0.397 -0.0000 -0.2030 -0.3524
26890SOL    HW181248   5.063   3.618   0.316 -0.4038 -0.4521 -0.5142
26890SOL    HW281249   5.076   3.631   0.466  2.2055 -0.1856 -0.7255
26891SOL     OW81250   8.675   1.290   3.869  0.1431 -0.0863  0.0918
26891SOL    HW181251   8.694   1.373   3.912  1.5966 -0.6486  0.5873
26891SOL    HW281252   8.748   1.277   3.808  0.7159 -1.6630  1.0459
26892SOL     OW81253   8.040   6.957   2.799 -0.3537  0.1909  0.2012
26892SOL    HW181254   8.046   6.959   2.704 -0.0854  0.1970  0.2171
26892SOL    HW281255   7.981   7.029   2.821 -0.9732 -0.2441 -0.0011
26893SOL     OW81256   6.767   0.902   7.871  0.2216  0.4794 -0.5490
26893SOL    HW181257   6.777   0.879   7.963 -0.2312  3.4361  0.3653
26893SOL    HW281258   6.856   0.919   7.841  0.2173  2.2002  0.2382
26894SOL     OW81259   3.232   6.132   6.011  0.0029  0.3303  0.2633
26894SOL    HW181260   3.283   6.152   6.090 -0.5390 -1.0984  1.0042
26894SOL    HW281261   3.143   6.157   6.034 -0.6322 -2.3542  1.0848
26895SOL     OW81262   8.302   1.219   8.537  0.0121 -0.4667  0.1253
26895SOL    HW181263   8.310   1.305   8.497 -3.1292  0.3473  1.0027
26895SOL    HW281264   8.249   1.168   8.476  2.0566 -1.9792 -0.5244
26896SOL     OW81265   5.706   0.329   2.069 -0.1765  0.0046  0.2543
26896SOL    HW181266   5.613   0.308   2.069 -0.2362  0.1998  1.1380
26896SOL    HW281267   5.713   0.409   2.017 -1.1291  2.3066  3.3242
26897SOL     OW81268   1.339   0.929   9.208 -0.2264  0.1867 -0.0911
26897SOL    HW181269   1.289   0.848   9.217 -0.4138  0.0264 -2.0090
26897SOL    HW281270   1.379   0.942   9.293 -1.0349 -1.3606  0.5761
26898SOL     OW81271   2.909   3.891   2.416  0.3383  0.0744 -0.1987
26898SOL    HW181272   2.929   3.910   2.507  1.0392 -0.1432 -0.2967
26898SOL    HW281273   2.960   3.812   2.396 -2.5797 -2.0875  0.2278
26899SOL     OW81274   1.578   0.486   0.586 -0.4619  0.2687  0.0436
26899SOL    HW181275   1.547   0.462   0.499 -0.2416 -0.4297  0.1499
26899SOL    HW281276   1.599   0.579   0.579 -0.0276  0.1196 -0.7731
26900SOL     OW81277   8.493   5.144   9.265 -0.3208 -0.3333  0.2600
26900SOL    HW181278   8.548   5.066   9.269  0.8434  0.4897  1.2232
26900SOL    HW281279   8.454   5.150   9.353  1.1459  1.2113  0.8413
26901SOL     OW81280   3.369   4.265   3.770 -0.2748  0.0013 -0.0447
26901SOL    HW181281   3.349   4.267   3.863 -0.8630  0.0270 -0.1675
26901SOL    HW281282   3.405   4.177   3.755 -0.3229 -0.0564  0.1742
26902SOL     OW81283   8.375   3.015   3.010  0.3138  0.2044 -0.0405
26902SOL    HW181284   8.298   3.020   3.068 -0.6443  0.8271 -1.3281
26902SOL    HW281285   8.360   2.935   2.959  0.3572  0.5038 -0.5216
26903SOL     OW81286   0.774   0.096   9.337 -1.0543  0.6583 -0.4179
26903SOL    HW181287   0.736   0.172   9.381 -3.8593 -1.6611  1.5496
26903SOL    HW281288   0.808   0.041   9.408  1.6639  0.3219 -1.8368
26904SOL     OW81289   3.988   0.623   0.435  0.1224  0.3622  0.0922
26904SOL    HW181290   4.068   0.641   0.385 -0.2285 -1.0965 -1.0866
26904SOL    HW281291   4.014   0.632   0.527  1.4468  0.6326 -0.2917
26905SOL     OW81292   5.107   1.104   8.701 -0.2624 -0.9113  0.0406
26905SOL    HW181293   5.136   1.194   8.686  1.8039 -1.3804  0.8872
26905SOL    HW281294   5.169   1.069   8.765 -1.3894 -2.7575  0.1959
26906SOL     OW81295   9.176   0.104   1.200  0.1406  0.1322 -0.1555
26906SOL    HW181296   9.214   0.016   1.199  0.4075  0.2458 -0.0781
26906SOL    HW281297   9.166   0.124   1.294 -0.8851 -0.2286 -0.1763
26907SOL     OW81298   0.548   8.796   4.424 -0.4061 -0.2165 -0.3682
26907SOL    HW181299   0.551   8.723   4.485 -0.3631  1.0337  1.1849
26907SOL    HW281300   0.631   8.841   4.436 -0.6787  0.4378 -0.8660
26908SOL     OW81301   4.756   9.315   3.220  0.0108  0.1923  0.3153
26908SOL    HW181302   4.725   9.395   3.177 -0.1540 -0.1999 -0.3199
26908SOL    HW281303   4.823   9.281   3.161  0.7148  0.3218  1.0248
26909SOL     OW81304   0.466   2.565   2.876  0.0821  0.2695 -0.2292
26909SOL    HW181305   0.412   2.569   2.956 -0.7811 -0.4599 -0.7603
26909SOL    HW281306   0.402   2.563   2.805  0.8420  0.1654 -0.9129
26910SOL     OW81307   3.128   6.669   6.005  0.5455  0.6325  0.1765
26910SOL    HW181308   3.057   6.654   5.942  0.7030  0.3624  0.0654
26910SOL    HW281309   3.126   6.592   6.061 -0.4388  1.4446  1.3182
26911SOL     OW81310   8.544   0.950   3.351  0.2879  0.6385 -0.5713
26911SOL    HW181311   8.464   0.905   3.322 -0.3945  1.6317 -0.2941
26911SOL    HW281312   8.525   1.043   3.339  0.8182  0.9721  0.9375
26912SOL     OW81313   6.172   6.965   2.015 -0.2194  0.3097  0.8409
26912SOL    HW181314   6.170   7.060   2.021 -0.7113  0.2743  1.3366
26912SOL    HW281315   6.083   6.938   2.037 -0.3597 -0.2091 -0.3064
26913SOL     OW81316   5.064   8.972   1.888  0.1200  0.1217  0.1277
26913SOL    HW181317   5.124   8.904   1.857 -0.1019  0.2972 -0.7079
26913SOL    HW281318   5.021   9.004   1.809 -1.2327 -0.1386  0.7308
26914SOL     OW81319   3.650   7.167   4.558 -0.7029  0.2460 -0.0135
26914SOL    HW181320   3.719   7.182   4.494 -1.5749  0.8933 -0.8295
26914SOL    HW281321   3.675   7.086   4.602  1.7585  1.6114  1.3090
26915SOL     OW81322   5.786   9.655   5.757 -0.1394 -0.0228  0.0184
26915SOL    HW181323   5.862   9.610   5.722  0.2248  0.8994 -0.4180
26915SOL    HW281324   5.822   9.719   5.819 -0.6656 -0.5278  0.8853
26916SOL     OW81325   1.949   4.705   0.951  0.0846 -0.2724 -0.0676
26916SOL    HW181326   1.887   4.700   1.024  1.4017  1.3033  1.2464
26916SOL    HW281327   1.982   4.616   0.941 -1.0755 -0.7702  0.3841
26917SOL     OW81328   0.899   5.577   9.061  0.0537 -0.0223 -0.3036
26917SOL    HW181329   0.963   5.512   9.088  0.0605  0.5801  1.2089
26917SOL    HW281330   0.916   5.589   8.967  0.5123 -1.6462 -0.4662
26918SOL     OW81331   9.732   6.351   9.238  0.3701  0.0901 -0.9399
26918SOL    HW181332   9.675   6.349   9.315 -0.1175 -0.1685 -1.3022
26918SOL    HW281333   9.672   6.353   9.163  0.8222 -0.9340 -1.3479
26919SOL     OW81334   9.417   3.968   3.069 -0.1672 -0.1497 -0.9178
26919SOL    HW181335   9.325   3.994   3.080 -0.5635 -1.4665 -0.8156
26919SOL    HW281336   9.413   3.872   3.063  1.1961 -0.2126 -1.0342
26920SOL     OW81337   4.610   9.701   6.625 -0.4712 -0.2579 -0.5610
26920SOL    HW181338   4.653   9.639   6.684 -1.1849  1.0142  1.4070
26920SOL    HW281339   4.545   9.745   6.680 -1.1250  1.0659 -2.3041
26921SOL     OW81340   4.127   4.857   1.100  0.1397 -0.9238  0.5796
26921SOL    HW181341   4.068   4.781   1.098  0.0271 -0.8270  0.1969
26921SOL    HW281342   4.185   4.845   1.024  0.8551 -1.2067  1.1542
26922SOL     OW81343   6.212   3.042   0.184 -0.2927 -0.0713 -0.1397
26922SOL    HW181344   6.195   3.129   0.148  1.7886 -0.6962 -2.9136
26922SOL    HW281345   6.186   2.981   0.115  1.5051 -1.4647  0.3124
26923SOL     OW81346   7.189   3.662   8.514 -0.6375  0.3729 -0.6149
26923SOL    HW181347   7.174   3.570   8.536 -0.1755  0.3816 -0.2403
26923SOL    HW281348   7.260   3.660   8.450  0.5230  0.5399  0.6046
26924SOL     OW81349   1.298   6.478   3.060  0.1800 -0.1149 -0.0324
26924SOL    HW181350   1.340   6.392   3.047 -0.0263 -0.5130  1.7543
26924SOL    HW281351   1.369   6.535   3.090 -0.2109 -0.3998  1.5044
26925SOL     OW81352   8.678   2.900   7.171 -0.3243 -0.4606 -0.1716
26925SOL    HW181353   8.593   2.942   7.181  0.0834 -0.0794  2.7327
26925SOL    HW281354   8.739   2.961   7.213  0.6910 -2.5922  1.6423
26926SOL     OW81355   3.021   4.284   5.913 -0.1717 -0.1295 -0.3594
26926SOL    HW181356   2.958   4.292   5.985  0.3523 -0.6649  0.1754
26926SOL    HW281357   3.003   4.199   5.874  0.0690 -0.1927 -0.3387
26927SOL     OW81358   6.813   7.522   0.283  0.1553  0.0638  0.0011
26927SOL    HW181359   6.857   7.449   0.326  2.2140  2.1680  1.7287
26927SOL    HW281360   6.883   7.567   0.236 -0.7268  1.7979  0.2843
26928SOL     OW81361   3.183   3.698   7.945  0.0946  0.4270  0.2394
26928SOL    HW181362   3.220   3.786   7.935  0.6259  0.4299  1.9511
26928SOL    HW281363   3.257   3.639   7.933  0.3949  0.3696  2.0762
26929SOL     OW81364   3.775   2.005   5.230  0.2428  0.3040  0.1037
26929SOL    HW181365   3.720   2.076   5.199  1.5551  0.4675 -2.0973
26929SOL    HW281366   3.776   1.942   5.157  2.6305  0.1689  0.1680
26930SOL     OW81367   3.292   0.166   4.447  0.2670  0.4463 -0.0400
26930SOL    HW181368   3.253   0.198   4.366  0.3363  0.5021 -0.0512
26930SOL    HW281369   3.386   0.160   4.429  0.1750 -0.4389 -0.2667
26931SOL     OW81370   0.763   2.403   7.053  0.5054  0.4072  0.2406
26931SOL    HW181371   0.766   2.487   7.100 -1.3052  0.0100  1.1443
26931SOL    HW281372   0.680   2.364   7.079  0.2776 -0.6843 -1.8794
26932SOL     OW81373   8.968   1.499   6.971  0.8377  0.1785  0.3114
26932SOL    HW181374   9.040   1.538   7.019  0.6892  1.8081 -0.7115
26932SOL    HW281375   8.985   1.522   6.879 -0.2175 -0.6525 -0.1158
26933SOL     OW81376   7.168   6.645   8.977  0.2803 -0.2881  0.4601
26933SOL    HW181377   7.244   6.651   8.920  0.4409 -0.8766  0.6093
26933SOL    HW281378   7.197   6.681   9.061  0.3044 -0.2351  0.4287
26934SOL     OW81379   6.627   0.037   5.651  0.0437  0.1917 -0.0718
26934SOL    HW181380   6.545   0.064   5.612  0.1612 -0.5392 -0.8599
26934SOL    HW281381   6.606  -0.045   5.696  0.7785 -1.2715 -2.2274
26935SOL     OW81382   3.818   1.517   4.157 -0.1375 -0.5455  0.3363
26935SOL    HW181383   3.743   1.465   4.188 -0.5363 -0.3931 -0.3348
26935SOL    HW281384   3.884   1.452   4.134 -0.1351 -0.6921  0.7591
26936SOL     OW81385   3.425   5.864   1.516  1.1612  0.2785  0.0359
26936SOL    HW181386   3.488   5.849   1.587  0.0885  0.4529  1.0564
26936SOL    HW281387   3.354   5.802   1.533  0.4886  0.9145 -0.3864
26937SOL     OW81388   8.002   7.992   0.609 -0.1719  0.4495 -0.2502
26937SOL    HW181389   8.052   8.010   0.689  0.2506  1.0921 -0.6540
26937SOL    HW281390   7.912   8.018   0.631 -0.4397 -1.0539  0.5992
26938SOL     OW81391   9.871   2.557   5.052 -0.3846 -0.2956 -0.1287
26938SOL    HW181392   9.929   2.485   5.078 -1.5669 -1.4219 -0.5496
26938SOL    HW281393   9.826   2.581   5.133  0.7257  0.6737  0.2294
26939SOL     OW81394   2.320   8.220   6.280 -0.1143 -0.6167 -0.2200
26939SOL    HW181395   2.367   8.289   6.327  0.8367 -1.5960  0.3072
26939SOL    HW281396   2.229   8.249   6.280 -0.0672 -0.3198  1.8168
26940SOL     OW81397   1.282   5.357   9.288  0.2362  0.1828 -0.0437
26940SOL    HW181398   1.311   5.443   9.319  0.1309  0.0541  0.4048
26940SOL    HW281399   1.318   5.295   9.351 -0.9490  0.0079  0.4917
26941SOL     OW81400   0.093   3.757   6.067  0.0870 -0.4489  0.1000
26941SOL    HW181401   0.057   3.811   5.997  2.1146  0.3207 -0.4054
26941SOL    HW281402   0.110   3.818   6.139 -0.3334 -0.9282  0.6114
26942SOL     OW81403   4.334   7.076   3.923  0.1605  0.0198  0.6395
26942SOL    HW181404   4.280   7.094   3.846 -1.6446 -0.7331  1.6600
26942SOL    HW281405   4.335   7.159   3.971 -1.0667 -0.2381  1.1539
26943SOL     OW81406   2.623   7.446   0.582 -0.3024  0.0772 -0.0654
26943SOL    HW181407   2.685   7.485   0.521 -1.0182 -0.6601 -1.3012
26943SOL    HW281408   2.572   7.519   0.616  0.7374  0.6043  0.4002
26944SOL     OW81409   7.885   6.823   0.962  0.0764 -0.1467 -0.2971
26944SOL    HW181410   7.804   6.850   0.919 -0.0237  0.6565  0.3758
26944SOL    HW281411   7.858   6.796   1.050  0.7085  1.5163  0.4315
26945SOL     OW81412   0.565   0.243   0.440 -0.6611  0.3400 -0.6069
26945SOL    HW181413   0.626   0.311   0.469  0.6243  0.6070 -3.5424
26945SOL    HW281414   0.487   0.257   0.493  0.9159  1.6211  1.5335
26946SOL     OW81415   0.575   1.694   6.814  0.3288 -0.0578  0.0903
26946SOL    HW181416   0.481   1.681   6.801  0.6292 -2.0257 -0.5031
26946SOL    HW281417   0.609   1.606   6.830  2.4855  0.1801 -2.5277
26947SOL     OW81418   5.441   3.254   2.275  0.6132  0.0900 -0.1050
26947SOL    HW181419   5.496   3.190   2.320  1.3393 -0.3790 -1.6300
26947SOL    HW281420   5.485   3.338   2.291  1.5209 -0.2186 -0.8935
26948SOL     OW81421   5.239   9.516   7.500 -0.1904 -0.1124 -0.0925
26948SOL    HW181422   5.243   9.602   7.458  3.8013 -0.3849 -0.6409
26948SOL    HW281423   5.225   9.454   7.428  0.8075 -0.1459 -0.2772
26949SOL     OW81424   2.578   1.190   6.124  0.1279 -0.7500 -0.8501
26949SOL    HW181425   2.562   1.220   6.035  1.1669  1.7479 -0.3104
26949SOL    HW281426   2.497   1.208   6.171  0.4041  0.4229 -0.7723
26950SOL     OW81427   4.135   1.700   8.648 -0.1518  0.1840 -0.3394
26950SOL    HW181428   4.053   1.657   8.624 -0.3377  0.2152  0.2433
26950SOL    HW281429   4.134   1.783   8.599 -0.0871 -0.1811 -0.9631
26951SOL     OW81430   6.198   8.525   0.647 -0.5185 -0.2897 -0.1902
26951SOL    HW181431   6.266   8.577   0.604 -0.2524  0.8149  1.4740
26951SOL    HW281432   6.230   8.435   0.641 -0.0280 -0.0562 -1.4099
26952SOL     OW81433   0.691   0.768   5.159  0.0571  0.0970 -0.1180
26952SOL    HW181434   0.687   0.833   5.088 -0.1819  2.1455  1.6830
26952SOL    HW281435   0.754   0.702   5.128 -0.4229  0.6438 -2.4188
26953SOL     OW81436   1.913   7.143  -0.009  0.2916  0.1364 -0.5551
26953SOL    HW181437   2.004   7.168  -0.022  0.5364 -0.4237  0.0409
26953SOL    HW281438   1.902   7.139   0.086  0.2675 -1.9301 -0.5864
26954SOL     OW81439   7.422   0.735   6.545 -0.5299 -0.3022  0.0736
26954SOL    HW181440   7.474   0.802   6.501 -1.2974  0.4978  0.3672
26954SOL    HW281441   7.467   0.719   6.628 -0.8748  0.5442  0.4246
26955SOL     OW81442   1.276   2.121   6.001  0.1004  0.2553 -0.3364
26955SOL    HW181443   1.258   2.071   5.921 -0.5414  0.1409 -0.1280
26955SOL    HW281444   1.200   2.105   6.057  1.7773 -2.0326  1.5058
26956SOL     OW81445   3.598   4.244   3.210 -0.4831 -0.3154  0.3593
26956SOL    HW181446   3.676   4.299   3.205 -1.7001  1.4950  0.4016
26956SOL    HW281447   3.585   4.211   3.121 -0.4497  0.4994  0.0488
26957SOL     OW81448   9.719   8.777   4.381 -0.0777  0.3733  0.0140
26957SOL    HW181449   9.794   8.832   4.403  0.3826 -0.6344  1.1214
26957SOL    HW281450   9.658   8.789   4.454  0.7933 -1.8354  1.2368
26958SOL     OW81451   2.721   5.693   4.598 -0.0144 -0.0641  0.2073
26958SOL    HW181452   2.759   5.639   4.529  0.0510 -0.6400  0.6808
26958SOL    HW281453   2.627   5.687   4.584 -0.0659 -1.1587  0.8592
26959SOL     OW81454   3.131   0.562   7.410 -0.3017 -0.5814  0.1018
26959SOL    HW181455   3.142   0.651   7.377 -0.9277 -0.6609 -0.3417
26959SOL    HW281456   3.220   0.530   7.421 -0.0671 -0.2391 -0.6963
26960SOL     OW81457   1.765   8.731   5.768  0.2994 -0.8277  0.2753
26960SOL    HW181458   1.692   8.711   5.710  0.1125  0.1052  0.1706
26960SOL    HW281459   1.748   8.820   5.799  0.9944 -0.8798  0.8547
26961SOL     OW81460   9.216   7.241   1.703  0.4641 -0.4277 -0.1164
26961SOL    HW181461   9.255   7.154   1.699  1.7995  0.1033  0.8853
26961SOL    HW281462   9.202   7.257   1.796  0.2267  0.4352 -0.2937
26962SOL     OW81463   5.134   5.448   8.779  0.5688 -0.2899 -0.4672
26962SOL    HW181464   5.071   5.376   8.783 -0.4314  0.6246  2.0063
26962SOL    HW281465   5.219   5.405   8.794  0.0827 -1.0886  0.0934
26963SOL     OW81466   1.899   6.710   3.312  0.2161  0.1826  0.0654
26963SOL    HW181467   1.907   6.652   3.236  3.2107  0.7218 -0.1279
26963SOL    HW281468   1.875   6.652   3.384  0.4523 -0.8508 -0.6646
26964SOL     OW81469   0.241   9.749   9.240 -0.5793  0.1102  0.0533
26964SOL    HW181470   0.250   9.703   9.324  2.8507 -0.6229 -0.5716
26964SOL    HW281471   0.169   9.704   9.196  0.0649 -2.0730  1.0872
26965SOL     OW81472   6.502   9.908   0.080 -0.3231  0.4237  0.1171
26965SOL    HW181473   6.539   9.854   0.149  3.1362  1.7281 -0.5481
26965SOL    HW281474   6.471   9.845   0.014  1.3666 -0.8047  0.4406
26966SOL     OW81475   1.001   8.684   0.505  0.5407 -0.4325  0.3136
26966SOL    HW181476   1.014   8.772   0.538  0.5092 -0.7026  1.0494
26966SOL    HW281477   0.906   8.675   0.497  0.5431 -0.4072  0.2557
26967SOL     OW81478   7.477   5.872   3.672  0.1972  0.2201  0.5805
26967SOL    HW181479   7.391   5.880   3.630  0.3057  2.5583  0.6642
26967SOL    HW281480   7.476   5.940   3.740  1.3832 -1.0625  1.9635
26968SOL     OW81481   8.945   8.908   1.053 -0.3443  0.2901 -0.3930
26968SOL    HW181482   8.903   8.828   1.022 -0.1089 -0.0045  0.0349
26968SOL    HW281483   8.885   8.978   1.029 -1.2881 -0.1573  0.5868
26969SOL     OW81484   7.098   0.532   8.891 -0.1017  0.0556  0.3265
26969SOL    HW181485   7.104   0.625   8.915 -0.4746 -0.0917  1.0353
26969SOL    HW281486   7.018   0.502   8.935  0.6458 -0.8795  1.0606
26970SOL     OW81487   2.701   8.404   8.238 -0.1081 -0.9003 -0.1236
26970SOL    HW181488   2.621   8.455   8.233 -0.5073 -1.5626 -0.6537
26970SOL    HW281489   2.676   8.324   8.283  0.4628 -0.7328  0.5111
26971SOL     OW81490   1.756   1.018   4.578 -0.0307  0.2789  0.1032
26971SOL    HW181491   1.674   1.033   4.531  0.5518  0.0087 -1.0366
26971SOL    HW281492   1.747   1.069   4.658 -1.3405  0.1912  0.0388
26972SOL     OW81493   2.805   5.522   4.789 -0.6278 -0.2105 -0.3975
26972SOL    HW181494   2.784   5.599   4.736  0.3671  0.5599  0.2815
26972SOL    HW281495   2.776   5.545   4.877 -0.1563 -0.5421 -0.1493
26973SOL     OW81496   9.433   1.273   9.704  0.4543 -0.3551  0.0448
26973SOL    HW181497   9.356   1.217   9.708  1.4593 -1.8691 -0.8956
26973SOL    HW281498   9.426   1.317   9.619  0.3830 -0.1257  0.1692
26974SOL     OW81499   3.418   7.980   3.976 -0.5547 -0.3682  0.0194
26974SOL    HW181500   3.322   7.977   3.984 -0.4405 -1.3885  1.3301
26974SOL    HW281501   3.450   7.937   4.055  1.0079  0.3677 -0.1731
26975SOL     OW81502   1.998   4.873   5.160  0.1547  0.0969  0.2879
26975SOL    HW181503   2.010   4.795   5.215  0.3241  0.5613  0.9099
26975SOL    HW281504   1.934   4.845   5.095 -1.9507  0.2394  2.1660
26976SOL     OW81505   6.945   7.145   6.107 -0.0340 -0.0496  0.5481
26976SOL    HW181506   6.988   7.106   6.031  1.2729  0.8639  0.7837
26976SOL    HW281507   6.929   7.236   6.081 -1.5703 -0.2766  0.5936
26977SOL     OW81508   8.498   6.193   6.165  0.1689 -0.0092  0.1230
26977SOL    HW181509   8.490   6.288   6.167 -1.1865 -0.0948 -0.1015
26977SOL    HW281510   8.590   6.177   6.143  0.7470  1.2219  1.4719
26978SOL     OW81511   5.483   6.527   7.497 -0.6344  0.3252  0.1641
26978SOL    HW181512   5.519   6.599   7.550 -0.0355 -0.0512  0.2847
26978SOL    HW281513   5.545   6.455   7.510 -0.0112  0.4666 -1.7036
26979SOL     OW81514   1.920   8.104   7.037 -0.0639  0.4972 -0.2178
26979SOL    HW181515   1.927   8.057   7.120  2.0999 -0.8608 -1.1000
26979SOL    HW281516   1.826   8.111   7.022 -0.4819 -1.0355  1.3492
26980SOL     OW81517   8.128   3.740   3.061  0.0526 -0.0318 -0.7236
26980SOL    HW181518   8.063   3.677   3.029 -0.9180  0.4672  0.2131
26980SOL    HW281519   8.204   3.725   3.005  0.0203 -2.3503 -0.2598
26981SOL     OW81520   5.151   0.703   0.231  0.0556  0.0374 -0.0723
26981SOL    HW181521   5.243   0.713   0.257  0.4819  0.0329 -1.4903
26981SOL    HW281522   5.107   0.776   0.275  1.0331  1.0128 -0.6357
26982SOL     OW81523   7.153   9.421   1.676 -0.1572  0.1552  0.4220
26982SOL    HW181524   7.062   9.410   1.704  0.2753  0.1757  1.9055
26982SOL    HW281525   7.163   9.359   1.603 -1.2652 -0.0574  0.4261
26983SOL     OW81526   6.270   9.337   5.120  0.0180 -0.1001  0.5033
26983SOL    HW181527   6.290   9.314   5.029 -1.6091 -0.8871  0.3160
26983SOL    HW281528   6.288   9.257   5.170  0.0458  0.0619  0.7596
26984SOL     OW81529   3.889   8.517   3.694 -0.1677 -0.0431  0.3363
26984SOL    HW181530   3.963   8.547   3.643 -0.1883  2.2726  1.5480
26984SOL    HW281531   3.926   8.489   3.777 -0.5560  0.4956  0.7025
26985SOL     OW81532   9.260   6.070   8.042 -0.2155  0.3466  0.1949
26985SOL    HW181533   9.245   6.079   8.136 -0.8063  2.6297 -0.0649
26985SOL    HW281534   9.355   6.074   8.031 -0.1570  0.2615  0.6680
26986SOL     OW81535   9.069   5.762   1.832 -0.1409  0.2792 -0.6268
26986SOL    HW181536   9.087   5.790   1.922  0.7466  0.2384 -0.7840
26986SOL    HW281537   8.982   5.722   1.837  0.3596 -0.7265  0.4385
26987SOL     OW81538   4.035   8.330   3.186 -0.0315 -0.4212  0.0226
26987SOL    HW181539   3.948   8.352   3.220 -0.2527 -1.5091  0.1979
26987SOL    HW281540   4.092   8.336   3.263  0.0857  0.4476 -0.1246
26988SOL     OW81541   5.728   1.836   5.520  0.2088 -0.3552  0.2052
26988SOL    HW181542   5.688   1.750   5.508 -2.0741  0.7983 -1.2234
26988SOL    HW281543   5.776   1.852   5.439 -0.3685  0.1563 -0.0519
26989SOL     OW81544   1.138   2.435   5.064  0.1653 -0.0141 -0.2417
26989SOL    HW181545   1.193   2.390   5.000 -1.9577 -1.2507 -1.3285
26989SOL    HW281546   1.095   2.505   5.014  1.5138  1.6552  0.8453
26990SOL     OW81547   2.999   3.447   5.241 -0.6525 -0.1732 -0.0090
26990SOL    HW181548   3.081   3.397   5.246 -1.2669 -1.2822 -0.6026
26990SOL    HW281549   2.983   3.476   5.331  1.2328  1.5009 -0.1426
26991SOL     OW81550   3.601   6.774   2.805 -0.3238 -0.2243  0.4089
26991SOL    HW181551   3.675   6.722   2.838  1.2885  2.0815  0.7380
26991SOL    HW281552   3.561   6.811   2.884 -1.2017 -0.6744  0.1732
26992SOL     OW81553   8.524   2.769   3.328  0.3958 -0.4948  0.3737
26992SOL    HW181554   8.472   2.694   3.356  0.4753 -0.6641  0.0678
26992SOL    HW281555   8.609   2.732   3.303 -0.1776 -0.5697 -1.6396
26993SOL     OW81556   3.555   5.652   9.265 -0.4026 -0.0171  0.7472
26993SOL    HW181557   3.593   5.727   9.312  0.7904  1.3349 -2.1566
26993SOL    HW281558   3.480   5.688   9.219 -1.9296 -1.4537  2.0210
26994SOL     OW81559   9.639   2.435   6.229 -0.2146 -0.5163  0.0977
26994SOL    HW181560   9.546   2.419   6.211  0.3472 -1.3494 -2.4961
26994SOL    HW281561   9.645   2.436   6.324 -2.2399 -4.7196  0.5105
26995SOL     OW81562   7.823   2.260   6.146 -0.5974  0.3450 -0.0622
26995SOL    HW181563   7.735   2.286   6.119 -0.0985  1.4901 -0.6504
26995SOL    HW281564   7.818   2.164   6.153 -1.1455  0.0572 -2.9885
26996SOL     OW81565   1.354   5.120   7.933  0.1705 -0.0538  0.2935
26996SOL    HW181566   1.447   5.137   7.952 -0.4052  1.8855  1.7358
26996SOL    HW281567   1.349   5.118   7.838  1.7238 -0.3160  0.1944
26997SOL     OW81568   1.893   4.365   3.252  0.3554  0.5854 -0.1484
26997SOL    HW181569   1.986   4.376   3.272 -0.0123  2.7788  0.6876
26997SOL    HW281570   1.848   4.377   3.336 -0.7194  0.1061 -0.6347
26998SOL     OW81571   5.072   2.708   6.129  0.3079 -0.6925 -0.0464
26998SOL    HW181572   5.132   2.726   6.201 -0.1283  0.6005  0.0372
26998SOL    HW281573   5.027   2.792   6.115 -0.9856 -1.4440 -0.5436
26999SOL     OW81574   8.977   4.133   9.565  0.2897 -0.1189 -0.3403
26999SOL    HW181575   9.006   4.224   9.561  1.4167 -0.5051 -1.4429
26999SOL    HW281576   8.904   4.134   9.627  1.6455  1.1670  1.3259
27000SOL     OW81577   4.186   3.330   1.740  0.0282  0.4537 -0.4817
27000SOL    HW181578   4.173   3.422   1.764 -0.8358 -0.1686  1.6518
27000SOL    HW281579   4.268   3.306   1.783 -0.7705 -0.2856  0.6674
27001SOL     OW81580   2.178   7.907   5.002 -0.1816  0.7915 -0.2123
27001SOL    HW181581   2.203   7.845   4.934  1.4255 -0.5275  1.4658
27001SOL    HW281582   2.256   7.914   5.058 -1.7136  0.9923  2.0457
27002SOL     OW81583   1.239   4.951   7.528 -0.0059  0.4760  0.1857
27002SOL    HW181584   1.178   4.952   7.602 -0.6677  2.0062 -0.3437
27002SOL    HW281585   1.187   4.921   7.454  0.2321  0.4903  0.0117
27003SOL     OW81586   0.111   0.021   0.914 -0.1277 -1.2159  0.1593
27003SOL    HW181587   0.089   0.097   0.968  0.3570 -0.9380 -0.0284
27003SOL    HW281588   0.032  -0.034   0.917 -0.5445 -0.6292  0.1582
27004SOL     OW81589   2.782   7.058   2.034  0.1964 -0.0607  0.7980
27004SOL    HW181590   2.864   7.010   2.034  0.5246  0.3551 -1.8098
27004SOL    HW281591   2.715   6.993   2.057  0.7989 -1.4191 -1.1298
27005SOL     OW81592   0.545   3.008   6.428 -0.6220 -0.2238 -0.1445
27005SOL    HW181593   0.464   3.025   6.379 -0.2195  0.4559 -0.5952
27005SOL    HW281594   0.572   3.094   6.461 -0.4252 -0.5476  0.5531
27006SOL     OW81595   8.263   7.158   3.845 -0.8482  0.2790 -0.0694
27006SOL    HW181596   8.317   7.180   3.768 -0.0202  1.9418  0.9215
27006SOL    HW281597   8.321   7.172   3.919 -1.9358 -0.3445  0.9258
27007SOL     OW81598   7.001   0.054   9.500 -0.4559 -0.3050 -0.3922
27007SOL    HW181599   6.907   0.053   9.484 -0.2127 -1.9846 -2.0486
27007SOL    HW281600   7.016  -0.019   9.560 -0.1756 -0.3299 -0.4909
27008SOL     OW81601   1.809   0.118   0.991 -0.1343 -0.7430  0.3956
27008SOL    HW181602   1.828   0.183   0.924 -1.4917  0.0549  0.7456
27008SOL    HW281603   1.722   0.142   1.025 -0.8420 -2.9077  0.3114
27009SOL     OW81604   5.130   4.130   2.938 -0.1879  0.9217 -0.3475
27009SOL    HW181605   5.149   4.088   3.022  3.8155 -1.5464 -2.2070
27009SOL    HW281606   5.196   4.198   2.930  0.8266 -0.2163 -2.2617
27010SOL     OW81607   1.586   1.301   6.449  0.2369 -0.0470  0.6208
27010SOL    HW181608   1.506   1.255   6.473 -1.4612  1.0253 -2.4108
27010SOL    HW281609   1.643   1.232   6.415 -0.9856 -0.4121 -0.8092
27011SOL     OW81610   8.403   3.896   5.307  0.4383 -0.1566 -0.8021
27011SOL    HW181611   8.399   3.846   5.226  1.2094 -2.8017  0.6495
27011SOL    HW281612   8.468   3.850   5.360 -0.8410  0.7406  1.7392
27012SOL     OW81613   6.036   6.655   4.140 -0.1283  0.1305 -0.4602
27012SOL    HW181614   5.986   6.573   4.133 -0.3679  0.2436 -0.0971
27012SOL    HW281615   6.095   6.641   4.214 -3.1500  1.8034  2.5646
27013SOL     OW81616   2.927   8.229   1.474  0.2495  0.2636 -0.4516
27013SOL    HW181617   2.981   8.291   1.425  1.3160  0.6758  1.1589
27013SOL    HW281618   2.989   8.183   1.531 -0.8816 -0.4155  0.2802
27014SOL     OW81619   7.568   8.121   6.822  0.1602 -0.1838  0.4291
27014SOL    HW181620   7.523   8.183   6.765  1.1349  0.9001  0.8107
27014SOL    HW281621   7.631   8.174   6.871 -1.0782 -0.9659  3.0044
27015SOL     OW81622   0.902   2.681   2.872  0.1261 -0.6427  0.2099
27015SOL    HW181623   0.936   2.767   2.897 -0.6153  0.0118 -0.9672
27015SOL    HW281624   0.811   2.697   2.847 -0.2219 -1.8894  0.6135
27016SOL     OW81625   4.071   2.793   9.776  0.0798 -0.0447  0.1633
27016SOL    HW181626   3.980   2.817   9.791 -0.2600 -1.3862  0.4379
27016SOL    HW281627   4.077   2.703   9.811  1.4391 -0.0552 -0.0658
27017SOL     OW81628   2.500   1.435   8.330 -0.1688 -0.4504 -0.3214
27017SOL    HW181629   2.570   1.472   8.275  0.1974 -0.6422  0.0136
27017SOL    HW281630   2.533   1.350   8.357 -0.2213 -0.2374  0.4388
27018SOL     OW81631   0.395   7.766   7.257 -0.0204 -0.3107 -0.0117
27018SOL    HW181632   0.375   7.682   7.215 -0.0697  0.2003 -1.0203
27018SOL    HW281633   0.311   7.795   7.292  0.2802 -1.4288  1.7650
27019SOL     OW81634   3.437   7.979   2.950  0.0296  0.4109  0.1989
27019SOL    HW181635   3.480   7.928   2.882  1.3610 -0.2241  1.4875
27019SOL    HW281636   3.343   7.968   2.932  0.3195 -1.0292 -0.5917
27020SOL     OW81637   3.550   9.811   2.440 -0.0166 -0.4262 -0.0780
27020SOL    HW181638   3.479   9.821   2.377  1.2658 -0.5495 -1.5948
27020SOL    HW281639   3.527   9.870   2.512 -0.9090  0.6652 -1.2134
27021SOL     OW81640   9.548   2.142   0.019  0.0114  0.5289 -0.4780
27021SOL    HW181641   9.531   2.195   0.097 -0.6937  0.2435 -0.4253
27021SOL    HW281642   9.558   2.205  -0.052  0.5599  0.7873 -0.1740
27022SOL     OW81643   3.769   0.123   2.381 -0.1778  0.2778  0.0607
27022SOL    HW181644   3.783   0.111   2.287 -0.6921 -4.9706  0.3493
27022SOL    HW281645   3.816   0.203   2.402 -0.2263  1.8295 -4.6343
27023SOL     OW81646   7.287   1.606   3.685 -0.0683  0.0269 -0.0483
27023SOL    HW181647   7.312   1.660   3.760  1.8624 -0.9269  0.0452
27023SOL    HW281648   7.288   1.666   3.611  0.6963  0.4156  0.2671
27024SOL     OW81649   5.220   1.873   8.881 -0.4819 -0.0970  0.2663
27024SOL    HW181650   5.171   1.954   8.887  1.1749  1.0588 -0.8148
27024SOL    HW281651   5.177   1.824   8.811  0.9410  1.7857 -2.0927
27025SOL     OW81652   8.492   6.646   7.625  0.1762 -0.0585 -0.2979
27025SOL    HW181653   8.463   6.559   7.652  0.9378 -0.8914 -1.9674
27025SOL    HW281654   8.411   6.698   7.621 -0.2286 -0.5182  1.1958
27026SOL     OW81655   6.770   5.661   7.981 -0.6540  0.1665  0.2936
27026SOL    HW181656   6.728   5.588   8.027  0.8543 -0.1233  1.2669
27026SOL    HW281657   6.745   5.648   7.890 -1.1081 -1.0879  0.5668
27027SOL     OW81658   9.445   9.505   6.181  0.0189  0.1378 -0.1727
27027SOL    HW181659   9.421   9.422   6.140  0.4463  1.0304 -2.3421
27027SOL    HW281660   9.365   9.534   6.225 -0.8961 -0.1703 -1.5887
27028SOL     OW81661   3.627   2.862   3.866  0.1755  0.0474 -0.3982
27028SOL    HW181662   3.625   2.936   3.806  0.4802  1.1041  0.8556
27028SOL    HW281663   3.687   2.888   3.935  1.4576 -1.9706 -0.6486
27029SOL     OW81664   3.915   9.400   5.207  0.5676  0.5412  0.1274
27029SOL    HW181665   3.834   9.399   5.154  0.1792  2.2846  0.5961
27029SOL    HW281666   3.886   9.432   5.292  1.4156 -0.9741  0.9988
27030SOL     OW81667   4.332   2.838   3.255 -0.5956 -0.0872  0.0877
27030SOL    HW181668   4.352   2.750   3.224 -1.1511 -0.1518 -0.0920
27030SOL    HW281669   4.375   2.897   3.192  2.8620 -0.1546  2.0797
27031SOL     OW81670   4.119   3.748   1.177 -0.1419 -0.1212  0.0419
27031SOL    HW181671   4.059   3.684   1.216 -0.5625  0.0234 -0.3670
27031SOL    HW281672   4.086   3.762   1.089  3.0399 -3.5492 -2.0259
27032SOL     OW81673   1.871   8.722   6.026 -0.0735 -0.7273 -0.4132
27032SOL    HW181674   1.942   8.782   6.004 -1.5085  1.5920  0.9048
27032SOL    HW281675   1.834   8.696   5.941  0.0941  0.9079 -1.0092
27033SOL     OW81676   1.050   6.548   4.264 -0.0204  0.1059 -0.5941
27033SOL    HW181677   1.136   6.536   4.305  0.5154  0.4064 -1.6113
27033SOL    HW281678   1.027   6.639   4.283  0.7814  0.6184 -1.9530
27034SOL     OW81679   5.773   1.241   7.208  0.2886  0.1388 -0.3021
27034SOL    HW181680   5.764   1.184   7.131 -0.5046  1.2467 -1.0548
27034SOL    HW281681   5.717   1.200   7.274  0.1437 -0.2424 -0.6545
27035SOL     OW81682   6.293   8.340   2.160  0.7967  0.0714  0.7965
27035SOL    HW181683   6.342   8.258   2.158  1.1822  0.2195  2.4608
27035SOL    HW281684   6.324   8.388   2.084  1.2616 -0.9318  0.3280
27036SOL     OW81685   6.677   8.850   5.030  0.6742 -0.0970 -0.1359
27036SOL    HW181686   6.725   8.932   5.042 -2.1156  1.5952  0.3199
27036SOL    HW281687   6.608   8.872   4.968 -1.0289 -1.6924  1.1129
27037SOL     OW81688   0.839   6.549   2.967  0.6855  0.6701  0.0560
27037SOL    HW181689   0.793   6.608   2.907 -0.6845 -1.9402 -1.6401
27037SOL    HW281690   0.926   6.539   2.929  0.5361  0.7046 -0.3003
27038SOL     OW81691   1.253   4.414   7.971 -0.3166 -0.2283 -0.3386
27038SOL    HW181692   1.286   4.379   7.888  2.1154 -1.2642  0.9357
27038SOL    HW281693   1.300   4.496   7.983 -2.4049  1.1343 -1.0225
27039SOL     OW81694   0.877   6.650   9.059 -0.4356  0.3394 -0.2156
27039SOL    HW181695   0.797   6.610   9.025 -1.2497 -0.5942  2.5659
27039SOL    HW281696   0.846   6.721   9.116  0.7332  0.1710  0.6541
27040SOL     OW81697   4.277   1.250   3.346 -0.5515 -0.1809 -0.2746
27040SOL    HW181698   4.191   1.292   3.337 -0.4708  0.8467  2.6821
27040SOL    HW281699   4.257   1.157   3.349 -1.9636  0.0954  2.5863
27041SOL     OW81700   0.751   9.645   3.594  0.0167  0.3631  0.1988
27041SOL    HW181701   0.747   9.698   3.674 -0.0531  2.8794 -1.3658
27041SOL    HW281702   0.660   9.638   3.565  0.0950 -0.0484  0.0471
27042SOL     OW81703   7.890   4.957   9.665  0.0968  0.0955  0.5348
27042SOL    HW181704   7.802   4.982   9.693 -0.0414 -1.4348  1.5789
27042SOL    HW281705   7.877   4.915   9.580 -0.3518 -1.1728  1.2164
27043SOL     OW81706   2.234   1.173   1.452  0.6049  1.0069  0.2000
27043SOL    HW181707   2.150   1.161   1.409  0.5362 -2.3989  1.0120
27043SOL    HW281708   2.225   1.130   1.536  2.6903  2.0074  1.0244
27044SOL     OW81709   7.396   6.163   3.593 -0.1946  0.3558  0.3089
27044SOL    HW181710   7.351   6.182   3.511 -1.1382  0.0132  0.7304
27044SOL    HW281711   7.351   6.085   3.628  1.4243 -0.6800  0.2185
27045SOL     OW81712   7.201   0.057   4.931  0.0377 -0.0577  0.1826
27045SOL    HW181713   7.204   0.035   5.024 -0.3117  1.3571  0.5620
27045SOL    HW281714   7.108   0.070   4.912  0.2579  1.7441  0.1900
27046SOL     OW81715   1.897   8.698   8.525 -0.3394  0.6494 -0.0403
27046SOL    HW181716   1.976   8.691   8.471 -1.9772 -0.4629 -2.4529
27046SOL    HW281717   1.883   8.610   8.559  0.7938  1.3749  2.5693
27047SOL     OW81718   8.682   1.421   5.266  0.2659  0.4333  0.0409
27047SOL    HW181719   8.730   1.395   5.187 -1.5435  0.7843 -1.2429
27047SOL    HW281720   8.670   1.516   5.256 -2.3028  0.1191 -0.7093
27048SOL     OW81721   4.644   3.781   6.347  0.4204 -0.2657  0.0768
27048SOL    HW181722   4.656   3.809   6.438 -0.0519 -0.4183  0.1900
27048SOL    HW281723   4.626   3.862   6.299 -0.1579 -0.2800  0.2656
27049SOL     OW81724   2.571   6.981   1.113  0.2321  0.2490  0.5512
27049SOL    HW181725   2.621   6.948   1.188 -1.6547 -0.9646  1.3358
27049SOL    HW281726   2.480   6.959   1.133 -0.7170  2.7664 -0.6341
27050SOL     OW81727   2.249   0.513   8.878 -0.4403  0.4715 -0.5300
27050SOL    HW181728   2.229   0.564   8.799  1.9514  0.9988 -0.8867
27050SOL    HW281729   2.335   0.545   8.906 -0.4935 -0.8614  1.3592
27051SOL     OW81730   8.020   9.873   1.928 -0.2383  0.1265 -0.0626
27051SOL    HW181731   7.969   9.889   2.008  2.1606  0.0166  1.5868
27051SOL    HW281732   8.012   9.954   1.878 -0.8746  0.6331  0.8214
27052SOL     OW81733   7.739   5.749   3.968 -0.7361  0.1950 -0.1151
27052SOL    HW181734   7.811   5.746   3.905 -0.9252  2.6066 -0.5408
27052SOL    HW281735   7.671   5.695   3.929  0.4066 -1.1956 -0.2548
27053SOL     OW81736   9.684   4.060   8.750 -0.1493 -0.0223  0.2289
27053SOL    HW181737   9.737   3.999   8.802 -0.2599 -0.7495 -0.4873
27053SOL    HW281738   9.716   4.147   8.774  1.2390 -0.4392 -0.0492
27054SOL     OW81739   7.519   8.515   0.668  0.1473  0.2877  0.2304
27054SOL    HW181740   7.532   8.457   0.743 -2.0795 -0.8495 -0.1680
27054SOL    HW281741   7.489   8.598   0.707 -0.1918 -0.0249  0.6524
27055SOL     OW81742   2.930   8.833   9.203  0.0600  0.3610  0.0977
27055SOL    HW181743   2.930   8.895   9.276  0.9576  1.4780 -0.8030
27055SOL    HW281744   3.022   8.808   9.192 -0.1992 -0.5838 -0.0219
27056SOL     OW81745   7.663   4.772   1.510 -0.1810  0.2219 -0.2664
27056SOL    HW181746   7.610   4.801   1.436  0.8287 -1.1436 -1.5768
27056SOL    HW281747   7.604   4.716   1.561 -0.1924 -0.8429 -1.4105
27057SOL     OW81748   1.868   7.418   2.491 -0.6888  0.9276  0.1551
27057SOL    HW181749   1.963   7.403   2.485 -0.5789  1.5533  0.2506
27057SOL    HW281750   1.860   7.512   2.509 -1.3761  1.3227 -1.9045
27058SOL     OW81751   1.626   4.957   0.373 -0.1462  0.5131  0.5536
27058SOL    HW181752   1.673   5.028   0.417 -0.7314  0.1267  1.8727
27058SOL    HW281753   1.534   4.980   0.382 -0.2778  0.9544 -1.4775
27059SOL     OW81754   5.991   9.113   1.664  0.0489 -0.3570 -1.1233
27059SOL    HW181755   6.054   9.055   1.708 -0.0498 -1.0628 -1.9037
27059SOL    HW281756   6.030   9.131   1.579 -1.0893 -1.3255 -1.8746
27060SOL     OW81757   2.614   7.275   2.008  0.6601 -0.5375  0.1035
27060SOL    HW181758   2.540   7.222   2.039  0.1434 -0.0004 -0.2233
27060SOL    HW281759   2.690   7.218   2.023  0.0800 -1.5533 -0.6185
27061SOL     OW81760   5.101   2.571   4.816 -0.0382  0.1831 -0.2617
27061SOL    HW181761   5.083   2.504   4.750 -0.5741 -0.1555  0.2152
27061SOL    HW281762   5.132   2.523   4.892 -1.2143  0.3669  0.3734
27062SOL     OW81763   8.729   2.244   7.563  0.0297  0.8721  0.6575
27062SOL    HW181764   8.655   2.240   7.623 -1.1234  2.4069 -0.6038
27062SOL    HW281765   8.690   2.241   7.476  1.5982 -0.2561 -0.0501
27063SOL     OW81766   2.907   5.615   3.011  0.6119 -0.0909  0.1204
27063SOL    HW181767   2.864   5.529   3.013 -1.4853  0.9159  0.8431
27063SOL    HW281768   2.986   5.603   3.064  0.1355 -1.4660  0.5725
27064SOL     OW81769   9.002   2.944   6.393 -0.1126 -0.3480  0.2001
27064SOL    HW181770   8.986   2.881   6.322  0.6289  0.1324 -0.4107
27064SOL    HW281771   9.056   3.012   6.353 -2.8473  1.9866  0.1302
27065SOL     OW81772   5.952   8.217   4.781  0.7269 -0.0223  0.0824
27065SOL    HW181773   5.956   8.121   4.778  1.7741  0.0305 -1.0608
27065SOL    HW281774   5.865   8.238   4.747  0.3562 -0.5741  0.6760
27066SOL     OW81775   0.296   0.276   1.938  0.0340  0.4127 -0.0262
27066SOL    HW181776   0.389   0.255   1.945 -0.3589 -1.3868  0.2453
27066SOL    HW281777   0.290   0.368   1.964  1.9286  1.0597 -1.6619
27067SOL     OW81778   5.228   0.631   7.214  0.1124  0.4633  0.0310
27067SOL    HW181779   5.282   0.708   7.228 -1.3596  2.0090 -2.1204
27067SOL    HW281780   5.275   0.580   7.147  0.6504 -0.0838  0.8106
27068SOL     OW81781   5.556   9.372   4.129 -0.3319 -0.0343 -0.5325
27068SOL    HW181782   5.523   9.409   4.047 -1.2317  1.6259  0.5082
27068SOL    HW281783   5.516   9.285   4.134 -1.4243  0.4027 -1.1849
27069SOL     OW81784   6.889   0.968   8.958  0.3207  0.1542  0.5363
27069SOL    HW181785   6.858   0.879   8.942 -1.5879  0.6394  1.3186
27069SOL    HW281786   6.815   1.025   8.938  1.1247  1.4946  1.1432
27070SOL     OW81787   1.742   7.394   9.322 -0.8887 -0.1691 -0.2696
27070SOL    HW181788   1.698   7.329   9.376  1.2602  0.6078  2.6583
27070SOL    HW281789   1.769   7.462   9.383  1.8979  0.6953 -2.2664
27071SOL     OW81790   8.463   1.788   2.508  0.4492  0.8663  0.6311
27071SOL    HW181791   8.460   1.857   2.574 -0.5490  2.0635 -0.6056
27071SOL    HW281792   8.405   1.819   2.438  0.8737 -0.7033 -0.4724
27072SOL     OW81793   4.845   5.901   0.619 -0.5096 -0.3870  0.2267
27072SOL    HW181794   4.863   5.856   0.701  3.4225 -1.4199 -0.9817
27072SOL    HW281795   4.788   5.841   0.571 -1.8881 -0.2952  1.6679
27073SOL     OW81796   1.648   9.736   4.461  0.3986  0.2683  0.1474
27073SOL    HW181797   1.618   9.672   4.396 -1.6854  0.0504  1.2305
27073SOL    HW281798   1.662   9.816   4.412 -4.2265  1.0705 -0.3178
27074SOL     OW81799   5.412   7.926   0.178  0.0525  0.0908 -0.5058
27074SOL    HW181800   5.368   7.877   0.108 -0.9805  0.4012 -0.0824
27074SOL    HW281801   5.474   7.863   0.215 -0.8005 -0.7007 -0.3964
27075SOL     OW81802   4.990   8.789   6.550 -0.2186  0.4341 -0.5502
27075SOL    HW181803   5.084   8.800   6.562  0.0548 -2.1711  0.3965
27075SOL    HW281804   4.982   8.728   6.476 -1.1369  0.5197 -0.5353
27076SOL     OW81805   6.620   3.153   4.119 -0.0348  0.4762  0.4018
27076SOL    HW181806   6.592   3.105   4.041 -0.4414  1.7368 -0.2492
27076SOL    HW281807   6.706   3.189   4.095  1.2261 -1.4817  1.5871
27077SOL     OW81808   7.600   4.147   4.139 -0.0041 -0.4084  0.1364
27077SOL    HW181809   7.631   4.089   4.069 -1.0111 -1.3289  0.4219
27077SOL    HW281810   7.659   4.222   4.136 -0.3378 -0.1661 -2.0641
27078SOL     OW81811   1.512   9.460   6.806 -0.8540  0.3638 -0.1033
27078SOL    HW181812   1.570   9.505   6.745  1.3054 -2.4220 -0.3508
27078SOL    HW281813   1.461   9.400   6.751  0.5649 -1.6269  0.6391
27079SOL     OW81814   2.457   1.365   4.117 -0.4651 -0.0969  0.3176
27079SOL    HW181815   2.378   1.363   4.063  0.5789 -0.6786 -1.2485
27079SOL    HW281816   2.486   1.456   4.113 -0.9851  0.0996  0.8267
27080SOL     OW81817   0.631   0.661   3.378  0.6055  0.0913  0.1949
27080SOL    HW181818   0.550   0.622   3.343 -0.2645  1.7207  0.2763
27080SOL    HW281819   0.654   0.605   3.452  1.3035 -2.1882 -1.6207
27081SOL     OW81820   3.662   2.137   1.276  0.0039 -0.0155 -0.3089
27081SOL    HW181821   3.581   2.144   1.327 -0.0653 -1.3139 -0.1865
27081SOL    HW281822   3.692   2.227   1.265 -0.7288  0.3871  0.8120
27082SOL     OW81823   7.479   2.016   8.673  0.0546 -0.5574 -0.2009
27082SOL    HW181824   7.499   1.926   8.648  1.3370 -0.1685 -0.6327
27082SOL    HW281825   7.533   2.032   8.751  0.6659  0.1756 -0.7588
27083SOL     OW81826   1.017   2.683   4.927  0.1383 -0.4504  0.0554
27083SOL    HW181827   1.005   2.635   4.845  0.1058 -0.7075  0.2058
27083SOL    HW281828   1.067   2.760   4.904 -1.2934  0.3478 -0.5004
27084SOL     OW81829   2.263   7.879   1.614 -0.5115  0.3457  0.0768
27084SOL    HW181830   2.273   7.974   1.621 -1.5290  0.3906  1.2434
27084SOL    HW281831   2.344   7.844   1.650 -0.8146  0.7768  1.2467
27085SOL     OW81832   5.447   9.785   8.110 -0.0960  0.1739 -0.1142
27085SOL    HW181833   5.438   9.705   8.059 -1.5095 -0.7022  1.4235
27085SOL    HW281834   5.399   9.851   8.060  1.0466  0.0881 -1.3742
27086SOL     OW81835   6.644   7.234   0.425 -0.1175  0.1066 -0.6604
27086SOL    HW181836   6.604   7.149   0.406 -0.3935 -0.3849  1.7988
27086SOL    HW281837   6.570   7.295   0.425 -0.1618  0.0537 -0.8051
27087SOL     OW81838   5.957   5.200   0.274  0.0652  0.9235 -0.2963
27087SOL    HW181839   5.886   5.164   0.327  1.0688  0.3351  0.6956
27087SOL    HW281840   5.928   5.289   0.253 -1.4393  0.3248 -0.8498
27088SOL     OW81841   5.407   9.271   7.766  0.0041 -0.3018  0.2187
27088SOL    HW181842   5.485   9.238   7.721 -1.2059 -2.5209 -0.3733
27088SOL    HW281843   5.429   9.263   7.859  0.1305 -1.9839  0.0820
27089SOL     OW81844   6.702   4.544   2.859 -0.4289 -0.4158  0.0590
27089SOL    HW181845   6.632   4.483   2.882 -0.5175 -0.5365 -0.4986
27089SOL    HW281846   6.669   4.630   2.885 -1.5492 -0.2387 -1.7660
27090SOL     OW81847   1.248   9.855   4.694  0.2285  0.0977 -0.0068
27090SOL    HW181848   1.189   9.929   4.685  0.7851  0.3468 -2.0914
27090SOL    HW281849   1.322   9.889   4.743  0.9066  1.2563 -1.7387
27091SOL     OW81850   3.777   7.669   2.371 -0.0768  0.1706 -0.2109
27091SOL    HW181851   3.756   7.617   2.448  1.2476  0.1313  0.1522
27091SOL    HW281852   3.692   7.699   2.338 -0.7533 -0.9722  0.4349
27092SOL     OW81853   4.553   2.116   5.894 -0.1320  0.0978  0.3393
27092SOL    HW181854   4.616   2.188   5.903  0.4720 -0.5688  1.7988
27092SOL    HW281855   4.525   2.120   5.803  1.1675  1.1232 -0.0488
27093SOL     OW81856   7.004   4.532   3.411  0.3372 -0.4851 -0.3973
27093SOL    HW181857   6.990   4.554   3.320 -0.4611  1.4623  0.1513
27093SOL    HW281858   7.082   4.582   3.436  0.2455 -0.5998  0.1364
27094SOL     OW81859   0.982   9.107   6.949  0.1282 -0.2246 -0.4123
27094SOL    HW181860   0.994   9.156   7.030  1.5922  0.7073 -1.1496
27094SOL    HW281861   1.023   9.022   6.966  0.8947  0.1551 -0.3241
27095SOL     OW81862   3.921   6.366   8.397 -0.4186  0.4097 -0.2301
27095SOL    HW181863   3.951   6.360   8.488 -0.8849  1.0108 -0.0300
27095SOL    HW281864   3.926   6.277   8.364  1.2414  0.4233 -0.0975
27096SOL     OW81865   9.548   3.829   6.656 -0.0417 -0.2477 -0.5219
27096SOL    HW181866   9.565   3.739   6.685 -2.5350 -0.5703  0.2129
27096SOL    HW281867   9.491   3.818   6.580 -1.3631  0.6865  0.3005
27097SOL     OW81868   8.449   5.650   2.952  0.5675  0.0034 -0.0965
27097SOL    HW181869   8.506   5.574   2.944 -0.5801 -0.7071 -2.8835
27097SOL    HW281870   8.509   5.725   2.950  1.5563 -0.7729 -1.0664
27098SOL     OW81871   5.477   0.167   1.959 -0.0065  0.6905 -0.1853
27098SOL    HW181872   5.397   0.202   1.998 -0.4836 -1.6994  1.2020
27098SOL    HW281873   5.467   0.072   1.966  1.3638  0.2153 -3.3045
27099SOL     OW81874   8.132   1.056   3.845 -1.0458 -0.2445 -0.1432
27099SOL    HW181875   8.171   1.069   3.759 -2.4902  0.0005 -0.7860
27099SOL    HW281876   8.182   1.114   3.903  0.4974 -1.0476 -0.6166
27100SOL     OW81877   0.596   8.553   0.304  0.3406  0.6916 -0.1463
27100SOL    HW181878   0.686   8.586   0.305  0.7927 -0.5067 -0.3309
27100SOL    HW281879   0.581   8.527   0.213  0.4124 -0.7134  0.2250
27101SOL     OW81880   5.597   3.761   6.938  0.2387  0.1683  0.2925
27101SOL    HW181881   5.586   3.690   6.874 -0.0731 -1.1510  1.7663
27101SOL    HW281882   5.523   3.819   6.922 -0.4627 -0.7381  0.1978
27102SOL     OW81883   9.349   8.239   3.793  0.0453  0.4428  0.1681
27102SOL    HW181884   9.312   8.326   3.784  1.5966  1.0271 -1.0133
27102SOL    HW281885   9.401   8.226   3.713  2.5703 -0.2063  1.7934
27103SOL     OW81886   5.255   8.316   8.446  0.5850  0.3057 -0.7837
27103SOL    HW181887   5.305   8.340   8.524  0.3232  0.2265 -0.5902
27103SOL    HW281888   5.316   8.331   8.373  0.1530  2.4691 -0.7803
27104SOL     OW81889   4.075   2.475   4.520  0.1689  0.1484 -0.3676
27104SOL    HW181890   4.051   2.472   4.613 -0.3730 -1.5844 -0.5265
27104SOL    HW281891   4.112   2.562   4.508  5.0236 -1.1219  2.6360
27105SOL     OW81892   4.471   0.315   3.858  0.1854  0.1822 -0.2108
27105SOL    HW181893   4.391   0.265   3.839 -0.8255  0.7276  2.1877
27105SOL    HW281894   4.535   0.282   3.795 -1.3197 -1.8019 -0.8385
27106SOL     OW81895   3.345   5.535   4.505  0.1030  0.1995  0.7807
27106SOL    HW181896   3.298   5.576   4.578  0.7667  0.6816  0.9503
27106SOL    HW281897   3.387   5.608   4.460 -0.2361 -0.1059 -0.0475
27107SOL     OW81898   4.108   2.293   2.768  0.4992  0.1534  0.1241
27107SOL    HW181899   4.132   2.319   2.856 -1.3461  0.0390  0.6987
27107SOL    HW281900   4.015   2.317   2.759  0.4188 -0.5634 -1.4892
27108SOL     OW81901   5.060   2.963   8.894 -0.3438 -0.0369  0.3690
27108SOL    HW181902   4.980   2.999   8.855 -0.1724 -0.7426 -0.6859
27108SOL    HW281903   5.129   3.025   8.868 -0.2058 -0.5812 -0.6215
27109SOL     OW81904   0.189   1.164   1.350 -0.0420  0.0222 -0.5679
27109SOL    HW181905   0.264   1.221   1.335  0.7008 -0.2407  1.7439
27109SOL    HW281906   0.113   1.219   1.334  0.6516  0.9625 -0.6945
27110SOL     OW81907   5.198   8.053   3.481 -0.0182  0.1567 -0.4613
27110SOL    HW181908   5.261   8.084   3.546  1.0401 -0.7051 -1.0453
27110SOL    HW281909   5.154   7.979   3.523  1.1142 -0.8076 -0.9243
27111SOL     OW81910   2.004   6.468   2.737  0.2519 -0.2342 -0.3534
27111SOL    HW181911   2.076   6.443   2.796  0.0923  0.5643  0.1915
27111SOL    HW281912   1.925   6.453   2.788 -0.0993 -2.3167 -1.3733
27112SOL     OW81913   3.465   4.080   5.230  0.1419  0.2911  0.3424
27112SOL    HW181914   3.412   4.159   5.230 -0.9480 -0.4125  0.2579
27112SOL    HW281915   3.442   4.036   5.148  0.7896 -0.0765  0.3540
27113SOL     OW81916   7.139   3.138   7.933 -0.4217 -0.1700  0.2674
27113SOL    HW181917   7.195   3.140   7.855 -0.3180 -3.0445  0.1560
27113SOL    HW281918   7.055   3.172   7.904  0.4687  1.7102 -0.2488
27114SOL     OW81919   9.550   3.537   6.372 -0.3565 -0.0744  0.3327
27114SOL    HW181920   9.496   3.488   6.309  1.0281 -1.1838 -0.0391
27114SOL    HW281921   9.529   3.497   6.456  1.3897 -2.0270 -0.0612
27115SOL     OW81922   7.212   3.095   4.483 -0.7009 -0.0316  0.6619
27115SOL    HW181923   7.133   3.045   4.463 -0.0291 -1.0460  0.4465
27115SOL    HW281924   7.186   3.154   4.554 -1.6484 -0.3341  0.5838
27116SOL     OW81925   0.383   1.537  10.005  0.2878  0.1963  0.1666
27116SOL    HW181926   0.304   1.484  10.012  0.8230 -0.7532 -0.8047
27116SOL    HW281927   0.378   1.577   9.918  0.4285  0.8867  0.4646
27117SOL     OW81928   6.455   7.135   9.081  0.5213  0.2685 -0.2997
27117SOL    HW181929   6.466   7.227   9.056  0.8064 -0.2881 -2.4283
27117SOL    HW281930   6.448   7.088   8.998 -1.8741 -1.3953  0.7143
27118SOL     OW81931   1.809   1.481   8.786  0.8338  0.2507 -0.2031
27118SOL    HW181932   1.834   1.487   8.878 -1.4238 -1.2540  0.6082
27118SOL    HW281933   1.762   1.562   8.768  0.6782  0.2535  0.2080
27119SOL     OW81934   4.928   7.178   7.373 -0.4770 -0.3849  0.4170
27119SOL    HW181935   4.975   7.255   7.403  0.7547 -0.8399 -0.2971
27119SOL    HW281936   4.882   7.206   7.294  0.7830 -0.6136 -0.4235
27120SOL     OW81937   7.615   5.315   9.113 -0.1509 -0.0645 -0.2452
27120SOL    HW181938   7.607   5.399   9.067  0.6489  0.1672  0.0262
27120SOL    HW281939   7.543   5.262   9.079  0.3016  0.1671 -1.6180
27121SOL     OW81940   7.612   9.290   6.411 -0.0067  0.0746  0.5630
27121SOL    HW181941   7.549   9.220   6.430  0.8695 -0.6259  1.0396
27121SOL    HW281942   7.697   9.251   6.433  0.7319  0.5420 -1.2865
27122SOL     OW81943   0.744   7.411   1.901 -0.6015  0.5464  0.0547
27122SOL    HW181944   0.819   7.378   1.851 -0.5960  0.0388  0.3895
27122SOL    HW281945   0.724   7.496   1.862 -1.0774 -0.1676 -1.3466
27123SOL     OW81946   1.349   4.467   3.523  0.7311  0.1499  0.2758
27123SOL    HW181947   1.260   4.443   3.499  1.2857  0.7098 -2.7219
27123SOL    HW281948   1.339   4.540   3.584 -0.8209 -1.2120  1.7490
27124SOL     OW81949   8.894   3.063   8.621  0.6721  0.4043 -0.0657
27124SOL    HW181950   8.856   2.990   8.670  2.8057 -0.1579  0.8591
27124SOL    HW281951   8.821   3.097   8.568 -0.4454 -2.2237 -0.3639
27125SOL     OW81952   7.697   3.318   1.472 -0.5164 -0.3712  0.2901
27125SOL    HW181953   7.713   3.404   1.511  1.8596 -0.2426 -0.8130
27125SOL    HW281954   7.776   3.268   1.492 -0.1964 -1.0417 -2.2964
27126SOL     OW81955   7.561   2.917   0.997 -0.3947  0.3764 -0.4216
27126SOL    HW181956   7.467   2.917   0.977 -1.1096  1.8353  2.4066
27126SOL    HW281957   7.589   3.008   0.982  1.4658 -0.6179 -4.2870
27127SOL     OW81958   0.213   8.444   9.927 -0.1830 -0.2012  0.0259
27127SOL    HW181959   0.280   8.388   9.888  0.5053 -0.3870  1.4148
27127SOL    HW281960   0.163   8.477   9.853  0.2745 -1.5486 -0.9107
27128SOL     OW81961   3.885   9.519   2.141  0.5714  0.3414 -0.5080
27128SOL    HW181962   3.825   9.569   2.196  0.3546 -0.8191  0.3311
27128SOL    HW281963   3.829   9.474   2.078  0.6599  0.1584 -0.4558
27129SOL     OW81964   0.510   1.445   2.282 -0.2104 -0.0856 -0.0531
27129SOL    HW181965   0.486   1.355   2.304  0.4541 -0.4127 -0.6402
27129SOL    HW281966   0.581   1.466   2.343  0.9172 -0.6262 -1.1538
27130SOL     OW81967   9.878   0.998   0.417 -0.4593 -0.1506  0.0779
27130SOL    HW181968   9.854   1.058   0.346 -0.6119 -0.1245  0.1515
27130SOL    HW281969   9.959   1.034   0.453  0.7519 -1.2572 -1.3925
27131SOL     OW81970   1.860   5.989   2.103 -0.2156 -0.2610  0.1455
27131SOL    HW181971   1.767   6.012   2.102 -0.4779 -1.2596  0.4347
27131SOL    HW281972   1.900   6.051   2.163 -0.7053  0.1346  0.0634
27132SOL     OW81973   9.365   5.968   3.044 -0.0171  0.4420 -0.0770
27132SOL    HW181974   9.308   5.927   3.110  0.6515  0.9818  0.8718
27132SOL    HW281975   9.310   5.977   2.967 -0.4726 -1.3188 -0.0020
27133SOL     OW81976   1.466   7.831   1.551  0.1555 -0.5447 -0.1511
27133SOL    HW181977   1.561   7.829   1.539  0.1148  0.4904 -0.7674
27133SOL    HW281978   1.454   7.835   1.646  0.7172 -0.7929 -0.0658
27134SOL     OW81979   1.013   4.996   5.303 -0.2530  0.3648  0.0164
27134SOL    HW181980   1.093   5.047   5.289 -0.0688  0.4439  1.2355
27134SOL    HW281981   0.967   4.999   5.218  0.7560  0.7879 -0.5319
27135SOL     OW81982   8.948   5.956   0.182  0.2361  0.1367 -0.3141
27135SOL    HW181983   9.043   5.966   0.178  0.2181  0.1370 -0.7104
27135SOL    HW281984   8.916   5.992   0.100 -0.0079 -1.0947 -0.7738
27136SOL     OW81985   4.083   7.727   9.675  0.1126 -0.8487 -0.3734
27136SOL    HW181986   4.002   7.767   9.708  0.8047  0.3321 -0.0669
27136SOL    HW281987   4.148   7.745   9.743  0.9513 -0.6086 -1.2214
27137SOL     OW81988   3.773   5.188   6.909  0.0295  0.3158  0.5566
27137SOL    HW181989   3.806   5.200   6.820  0.3034  0.2698  0.6483
27137SOL    HW281990   3.805   5.101   6.935 -0.7496 -0.0265  0.4026
27138SOL     OW81991   3.093   0.180   4.612  0.3755  0.0577  0.1086
27138SOL    HW181992   3.030   0.113   4.585  0.2413  0.4525 -0.5938
27138SOL    HW281993   3.174   0.156   4.567  1.2147 -1.3355  2.2092
27139SOL     OW81994   5.081   7.074   9.372 -0.5335  0.2162 -0.6718
27139SOL    HW181995   4.998   7.033   9.393 -0.5775  0.1175 -1.0248
27139SOL    HW281996   5.057   7.154   9.324 -0.4815  1.1021  0.7069
27140SOL     OW81997   8.113   4.577   9.800  0.5445  0.3667 -0.2820
27140SOL    HW181998   8.040   4.549   9.745 -0.8110  0.2767  1.4796
27140SOL    HW281999   8.098   4.670   9.815 -0.9295 -0.1867  2.4015
27141SOL     OW82000   1.098   3.383   7.026  0.0189 -0.6201 -0.0115
27141SOL    HW182001   1.191   3.362   7.033  0.0686 -1.2943 -1.9813
27141SOL    HW282002   1.060   3.307   6.983 -1.1556  0.2785 -0.6164
27142SOL     OW82003   9.814   4.582   6.079 -0.3587  0.6739 -0.4238
27142SOL    HW182004   9.724   4.593   6.112 -1.6288 -0.5116 -3.1926
27142SOL    HW282005   9.869   4.599   6.156 -2.9231  1.2326  1.4526
27143SOL     OW82006   9.865   3.670   2.207  0.0868 -0.1286  0.3008
27143SOL    HW182007   9.806   3.682   2.281  0.3626 -0.5173  0.5865
27143SOL    HW282008   9.825   3.601   2.154 -0.6132  0.8122 -0.4387
27144SOL     OW82009   9.411   2.697   9.613  0.4905  0.4413 -0.1555
27144SOL    HW182010   9.394   2.791   9.617  1.2360  0.6388 -1.2355
27144SOL    HW282011   9.387   2.664   9.700 -0.2164  1.5491  0.0836
27145SOL     OW82012   0.535   3.941   4.801  0.5184 -0.5674 -0.2427
27145SOL    HW182013   0.575   3.907   4.721  2.1741  1.6878 -0.4892
27145SOL    HW282014   0.471   3.876   4.826  0.1878 -1.5160 -3.2194
27146SOL     OW82015   7.452   8.139   3.014 -0.1081 -0.1366 -0.5414
27146SOL    HW182016   7.530   8.089   3.040 -1.2843 -1.6540  0.2353
27146SOL    HW282017   7.402   8.079   2.959 -0.4948  1.0067 -1.4804
27147SOL     OW82018   3.782   9.374   1.651 -0.6542 -0.1084  0.9412
27147SOL    HW182019   3.694   9.340   1.668 -0.7955 -1.0943 -1.4305
27147SOL    HW282020   3.801   9.348   1.561  1.8869  0.5154  1.2294
27148SOL     OW82021   9.229   3.637   2.525 -0.1422 -0.3595  0.5149
27148SOL    HW182022   9.228   3.618   2.619 -0.6583  1.0991  0.8437
27148SOL    HW282023   9.149   3.689   2.511 -1.8690 -3.2602 -1.3831
27149SOL     OW82024   9.437   3.184   7.069 -0.2716 -1.0412 -0.5275
27149SOL    HW182025   9.439   3.178   7.164 -2.2402 -1.4223 -0.4755
27149SOL    HW282026   9.516   3.137   7.041  0.2691 -1.0375  0.8838
27150SOL     OW82027   0.295   9.278   1.280  0.2161 -0.2777  0.7685
27150SOL    HW182028   0.383   9.278   1.241 -1.0129 -0.1236 -2.2543
27150SOL    HW282029   0.297   9.351   1.342  2.3476 -0.5957  1.1601
27151SOL     OW82030   9.446   8.559   0.345 -0.5219  0.3136  0.0774
27151SOL    HW182031   9.528   8.526   0.383 -0.7063 -0.5231 -0.2407
27151SOL    HW282032   9.407   8.611   0.416 -0.1537 -0.0254  0.5385
27152SOL     OW82033   0.681   8.387   8.472 -0.4455 -0.4568  0.0009
27152SOL    HW182034   0.592   8.357   8.455 -1.0101  1.2377 -0.2687
27152SOL    HW282035   0.691   8.464   8.416  0.8685 -0.0643  0.7273
27153SOL     OW82036   9.547   6.664   6.187 -0.2422  0.2335  0.0519
27153SOL    HW182037   9.505   6.641   6.270  1.6828 -0.6619  0.8381
27153SOL    HW282038   9.505   6.607   6.123 -1.4660  0.6359  0.4645
27154SOL     OW82039   2.061   8.173   7.893 -0.4423 -0.0399 -0.2351
27154SOL    HW182040   1.980   8.223   7.883  0.1071  0.5719 -1.7960
27154SOL    HW282041   2.114   8.197   7.818  0.5461 -1.6699 -0.1013
27155SOL     OW82042   6.601   8.550   4.060  0.3104  0.0377  0.3431
27155SOL    HW182043   6.593   8.455   4.056 -0.5971  0.1247 -0.6088
27155SOL    HW282044   6.514   8.581   4.084  0.0102  0.6925 -1.3951
27156SOL     OW82045   3.735   3.316   2.618  0.4969 -0.2417  0.2990
27156SOL    HW182046   3.735   3.240   2.676  0.0897  0.6244  1.4743
27156SOL    HW282047   3.773   3.386   2.671  1.4418  0.2427 -0.9677
27157SOL     OW82048   5.943   6.682   8.651 -0.6072  0.3425 -0.0808
27157SOL    HW182049   5.960   6.665   8.743 -1.3962  1.0357  0.2096
27157SOL    HW282050   6.025   6.663   8.607 -0.7494 -1.8074  0.5068
27158SOL     OW82051   4.548   9.113   5.001 -0.0600  0.0551 -0.2385
27158SOL    HW182052   4.563   9.200   5.038  1.9680 -0.6263  0.7127
27158SOL    HW282053   4.483   9.126   4.933 -0.5827  2.1270  0.5977
27159SOL     OW82054   6.940   7.565   3.709 -0.3368 -0.4561 -0.4157
27159SOL    HW182055   6.959   7.601   3.622  0.8042  0.4504  0.1889
27159SOL    HW282056   7.026   7.555   3.750 -0.7776 -1.8596  0.2467
27160SOL     OW82057   4.066   1.851   3.284 -0.1880  0.4582  0.0359
27160SOL    HW182058   4.045   1.822   3.373  0.4668  0.6286  0.2494
27160SOL    HW282059   4.010   1.797   3.228  1.0485 -1.3183  0.4086
27161SOL     OW82060   1.700   4.612   8.568 -0.2877  0.4878  0.1825
27161SOL    HW182061   1.604   4.616   8.564 -0.2479  1.2072 -0.4357
27161SOL    HW282062   1.728   4.623   8.477  0.4111  1.6702  0.5204
27162SOL     OW82063   3.047   7.054   0.766  0.5487 -0.9512  0.2875
27162SOL    HW182064   3.082   7.142   0.750 -0.2923 -0.3622  1.4943
27162SOL    HW282065   3.095   6.997   0.706  0.9495  0.3657 -0.6777
27163SOL     OW82066   9.060   7.199   2.510  0.4121  0.0875  0.5179
27163SOL    HW182067   9.126   7.132   2.492  0.4818 -0.0569  1.2426
27163SOL    HW282068   8.978   7.160   2.481  0.6338  0.2568 -0.3619
27164SOL     OW82069   0.993   6.980   6.044 -0.3081  0.7892  0.3619
27164SOL    HW182070   0.919   7.011   5.991  0.2396  1.2854 -0.1247
27164SOL    HW282071   1.067   7.034   6.016 -0.2045  1.7653  2.3572
27165SOL     OW82072   3.012   4.584   4.272 -0.4681  0.3610 -0.0268
27165SOL    HW182073   3.035   4.655   4.331  0.4761  0.8768 -0.9845
27165SOL    HW282074   3.095   4.543   4.249 -0.6416  1.0159 -2.0194
27166SOL     OW82075   7.155   7.089   3.275 -0.1347  0.7859 -0.2041
27166SOL    HW182076   7.214   7.017   3.298  0.7195  0.8876 -1.9114
27166SOL    HW282077   7.079   7.046   3.235 -0.4737  0.7468  0.4711
27167SOL     OW82078   9.629   3.376   7.879  0.0337  0.5636  0.4263
27167SOL    HW182079   9.546   3.337   7.851 -0.0828  2.4318 -2.2865
27167SOL    HW282080   9.616   3.400   7.971 -1.7998 -0.7156  0.5314
27168SOL     OW82081   4.361   9.716   3.668  0.1682 -0.4901 -0.2897
27168SOL    HW182082   4.274   9.678   3.654  0.4160 -1.2152  0.0573
27168SOL    HW282083   4.362   9.742   3.761 -0.6622  2.1704 -0.9428
27169SOL     OW82084   0.790   9.828   9.112  0.1337  0.1817 -0.0839
27169SOL    HW182085   0.880   9.857   9.120  0.2922 -0.5254  0.7858
27169SOL    HW282086   0.768   9.844   9.020  0.9722  0.8149 -0.1863
27170SOL     OW82087   1.430   8.412   6.523 -0.2422 -0.4928  0.3854
27170SOL    HW182088   1.446   8.319   6.507  2.6862 -0.2129  1.0600
27170SOL    HW282089   1.449   8.454   6.439 -0.0061 -0.3888  0.4884
27171SOL     OW82090   7.507   3.606   5.103  0.1167 -0.5359  0.0789
27171SOL    HW182091   7.489   3.687   5.055  0.2958 -0.7062 -0.2825
27171SOL    HW282092   7.430   3.593   5.158 -1.3099 -1.7337 -2.0811
27172SOL     OW82093   9.439   8.815   6.290 -0.5966 -0.3550  0.2459
27172SOL    HW182094   9.404   8.727   6.298  0.2148 -0.6408  0.7973
27172SOL    HW282095   9.526   8.811   6.332  0.3415  0.1845 -1.5442
27173SOL     OW82096   6.911   0.159   4.632  0.4315  0.3770 -0.5783
27173SOL    HW182097   6.918   0.142   4.726 -0.7430 -2.5996 -0.9057
27173SOL    HW282098   6.822   0.194   4.621 -0.3945 -1.6141 -0.7458
27174SOL     OW82099   9.011   1.983   8.441 -0.3987  0.1629  1.1487
27174SOL    HW182100   8.992   1.943   8.526  0.5165  0.9679  1.7380
27174SOL    HW282101   9.094   1.943   8.414  0.4437  1.5223  1.6699
27175SOL     OW82102   5.219   6.585   5.669  0.2685  0.4104  0.4449
27175SOL    HW182103   5.266   6.507   5.639 -1.4150 -0.7681  0.7451
27175SOL    HW282104   5.161   6.608   5.596  1.7092  2.2872 -0.2100
27176SOL     OW82105   8.606   2.195   1.997 -0.1547 -0.2268  0.5092
27176SOL    HW182106   8.530   2.223   1.947 -0.8270 -1.4244  0.8235
27176SOL    HW282107   8.578   2.116   2.042  0.7723  0.2046  1.9323
27177SOL     OW82108   4.833   7.530   3.120  0.7502 -0.8196 -0.4721
27177SOL    HW182109   4.913   7.542   3.068 -0.1084 -0.8923 -1.8816
27177SOL    HW282110   4.763   7.561   3.062 -0.4800 -2.9271 -0.1830
27178SOL     OW82111   2.377   8.681   1.656 -0.3733 -0.0617 -0.2724
27178SOL    HW182112   2.410   8.629   1.582 -0.3257 -1.1262  0.4732
27178SOL    HW282113   2.301   8.631   1.687 -0.7159  0.6652  0.0596
27179SOL     OW82114   3.255   9.616   3.343  0.4747  0.2547 -0.7077
27179SOL    HW182115   3.341   9.617   3.385  0.5367  1.7951 -0.7902
27179SOL    HW282116   3.212   9.695   3.375 -0.6017 -0.0693 -1.2968
27180SOL     OW82117   9.879   7.021   3.410  0.1320  0.1190  0.5858
27180SOL    HW182118   9.811   7.029   3.343  0.6073  2.3087  0.2995
27180SOL    HW282119   9.863   6.935   3.450 -0.5899 -0.9757 -1.8391
27181SOL     OW82120   0.707   8.656   8.309 -0.0611 -0.1413 -0.5037
27181SOL    HW182121   0.660   8.607   8.241 -0.2516  0.4691 -0.8224
27181SOL    HW282122   0.792   8.677   8.269 -0.8030  1.7058 -1.2401
27182SOL     OW82123   4.621   1.913   3.048 -0.3773  0.0232  0.2264
27182SOL    HW182124   4.601   1.819   3.044 -1.0101  0.0636  1.6410
27182SOL    HW282125   4.636   1.938   2.957  1.4885 -1.7948 -0.0510
27183SOL     OW82126   9.342   8.652   8.350 -0.2235  0.1970 -0.4046
27183SOL    HW182127   9.252   8.636   8.377 -0.5687  1.3341 -0.8391
27183SOL    HW282128   9.366   8.574   8.300 -0.7402 -0.4000  0.2628
27184SOL     OW82129   9.617   8.041   0.260 -0.1359  0.4437  0.7616
27184SOL    HW182130   9.684   8.066   0.196 -0.1291 -1.5592 -0.0746
27184SOL    HW282131   9.648   8.077   0.343  2.6042 -1.3810  0.6324
27185SOL     OW82132   0.339   0.622   1.068 -0.4657 -0.6163  0.2728
27185SOL    HW182133   0.277   0.664   1.127 -1.4466 -1.3805 -0.1931
27185SOL    HW282134   0.302   0.634   0.981  0.9778  0.5063 -0.2220
27186SOL     OW82135   0.497   4.599   8.005 -0.3638  0.4671  0.2881
27186SOL    HW182136   0.565   4.630   7.945 -0.1436 -0.8031 -0.1662
27186SOL    HW282137   0.518   4.640   8.089  0.2242  1.0700 -0.1387
27187SOL     OW82138   9.797   4.595   2.286 -0.5527  0.7927 -0.1519
27187SOL    HW182139   9.774   4.687   2.280  0.9414  1.1850 -0.2190
27187SOL    HW282140   9.888   4.591   2.255 -0.5020 -0.6545  0.1153
27188SOL     OW82141   5.394   7.448   7.669  0.1120 -0.6651 -0.3302
27188SOL    HW182142   5.347   7.365   7.666  0.4017 -0.8090 -0.9746
27188SOL    HW282143   5.345   7.501   7.732 -1.1952 -0.6265 -1.3547
27189SOL     OW82144   0.731   4.413   8.866 -0.3951 -0.1896  0.5116
27189SOL    HW182145   0.637   4.404   8.850 -0.1733 -0.8973 -0.4897
27189SOL    HW282146   0.739   4.412   8.962 -1.2335 -2.2865  0.6106
27190SOL     OW82147   8.949   4.289   1.605 -0.1735 -0.6932  0.0952
27190SOL    HW182148   8.927   4.374   1.643 -1.5936 -0.6655 -0.6839
27190SOL    HW282149   8.934   4.301   1.511 -1.0611 -1.9731  0.0513
27191SOL     OW82150   2.199   5.008   4.014  0.1012 -0.5231 -0.0784
27191SOL    HW182151   2.113   4.989   3.979 -0.5951  0.6781  0.8992
27191SOL    HW282152   2.235   5.076   3.957 -0.2861  0.1381  0.4510
27192SOL     OW82153   6.804   1.546   3.163 -1.2075 -0.1733  0.0131
27192SOL    HW182154   6.863   1.504   3.226 -0.0742  2.8613  1.1341
27192SOL    HW282155   6.858   1.564   3.087 -1.6198 -0.4746 -0.3579
27193SOL     OW82156   6.558   8.347   8.473 -0.2136  0.1939  0.1901
27193SOL    HW182157   6.480   8.363   8.419 -0.1853  1.6186  0.5443
27193SOL    HW282158   6.556   8.253   8.489 -1.4790  0.0939 -0.3881
27194SOL     OW82159   4.151   3.588   8.335  0.3331  0.3929 -0.2822
27194SOL    HW182160   4.192   3.650   8.275 -1.9025  1.1220 -1.1381
27194SOL    HW282161   4.120   3.642   8.408  1.0679 -0.1766  0.4658
27195SOL     OW82162   0.678   1.174   2.452 -0.1912  0.2333  0.5323
27195SOL    HW182163   0.756   1.196   2.401 -0.4713  0.0330 -0.0034
27195SOL    HW282164   0.693   1.084   2.480  0.3646  0.6444  1.5858
27196SOL     OW82165   6.043   2.637   2.517  0.6199 -0.6639 -0.3539
27196SOL    HW182166   6.063   2.720   2.475 -1.7608  0.5686  0.7807
27196SOL    HW282167   6.075   2.647   2.607  0.5697 -1.0902 -0.2847
27197SOL     OW82168   0.993   6.382   7.843  0.2400  0.1711  0.4065
27197SOL    HW182169   1.082   6.367   7.810 -0.3165  0.8085 -1.5448
27197SOL    HW282170   0.980   6.476   7.834  0.3465  0.5987  3.5074
27198SOL     OW82171   8.746   1.330   0.744 -0.0853 -0.0560  0.0378
27198SOL    HW182172   8.681   1.294   0.803 -0.4003 -1.3088 -1.0250
27198SOL    HW282173   8.720   1.299   0.657  0.2573  1.8518 -0.8159
27199SOL     OW82174   1.079   9.118   6.580 -0.7553 -0.3421  0.0145
27199SOL    HW182175   1.083   9.037   6.631  0.2066 -1.3681 -1.6076
27199SOL    HW282176   1.090   9.188   6.645 -2.3064 -1.4311  1.5482
27200SOL     OW82177   5.698   4.098   7.215  0.1542 -0.3411 -0.0729
27200SOL    HW182178   5.646   4.018   7.213  1.1366 -1.0624  1.3090
27200SOL    HW282179   5.642   4.161   7.260 -0.1379 -0.6422 -0.0080
27201SOL     OW82180   1.128   7.224   0.823 -0.3055 -0.2657 -0.4735
27201SOL    HW182181   1.168   7.163   0.885 -0.2294  0.3623  0.1012
27201SOL    HW282182   1.198   7.283   0.798 -0.3178 -0.5695 -1.2295
27202SOL     OW82183   9.244   3.988   0.964  0.2417  0.0886 -0.3108
27202SOL    HW182184   9.231   4.045   0.888  1.6915 -1.1580 -1.5508
27202SOL    HW282185   9.216   3.901   0.934  1.2611 -0.5171  0.4268
27203SOL     OW82186   8.919   9.074   9.543 -0.5821 -0.1698  0.0398
27203SOL    HW182187   8.913   9.169   9.550 -0.7726 -0.1897  0.1499
27203SOL    HW282188   8.909   9.056   9.450  1.2041  0.0461 -0.2322
27204SOL     OW82189   0.485   7.127   2.672  0.8385  0.5673  0.3468
27204SOL    HW182190   0.462   7.219   2.665 -2.1240 -0.0247  1.2309
27204SOL    HW282191   0.440   7.096   2.750  1.7265 -1.6664  0.0531
27205SOL     OW82192   3.661   0.818   4.725  0.7234  0.2004  0.0901
27205SOL    HW182193   3.691   0.902   4.691  0.1496  0.5635  0.4555
27205SOL    HW282194   3.738   0.781   4.770  0.7869  0.8472  0.5175
27206SOL     OW82195   5.905   2.438   5.886  0.3992  0.4725 -0.1184
27206SOL    HW182196   5.884   2.447   5.979  1.2527  0.5270  0.0799
27206SOL    HW282197   5.823   2.457   5.841 -0.0887  0.2019  0.6285
27207SOL     OW82198   4.825   7.881   3.710 -0.0697  0.1004  0.1121
27207SOL    HW182199   4.754   7.888   3.646  0.2660 -0.7186 -0.3617
27207SOL    HW282200   4.836   7.970   3.744 -0.7525  0.3953 -0.4276
27208SOL     OW82201   0.030   1.353   0.612  0.1644 -0.2866 -0.0960
27208SOL    HW182202   0.057   1.303   0.688 -0.4481  1.1071  1.0847
27208SOL    HW282203  -0.065   1.362   0.621  0.3245  1.6691  0.1606
27209SOL     OW82204   3.297   6.896   3.281 -0.2470  0.0934  0.2430
27209SOL    HW182205   3.341   6.868   3.362 -1.3047  1.8788  1.4973
27209SOL    HW282206   3.204   6.884   3.299 -0.4812  0.1070 -0.8858
27210SOL     OW82207   3.465   5.205   7.712 -0.2664 -0.2312  0.5488
27210SOL    HW182208   3.482   5.132   7.771  0.8511  0.5773  1.2624
27210SOL    HW282209   3.550   5.246   7.698 -0.5854 -0.0931 -1.2350
27211SOL     OW82210   2.747   2.732   5.129 -0.3563 -0.7845  0.3668
27211SOL    HW182211   2.680   2.769   5.071 -0.0194 -1.3948 -0.4393
27211SOL    HW282212   2.819   2.795   5.125 -0.4975 -0.6167  0.4546
27212SOL     OW82213   6.735   4.209   1.355  0.7026  0.0215  0.4141
27212SOL    HW182214   6.646   4.229   1.329  0.2346 -2.7864 -0.4581
27212SOL    HW282215   6.732   4.205   1.451 -0.4600 -1.2636  0.3580
27213SOL     OW82216   5.444   8.669   9.104  0.1895 -0.2569 -0.0244
27213SOL    HW182217   5.359   8.628   9.085 -0.3925  0.7576  0.3001
27213SOL    HW282218   5.427   8.724   9.181  0.6400  1.4492 -1.0831
27214SOL     OW82219   2.975   3.987   6.442  0.1957  0.1275 -0.5980
27214SOL    HW182220   2.988   3.996   6.536  1.0456 -2.2491 -0.4310
27214SOL    HW282221   3.051   4.032   6.404 -0.5677  1.8084 -0.2304
27215SOL     OW82222   1.378   9.334   2.039 -0.4988  0.0458 -0.4427
27215SOL    HW182223   1.450   9.377   1.994 -0.1249 -1.2984 -1.1684
27215SOL    HW282224   1.304   9.342   1.980 -0.3428 -0.5810 -0.7298
27216SOL     OW82225   7.225   3.902   6.394  0.8064 -0.0191  0.0301
27216SOL    HW182226   7.132   3.918   6.377  0.5907 -0.5397  0.6723
27216SOL    HW282227   7.239   3.937   6.482  1.6885  1.8039 -0.7717
27217SOL     OW82228   2.710   7.868   2.242  0.2626  0.4143  0.1282
27217SOL    HW182229   2.761   7.789   2.226 -0.0992  0.0067  0.9273
27217SOL    HW282230   2.639   7.865   2.178  0.9447  0.7379 -0.6671
27218SOL     OW82231   9.514   1.821   7.893  0.2805  0.0410  0.2091
27218SOL    HW182232   9.535   1.806   7.801  1.4116 -1.5101  0.6701
27218SOL    HW282233   9.490   1.913   7.898 -2.0349 -0.3310 -2.0158
27219SOL     OW82234   6.044   1.617   7.467 -0.3122  0.1529  0.0064
27219SOL    HW182235   5.987   1.694   7.473 -0.5984 -0.1359  1.4067
27219SOL    HW282236   5.996   1.557   7.410 -0.2695  0.8457 -0.7787
27220SOL     OW82237   5.963   3.723   6.402 -0.1637 -0.2656  0.0075
27220SOL    HW182238   5.916   3.784   6.345 -0.2610 -0.0550  0.3077
27220SOL    HW282239   6.031   3.776   6.443 -0.3913 -0.3049  0.4420
27221SOL     OW82240   9.555   5.193   2.984  0.1612  0.2216  0.3310
27221SOL    HW182241   9.570   5.114   2.933  0.5642 -0.6303  1.7032
27221SOL    HW282242   9.640   5.211   3.025 -0.3265  0.4199  1.2988
27222SOL     OW82243   0.086   2.692   4.861  0.0807 -0.2454 -0.4628
27222SOL    HW182244   0.091   2.759   4.928  0.1775  0.5980 -1.2916
27222SOL    HW282245   0.005   2.645   4.880  0.0619  0.0370  0.1843
27223SOL     OW82246   9.562   1.298   2.188  0.0805  0.5645  0.5146
27223SOL    HW182247   9.609   1.381   2.181 -0.4054  0.8024 -0.0489
27223SOL    HW282248   9.548   1.285   2.282 -1.3369  1.9885  0.5359
27224SOL     OW82249   2.635   1.054   3.876  0.3670 -0.4973 -0.7528
27224SOL    HW182250   2.566   1.087   3.818 -0.1596  1.3497  0.8088
27224SOL    HW282251   2.711   1.110   3.857  0.1694  0.1693  0.3135
27225SOL     OW82252   8.333   9.488   4.217 -0.1979  0.1315  1.1316
27225SOL    HW182253   8.259   9.549   4.219  1.6002  2.7491 -1.8430
27225SOL    HW282254   8.300   9.411   4.171 -1.6183  0.3317  1.7726
27226SOL     OW82255   1.427   0.216   4.119  0.2725 -0.0458  0.0758
27226SOL    HW182256   1.333   0.221   4.102  0.2267 -2.3552 -0.6773
27226SOL    HW282257   1.437   0.142   4.178  1.4693  1.5406  2.0174
27227SOL     OW82258   8.664   2.768   0.388 -0.3667  0.0784  0.1373
27227SOL    HW182259   8.726   2.698   0.405 -2.7240 -2.3842 -0.6102
27227SOL    HW282260   8.697   2.812   0.309  2.0241  1.0267  1.5531
27228SOL     OW82261   5.563   8.932   9.042  0.5220  0.6328  0.4062
27228SOL    HW182262   5.585   8.933   9.135 -0.0109 -0.3512  0.5593
27228SOL    HW282263   5.573   8.840   9.017 -1.2098  0.5262 -0.0374
27229SOL     OW82264   0.949   6.919   4.841 -0.2456 -0.0828  0.3093
27229SOL    HW182265   0.885   6.955   4.901  0.4453  2.4481 -0.3514
27229SOL    HW282266   1.030   6.913   4.892  0.2344  1.6649 -0.1873
27230SOL     OW82267   3.858   2.506   8.290  0.1136  0.5432 -0.3500
27230SOL    HW182268   3.774   2.518   8.333  0.6773 -0.5104  1.1020
27230SOL    HW282269   3.864   2.411   8.275  1.3200  0.5229  0.1730
27231SOL     OW82270   9.259   0.285   2.002  0.8263 -0.1805 -0.2526
27231SOL    HW182271   9.286   0.366   1.958  1.3752 -0.0497  0.3174
27231SOL    HW282272   9.322   0.220   1.971  1.1318 -0.1175  0.2262
27232SOL     OW82273   9.898   8.690   3.563  0.4637 -0.6136 -0.1077
27232SOL    HW182274   9.879   8.742   3.486  0.5213  1.5963  1.2838
27232SOL    HW282275   9.812   8.672   3.601  0.4997 -0.7784 -0.1016
27233SOL     OW82276   2.532   9.759   6.870 -0.2604 -0.5557 -0.3108
27233SOL    HW182277   2.439   9.781   6.868 -0.1998 -0.3148 -0.6978
27233SOL    HW282278   2.534   9.664   6.882 -0.5243 -0.3807  1.2438
27234SOL     OW82279   1.124   9.209   4.323 -0.1995  0.0693 -0.2890
27234SOL    HW182280   1.073   9.141   4.278  1.4098 -0.6120 -1.1624
27234SOL    HW282281   1.214   9.178   4.317  0.4824  1.9350 -0.0388
27235SOL     OW82282   1.343   7.764   2.799 -0.1529 -0.1276 -0.9148
27235SOL    HW182283   1.381   7.851   2.786 -0.2282 -0.2801 -2.2988
27235SOL    HW282284   1.360   7.718   2.717 -2.0773 -0.6801 -1.0509
27236SOL     OW82285   8.773   1.934   2.196  0.0688 -0.1209 -0.1833
27236SOL    HW182286   8.685   1.917   2.164 -0.0903 -1.2864  0.8022
27236SOL    HW282287   8.763   2.007   2.257 -0.1388  0.0377 -0.4065
27237SOL     OW82288   7.006   2.343   9.595  0.4532 -0.3944 -0.3380
27237SOL    HW182289   7.025   2.386   9.511 -1.0531  2.4800  0.6362
27237SOL    HW282290   7.038   2.404   9.661 -0.7587 -1.3126  1.1755
27238SOL     OW82291   0.323   3.332   2.321 -0.1651  0.2962  0.3023
27238SOL    HW182292   0.351   3.406   2.268  0.6320 -0.4792 -0.4032
27238SOL    HW282293   0.404   3.297   2.357 -0.7175  0.9835  2.3175
27239SOL     OW82294   7.523   3.328   4.772  0.5192 -0.0156  0.2227
27239SOL    HW182295   7.573   3.406   4.748  1.1689  0.0891  1.7705
27239SOL    HW282296   7.432   3.356   4.772  0.5293  0.0872 -1.5588
27240SOL     OW82297   7.919   5.291   5.255  0.5436 -0.3119 -0.1659
27240SOL    HW182298   7.883   5.298   5.166  0.3349 -0.1950 -0.0728
27240SOL    HW282299   8.010   5.264   5.242  0.9499  1.1121 -0.4859
27241SOL     OW82300   8.654   7.692   8.720 -0.2736  0.2551 -0.0483
27241SOL    HW182301   8.652   7.663   8.629  0.6820  0.6682 -0.2131
27241SOL    HW282302   8.710   7.769   8.719 -0.4762  0.4252  0.8522
27242SOL     OW82303   7.998   8.714   0.544  0.3325  0.1194  0.3238
27242SOL    HW182304   7.950   8.677   0.469  0.4097 -0.3583  0.5119
27242SOL    HW282305   8.007   8.807   0.522  0.6277 -0.0733 -0.4066
27243SOL     OW82306   8.624   2.895   3.826  0.7088 -0.1602 -0.2507
27243SOL    HW182307   8.584   2.817   3.863  0.1459 -0.4135 -1.3451
27243SOL    HW282308   8.715   2.869   3.807  1.6439  0.5704  2.7086
27244SOL     OW82309   5.119   3.796   0.976 -0.0601  0.5167 -0.1492
27244SOL    HW182310   5.113   3.702   0.957  1.9856  0.5307 -1.0895
27244SOL    HW282311   5.210   3.818   0.958 -0.3268  2.5522  0.7714
27245SOL     OW82312   6.944   9.896   3.584  0.3470  0.6636 -0.1889
27245SOL    HW182313   6.957   9.985   3.617 -3.1308  1.3969 -0.4178
27245SOL    HW282314   6.849   9.883   3.585  0.5594 -2.2141 -2.4085
27246SOL     OW82315   7.068   0.375   8.213  0.4632  0.2050  0.3401
27246SOL    HW182316   7.063   0.287   8.250  1.4606  0.5762  1.3995
27246SOL    HW282317   6.987   0.384   8.162  0.9336 -1.7830 -0.8599
27247SOL     OW82318   9.045   6.314   0.853 -0.7073  0.1403 -0.7752
27247SOL    HW182319   8.995   6.383   0.896  0.2371  0.6704 -0.4873
27247SOL    HW282320   8.979   6.256   0.816 -1.5308  1.0408 -0.7690
27248SOL     OW82321   4.127   7.369   0.312 -0.2957  0.3501  0.6635
27248SOL    HW182322   4.113   7.287   0.265  0.2951  0.9916 -0.7015
27248SOL    HW282323   4.048   7.421   0.294 -0.2200  0.4690  0.6751
27249SOL     OW82324   6.557   5.759   1.456  0.2449 -0.5213 -0.0188
27249SOL    HW182325   6.479   5.769   1.511  0.8170 -1.3336  0.9784
27249SOL    HW282326   6.618   5.709   1.511  2.0374  1.3414 -0.2200
27250SOL     OW82327   8.670   9.147   2.165  0.6886  0.1927 -0.3013
27250SOL    HW182328   8.584   9.124   2.130  0.5316  0.6969 -0.2556
27250SOL    HW282329   8.732   9.107   2.105  0.4208  1.2005 -1.2719
27251SOL     OW82330   9.785   2.633   8.257  0.0324 -0.3436 -0.3455
27251SOL    HW182331   9.821   2.590   8.335 -0.7549  1.1097  0.8795
27251SOL    HW282332   9.691   2.640   8.274  0.2318  2.8432  0.1276
27252SOL     OW82333   4.167   1.036   4.370 -0.1394  0.3951 -0.1700
27252SOL    HW182334   4.079   1.028   4.407 -0.8426  1.5549 -1.4959
27252SOL    HW282335   4.153   1.071   4.282  1.6536  0.5438 -0.4328
27253SOL     OW82336   6.480   0.374   3.251 -0.4107  0.6413  0.2351
27253SOL    HW182337   6.526   0.422   3.182 -1.2816  0.9528 -0.1323
27253SOL    HW282338   6.519   0.286   3.249  1.6630  1.4594  1.3426
27254SOL     OW82339   1.431   3.779   2.211 -0.1014  0.1587  0.3230
27254SOL    HW182340   1.488   3.709   2.240  0.8747  0.9791  0.4566
27254SOL    HW282341   1.357   3.778   2.272  0.2790 -0.2697  0.7807
27255SOL     OW82342   8.484   9.792   2.213 -0.4827  0.5958 -0.4040
27255SOL    HW182343   8.409   9.789   2.154 -0.9454  0.5902  0.1698
27255SOL    HW282344   8.478   9.711   2.264 -1.8516  1.9143  1.7200
27256SOL     OW82345   8.222   4.678   7.998 -0.1062 -0.8604 -0.1463
27256SOL    HW182346   8.183   4.681   7.911  0.4396  1.7660 -0.3922
27256SOL    HW282347   8.285   4.606   7.994 -1.0217 -1.6376 -1.4673
27257SOL     OW82348   9.315   9.665   5.860 -0.0101  0.5434 -0.0483
27257SOL    HW182349   9.319   9.760   5.870 -2.3445  0.8285 -1.0637
27257SOL    HW282350   9.232   9.640   5.900 -0.4227 -0.7599 -1.6125
27258SOL     OW82351   0.402   7.741   6.539 -0.0729  0.2843  0.0094
27258SOL    HW182352   0.457   7.680   6.490 -0.7597 -0.6249  0.3312
27258SOL    HW282353   0.312   7.713   6.519 -0.5119  2.7403 -1.8016
27259SOL     OW82354   8.812   9.231   6.212  0.5475 -0.0855 -0.4295
27259SOL    HW182355   8.818   9.175   6.135  0.8650  0.3837 -0.7481
27259SOL    HW282356   8.843   9.317   6.182 -1.3694  0.6770 -0.3513
27260SOL     OW82357   3.421   8.529   5.637 -0.3603 -0.3442 -0.0883
27260SOL    HW182358   3.366   8.459   5.602  0.9481 -0.5898 -1.8075
27260SOL    HW282359   3.508   8.490   5.645 -0.1860  0.3051  1.6373
27261SOL     OW82360   9.920   3.146   7.080  0.2821  0.3727 -0.4053
27261SOL    HW182361   9.948   3.162   7.170 -0.8548  0.9048 -0.1213
27261SOL    HW282362   9.980   3.197   7.026  0.4642  0.7097  0.1118
27262SOL     OW82363   6.451   7.380   4.201 -0.6127  0.1783  0.2660
27262SOL    HW182364   6.461   7.292   4.238  1.5646  0.5736  0.7972
27262SOL    HW282365   6.501   7.377   4.119  0.3516  1.1544  0.7892
27263SOL     OW82366   3.082   0.617   9.681  0.6115 -0.1573 -0.2416
27263SOL    HW182367   3.164   0.599   9.727  1.0897 -1.9301 -1.6793
27263SOL    HW282368   3.092   0.705   9.647  0.3004  1.2023  2.8059
27264SOL     OW82369   9.876   7.823   0.729  0.1720  0.6635 -0.1264
27264SOL    HW182370   9.919   7.764   0.667  1.6556  1.0354  0.5128
27264SOL    HW282371   9.897   7.910   0.697 -2.0482  0.9051 -1.0869
27265SOL     OW82372   0.883   4.259   4.873  0.5313  0.1916  0.5290
27265SOL    HW182373   0.949   4.316   4.833  1.4506  0.5427  2.4337
27265SOL    HW282374   0.905   4.171   4.842  2.2426  0.2366  1.5174
27266SOL     OW82375   4.803   3.850   3.868 -0.3372  0.4616 -0.6260
27266SOL    HW182376   4.712   3.859   3.897 -0.5466 -2.1365 -0.2637
27266SOL    HW282377   4.851   3.914   3.921 -1.5721 -0.0703  1.2343
27267SOL     OW82378   9.069   0.727   1.098  0.6229 -0.7359 -0.3157
27267SOL    HW182379   8.976   0.752   1.092  0.8796  0.9514  1.5240
27267SOL    HW282380   9.105   0.751   1.013 -0.1305  1.1586 -0.1706
27268SOL     OW82381   9.661   6.913   7.315  0.0648  0.5553 -0.2918
27268SOL    HW182382   9.723   6.853   7.272  0.8325 -0.7800  2.4040
27268SOL    HW282383   9.587   6.857   7.338 -0.0656  1.0752  0.5755
27269SOL     OW82384   9.383   3.243   3.078 -0.2604 -0.2377  0.0410
27269SOL    HW182385   9.413   3.312   3.138  1.5316 -0.6587 -0.3268
27269SOL    HW282386   9.463   3.203   3.045 -1.2533 -1.5226 -0.9113
27270SOL     OW82387   6.446   8.871   1.848  0.6188  0.1916 -0.3383
27270SOL    HW182388   6.418   8.848   1.937 -0.3753  2.5085  0.0268
27270SOL    HW282389   6.519   8.932   1.861  3.3974 -2.6589 -1.2542
27271SOL     OW82390   6.069   8.084   9.368 -0.4096  0.0851  0.2204
27271SOL    HW182391   6.100   8.166   9.406  2.2733 -0.9393  0.5344
27271SOL    HW282392   6.102   8.085   9.278 -1.7892  0.0370 -0.3058
27272SOL     OW82393   2.668   2.017   8.262 -0.2958  0.3928  0.0613
27272SOL    HW182394   2.580   1.999   8.296 -0.8843 -0.2437 -1.6880
27272SOL    HW282395   2.709   1.931   8.257  0.1893  0.6139  0.2182
27273SOL     OW82396   9.588   4.856   2.479  0.6290  0.2844 -0.1279
27273SOL    HW182397   9.591   4.793   2.552  0.5111  0.5602  0.1195
27273SOL    HW282398   9.672   4.846   2.436  1.4934  1.4563  1.1973
27274SOL     OW82399   3.664   3.477   6.032  0.1544  0.0865  0.1622
27274SOL    HW182400   3.673   3.397   6.084  0.7893 -0.1726 -0.3383
27274SOL    HW282401   3.648   3.446   5.943 -2.1023  0.5137  0.3533
27275SOL     OW82402   5.060   6.607   1.045 -0.0151 -0.2982 -0.0189
27275SOL    HW182403   5.018   6.647   1.121  3.0302 -0.5527  1.9623
27275SOL    HW282404   5.003   6.629   0.971 -1.7566  2.2047  1.9295
27276SOL     OW82405   1.575   4.862   1.335 -0.3090 -0.7912  0.2193
27276SOL    HW182406   1.575   4.929   1.402 -0.9031 -0.0254 -0.5243
27276SOL    HW282407   1.569   4.910   1.252 -2.1811 -1.7774 -0.2763
27277SOL     OW82408   3.796   9.217   8.291  0.6847 -0.3289 -0.0437
27277SOL    HW182409   3.852   9.179   8.223  2.3387  1.0978  0.4778
27277SOL    HW282410   3.780   9.307   8.262  3.0553  0.9601  2.3261
27278SOL     OW82411   5.031   9.068   0.313  1.1129  0.0570 -0.4426
27278SOL    HW182412   5.114   9.021   0.315  1.3227  0.3983  1.7182
27278SOL    HW282413   4.965   9.000   0.299  1.5591 -0.6638  0.7798
27279SOL     OW82414   2.667   4.720   3.860 -0.1174 -0.1815 -0.1410
27279SOL    HW182415   2.616   4.775   3.921  0.3342  0.1907 -0.0952
27279SOL    HW282416   2.754   4.758   3.861  0.5214 -1.5704  0.7496
27280SOL     OW82417   9.089   3.941   4.356 -0.3740  0.1228 -0.4222
27280SOL    HW182418   9.106   3.948   4.450  0.4981  0.1660 -0.5812
27280SOL    HW282419   9.131   4.018   4.318  2.3738 -1.6336 -1.2468
27281SOL     OW82420   7.591   2.180   5.783 -0.2640 -0.1691 -0.4017
27281SOL    HW182421   7.554   2.197   5.696 -1.1465  1.3605  0.2587
27281SOL    HW282422   7.601   2.084   5.785 -2.4136 -0.4660 -1.3128
27282SOL     OW82423   7.205   3.323   7.222 -0.6087 -0.1866  0.5507
27282SOL    HW182424   7.188   3.238   7.181  0.5913  0.1966 -0.8354
27282SOL    HW282425   7.145   3.383   7.177  0.4452  0.1682 -0.4133
27283SOL     OW82426   5.352   1.260   3.600  0.0028  0.3844 -0.6117
27283SOL    HW182427   5.338   1.324   3.669 -0.9633 -0.3555 -0.0971
27283SOL    HW282428   5.317   1.302   3.521 -1.5359  0.1275 -0.0936
27284SOL     OW82429   4.760   7.347   5.838 -0.2263 -0.1402 -0.4621
27284SOL    HW182430   4.820   7.406   5.883  1.3090 -0.9505 -1.3734
27284SOL    HW282431   4.738   7.392   5.756 -1.0874  0.2723 -0.0100
27285SOL     OW82432   1.845   7.572   3.123  0.3278  0.0693  0.0053
27285SOL    HW182433   1.793   7.652   3.126 -0.4868 -0.4762  1.0168
27285SOL    HW282434   1.780   7.501   3.117  1.0195 -0.5389 -0.5983
27286SOL     OW82435   0.553   3.867   7.741  0.1948 -0.6936 -0.1405
27286SOL    HW182436   0.601   3.827   7.668  0.8449 -0.6144  0.2353
27286SOL    HW282437   0.581   3.817   7.818  0.2193 -0.1793  0.1847
27287SOL     OW82438   7.499   2.959   9.165  0.1712  0.8212  0.7263
27287SOL    HW182439   7.593   2.969   9.176  0.0710  0.3540  2.4896
27287SOL    HW282440   7.462   3.039   9.201 -0.0993  1.9921 -1.9344
27288SOL     OW82441   7.780   2.374   3.893  0.2002 -0.2669 -0.0788
27288SOL    HW182442   7.792   2.350   3.801 -1.3912 -1.0269 -0.1193
27288SOL    HW282443   7.736   2.459   3.889 -0.5080 -0.6230 -0.0505
27289SOL     OW82444   7.823   5.724   2.778  0.3304 -0.9096  0.3047
27289SOL    HW182445   7.782   5.764   2.702 -1.8506 -2.3040  0.6499
27289SOL    HW282446   7.916   5.741   2.768 -0.0385 -0.0043 -2.0177
27290SOL     OW82447   7.552   0.506   2.750 -0.2590  0.0652 -0.1272
27290SOL    HW182448   7.541   0.479   2.841 -2.5887  1.2110 -0.0020
27290SOL    HW282449   7.503   0.441   2.700 -0.0652  0.1740 -0.4606
27291SOL     OW82450   1.922   7.233   0.561  0.1284 -0.2198  0.0648
27291SOL    HW182451   1.848   7.292   0.578  1.1967  0.9521  0.8398
27291SOL    HW282452   1.930   7.233   0.465  0.8392  1.8978  0.0666
27292SOL     OW82453   6.701   8.764   7.278 -0.6893  0.0619 -0.1712
27292SOL    HW182454   6.666   8.707   7.210 -1.1261  0.0628  0.0490
27292SOL    HW282455   6.624   8.799   7.323 -0.4339  0.9540 -0.3992
27293SOL     OW82456   0.591   5.574   5.804  0.5751  0.9079 -0.1029
27293SOL    HW182457   0.591   5.537   5.716  0.2073  0.9542 -0.1238
27293SOL    HW282458   0.642   5.655   5.797  0.6127  0.8713 -0.2513
27294SOL     OW82459   6.131   8.442   1.851  0.1319  0.0588  0.0599
27294SOL    HW182460   6.053   8.445   1.796 -0.6785 -2.4103  0.9078
27294SOL    HW282461   6.101   8.471   1.938  0.3498 -0.1167  0.1962
27295SOL     OW82462   9.885   4.752   0.789  0.1753 -0.1051  0.2226
27295SOL    HW182463   9.877   4.810   0.864 -0.5403 -1.9665  1.6437
27295SOL    HW282464   9.796   4.724   0.770  0.2701  0.6968 -1.6748
27296SOL     OW82465   2.707   4.710   5.202 -0.0670 -0.2892 -0.1029
27296SOL    HW182466   2.642   4.666   5.148 -1.4471  0.5340  0.8232
27296SOL    HW282467   2.659   4.781   5.244  1.8885  1.6796 -0.9768
27297SOL     OW82468   0.834   6.899   1.226  0.2448 -0.2566  0.0115
27297SOL    HW182469   0.739   6.887   1.221  0.3283 -1.0366  0.1352
27297SOL    HW282470   0.861   6.908   1.134  0.1512 -0.9039 -0.0836
27298SOL     OW82471   3.825   0.934   3.404  0.0175 -0.0777  0.2632
27298SOL    HW182472   3.743   0.889   3.424  0.1489 -1.4139 -1.8391
27298SOL    HW282473   3.894   0.873   3.430  0.2456 -0.3313 -0.8824
27299SOL     OW82474   7.637   1.948   3.685 -0.2047 -0.5094 -0.0524
27299SOL    HW182475   7.565   2.009   3.698 -1.8984 -2.0364 -1.6115
27299SOL    HW282476   7.625   1.882   3.754  0.4040 -0.1736  0.3824
27300SOL     OW82477   1.934   2.034   9.071  0.0542  0.0563  0.1237
27300SOL    HW182478   1.887   2.053   8.989 -1.0544 -1.0492  0.4591
27300SOL    HW282479   2.013   1.989   9.043  1.2770  2.4267 -0.4889
27301SOL     OW82480   4.754   4.549   7.455  0.6579 -0.0481 -0.3264
27301SOL    HW182481   4.767   4.644   7.450  1.0282 -0.1122 -0.5710
27301SOL    HW282482   4.701   4.537   7.534  0.9003  0.3312 -0.1026
27302SOL     OW82483   9.386   3.477   6.659 -0.2421  0.3210  0.4499
27302SOL    HW182484   9.362   3.408   6.721  0.2871 -0.8287 -0.5741
27302SOL    HW282485   9.455   3.526   6.702  1.0716 -1.2952  0.2803
27303SOL     OW82486   1.775   8.024   6.572  0.2281  0.3008  0.3645
27303SOL    HW182487   1.870   8.036   6.568  0.3552 -0.5391  0.7568
27303SOL    HW282488   1.753   7.984   6.487  0.3216 -0.1113  0.5312
27304SOL     OW82489   5.497   9.729   9.313  0.1454  0.1300 -0.4332
27304SOL    HW182490   5.499   9.709   9.219 -0.0457  2.1104 -0.8933
27304SOL    HW282491   5.585   9.706   9.344  0.1809 -0.6348 -1.0548
27305SOL     OW82492   8.385   2.638   4.838  0.3635 -0.0180 -0.0120
27305SOL    HW182493   8.406   2.550   4.807 -1.0987  0.7705 -3.7989
27305SOL    HW282494   8.295   2.632   4.870  1.5445 -0.6005  3.7647
27306SOL     OW82495   9.887   5.743   5.195  0.1514  0.0560  0.6472
27306SOL    HW182496   9.833   5.822   5.190 -1.2073 -0.7929  1.6264
27306SOL    HW282497   9.865   5.703   5.279  1.7290 -0.7434  0.7240
27307SOL     OW82498   7.495   3.990   6.267 -0.0055 -0.3800  0.4957
27307SOL    HW182499   7.404   3.966   6.281  0.3836 -1.7111  0.8675
27307SOL    HW282500   7.538   3.972   6.351  1.4332 -3.9682 -0.8295
27308SOL     OW82501   7.141   6.030   4.104  0.0226 -0.3315 -0.5877
27308SOL    HW182502   7.189   6.107   4.074  0.2055  0.2943  1.2068
27308SOL    HW282503   7.205   5.960   4.104 -0.3529 -0.7814 -3.1022
27309SOL     OW82504   1.975   9.440   5.282 -0.1663 -0.6634 -0.1908
27309SOL    HW182505   2.034   9.476   5.216 -0.7145 -0.1408 -0.3981
27309SOL    HW282506   1.941   9.516   5.328 -0.0382 -1.0088  0.4885
27310SOL     OW82507   4.794   4.779   8.848 -0.1204 -0.1193  0.2956
27310SOL    HW182508   4.758   4.767   8.936  2.1813 -1.7169  1.1357
27310SOL    HW282509   4.853   4.854   8.856 -0.3556  0.1045 -0.0523
27311SOL     OW82510   1.649   4.290   5.115 -0.1456  0.2490 -0.0818
27311SOL    HW182511   1.705   4.318   5.187 -1.3408 -0.0753  0.9894
27311SOL    HW282512   1.608   4.210   5.146  0.4220 -0.7256 -1.6945
27312SOL     OW82513   1.688   0.247   9.712 -0.0623 -0.0360 -0.5133
27312SOL    HW182514   1.702   0.184   9.642  0.6177  0.6067 -0.9754
27312SOL    HW282515   1.771   0.249   9.760 -0.8553 -1.2610  0.9947
27313SOL     OW82516   1.893   3.671   5.552 -0.5528  0.4763  0.2619
27313SOL    HW182517   1.819   3.646   5.497 -0.3447 -0.2220  0.2914
27313SOL    HW282518   1.874   3.761   5.578 -1.5458  0.1991  0.5248
27314SOL     OW82519   6.378   2.395   3.896 -0.3145 -0.6338 -0.4361
27314SOL    HW182520   6.431   2.384   3.816 -0.3518 -1.1987 -0.3910
27314SOL    HW282521   6.294   2.356   3.874 -1.5359  2.2302 -1.2688
27315SOL     OW82522   6.938   7.997   4.447 -0.0566 -0.4746 -0.2110
27315SOL    HW182523   6.871   7.928   4.449 -0.6621  0.0893 -0.4871
27315SOL    HW282524   6.973   8.000   4.536  0.1780 -1.3275 -0.2667
27316SOL     OW82525   4.078   4.546   6.476 -0.1878  0.7967 -0.0544
27316SOL    HW182526   4.154   4.488   6.484 -0.2042  0.4566 -1.8605
27316SOL    HW282527   4.110   4.619   6.422 -0.8347  1.2405  0.1546
27317SOL     OW82528   0.081   7.262   1.363 -0.0476  0.1211  0.2909
27317SOL    HW182529   0.002   7.290   1.316  0.4547 -0.5046 -0.9677
27317SOL    HW282530   0.153   7.294   1.310  0.5609  0.3154  1.2122
27318SOL     OW82531   5.520   8.285   1.620 -0.4600 -0.9169  0.0340
27318SOL    HW182532   5.561   8.311   1.702  2.6914 -1.2929 -1.2817
27318SOL    HW282533   5.455   8.354   1.603  2.8528  2.5194  0.0538
27319SOL     OW82534   3.964   4.723   9.141  0.4573 -0.2137 -0.1179
27319SOL    HW182535   3.971   4.796   9.202 -0.3196  0.2540 -0.5699
27319SOL    HW282536   3.878   4.733   9.101  0.0636 -1.7428  0.2702
27320SOL     OW82537   9.752   2.598   7.815  0.1278 -0.0543 -0.1298
27320SOL    HW182538   9.672   2.601   7.762 -0.2600 -0.6064  0.3977
27320SOL    HW282539   9.775   2.689   7.830  0.0859  0.1101 -1.0052
27321SOL     OW82540   9.039   5.380   1.065 -0.4259  0.3203 -0.3752
27321SOL    HW182541   9.117   5.399   1.012 -0.4081 -1.3707 -1.0036
27321SOL    HW282542   9.038   5.450   1.130  0.9606  1.0423 -1.0647
27322SOL     OW82543   5.143   5.376   8.231  0.0863  0.5897 -0.1361
27322SOL    HW182544   5.092   5.437   8.177 -1.9767  0.6464  1.7622
27322SOL    HW282545   5.106   5.384   8.318  0.4253 -2.6361  0.4289
27323SOL     OW82546   7.254   5.809   0.452  0.1667  0.2965 -0.1718
27323SOL    HW182547   7.219   5.724   0.428  0.1195  0.2467  0.0753
27323SOL    HW282548   7.178   5.862   0.475  0.3857 -0.6316  3.0574
27324SOL     OW82549   2.277   8.186   0.203 -0.0068  0.5059  0.2271
27324SOL    HW182550   2.307   8.095   0.207 -0.9442  0.2062  0.7580
27324SOL    HW282551   2.357   8.237   0.190  0.5379 -0.3859 -0.0279
27325SOL     OW82552   4.678   8.436   7.340  0.0653 -0.2166  0.1717
27325SOL    HW182553   4.671   8.344   7.366  1.6566 -0.5375 -0.4520
27325SOL    HW282554   4.753   8.439   7.282 -1.1554  1.1423 -1.4314
27326SOL     OW82555   8.848   0.973   8.698  0.9500 -0.1824  0.0490
27326SOL    HW182556   8.944   0.970   8.697  1.0454  1.8904 -0.2526
27326SOL    HW282557   8.825   1.030   8.625 -0.5383 -0.7212  0.0676
27327SOL     OW82558   9.455   4.670   4.810 -0.4214 -0.4532 -0.6313
27327SOL    HW182559   9.485   4.616   4.882  0.6209 -0.2578 -0.9004
27327SOL    HW282560   9.479   4.622   4.731  1.5797  0.8590 -0.9100
27328SOL     OW82561   7.959   1.452   8.392 -0.5203 -0.3318 -0.1190
27328SOL    HW182562   8.020   1.462   8.464 -1.7486  1.5851  0.7195
27328SOL    HW282563   7.901   1.380   8.418 -0.8215  0.2096  0.7293
27329SOL     OW82564   3.817   0.362   4.139 -0.2929  0.3584 -0.3979
27329SOL    HW182565   3.876   0.343   4.212 -0.1590  0.2070 -0.5444
27329SOL    HW282566   3.729   0.353   4.175 -0.2655 -1.4283 -0.6676
27330SOL     OW82567   0.560   9.179   0.720  0.2100  0.2433 -0.0105
27330SOL    HW182568   0.552   9.187   0.815 -1.1590 -0.6009 -0.0215
27330SOL    HW282569   0.548   9.086   0.703 -0.4629  0.5032 -1.0683
27331SOL     OW82570   5.911   0.803   1.311  0.5541  0.1394 -0.0250
27331SOL    HW182571   5.963   0.745   1.254  0.8083 -0.9394  1.2626
27331SOL    HW282572   5.833   0.823   1.260  0.5195 -1.2465 -0.5572
27332SOL     OW82573   0.138   7.258   6.198  0.6373  0.1304  0.0173
27332SOL    HW182574   0.056   7.278   6.152  0.7648  2.5344  0.7090
27332SOL    HW282575   0.206   7.273   6.132  0.6317 -0.0900 -0.0409
27333SOL     OW82576   9.210   6.190   6.449 -0.2115  0.2467  0.4068
27333SOL    HW182577   9.297   6.230   6.449 -0.2733  0.4407 -1.1199
27333SOL    HW282578   9.225   6.101   6.418 -0.8850  1.2450 -3.1643
27334SOL     OW82579   3.441   2.459   7.387 -0.1364  0.1171 -0.1921
27334SOL    HW182580   3.421   2.520   7.316  0.5686 -1.9923 -2.3142
27334SOL    HW282581   3.375   2.390   7.380 -0.1366 -0.0703  1.3074
27335SOL     OW82582   1.598   8.603   7.035  0.0949  0.0480 -0.1096
27335SOL    HW182583   1.681   8.638   7.066  0.0337 -0.5572  0.7760
27335SOL    HW282584   1.620   8.556   6.955  0.6281 -0.2556  0.2139
27336SOL     OW82585   8.440   3.779   0.919 -0.2419 -0.2275  0.1587
27336SOL    HW182586   8.497   3.704   0.940  0.0916  0.1148  0.4863
27336SOL    HW282587   8.488   3.827   0.851 -0.4583 -0.3104 -0.0542
27337SOL     OW82588   8.997   4.444   9.045  0.6713 -0.0607 -0.0226
27337SOL    HW182589   9.022   4.352   9.051 -1.5493 -0.6453  1.1212
27337SOL    HW282590   8.904   4.446   9.068  0.7665  2.5290  0.4743
27338SOL     OW82591   8.937   7.241   7.161  0.1193  0.2804 -0.3213
27338SOL    HW182592   8.979   7.161   7.130 -0.5026  0.2146 -1.0117
27338SOL    HW282593   8.980   7.259   7.245  1.1455 -0.0796 -0.7478
27339SOL     OW82594   0.975   8.792   1.824  0.4021  0.2689 -0.3475
27339SOL    HW182595   0.881   8.808   1.819  0.1532 -0.7711  0.7713
27339SOL    HW282596   1.012   8.847   1.754 -0.9626  1.1436 -0.4123
27340SOL     OW82597   0.753   1.478   4.906  0.1004  0.3898 -0.1790
27340SOL    HW182598   0.757   1.455   4.999  1.3810  0.4682 -0.1925
27340SOL    HW282599   0.677   1.535   4.899 -2.1637 -2.3813  0.1453
27341SOL     OW82600   0.046   2.516   2.527 -0.0641 -0.3435  0.1394
27341SOL    HW182601  -0.029   2.540   2.472  0.8208  0.8347 -0.6047
27341SOL    HW282602   0.007   2.470   2.601 -1.2324 -2.8751 -1.8750
27342SOL     OW82603   3.981   8.458   6.492 -0.2979  0.2726  0.6273
27342SOL    HW182604   3.991   8.398   6.566 -2.5645  1.3952  1.9422
27342SOL    HW282605   3.892   8.444   6.461 -0.1402  1.4315 -0.4343
27343SOL     OW82606   2.859   7.820   0.367 -0.3948  0.3583  0.0668
27343SOL    HW182607   2.787   7.873   0.401 -0.8849 -1.4531  2.0788
27343SOL    HW282608   2.833   7.800   0.277 -3.5922 -1.9564  1.3096
27344SOL     OW82609   0.097   7.547   9.239 -0.1349  0.5175  0.0357
27344SOL    HW182610   0.118   7.537   9.147  0.2696 -0.3791  0.2227
27344SOL    HW282611   0.146   7.478   9.283 -0.2823  0.9674  0.9295
27345SOL     OW82612   1.940   0.654   2.455  0.3070 -0.2579 -0.1469
27345SOL    HW182613   1.910   0.579   2.506 -3.1975  0.7565 -0.4432
27345SOL    HW282614   1.902   0.731   2.499 -3.3052  0.6676 -4.1091
27346SOL     OW82615   9.912   3.269   2.744 -0.3948  0.5732  0.3171
27346SOL    HW182616   9.953   3.286   2.659 -0.5349  1.4895  0.4223
27346SOL    HW282617   9.865   3.350   2.764 -0.7708  0.1795  1.0362
27347SOL     OW82618   2.934   0.941   3.257 -0.4462  0.2152  0.1561
27347SOL    HW182619   2.961   0.869   3.315  0.6120  0.2257 -0.3158
27347SOL    HW282620   2.988   1.015   3.283  1.8474 -0.3953 -2.3631
27348SOL     OW82621   6.078   7.054   8.942 -0.6102  0.2819  0.1660
27348SOL    HW182622   6.007   7.083   8.885 -1.2423 -0.7941  0.3588
27348SOL    HW282623   6.153   7.044   8.884 -1.0920 -0.2463 -0.3922
27349SOL     OW82624   6.219   3.573   2.154 -0.4597  0.3159  0.4755
27349SOL    HW182625   6.187   3.629   2.225 -0.1930  0.4499  0.4910
27349SOL    HW282626   6.308   3.603   2.138 -1.0295  1.3582 -0.9749
27350SOL     OW82627   4.670   0.722   2.764 -0.1845 -0.8759 -0.2649
27350SOL    HW182628   4.675   0.773   2.846  1.0267 -1.3102 -0.0414
27350SOL    HW282629   4.716   0.776   2.700 -1.5591 -0.3087 -0.8117
27351SOL     OW82630   1.640   8.146   6.310  0.0827 -0.3312 -0.3213
27351SOL    HW182631   1.570   8.126   6.373  0.3718 -2.0424 -0.4876
27351SOL    HW282632   1.703   8.199   6.360 -0.4427 -0.3420  0.3731
27352SOL     OW82633   6.605   2.687   0.323  0.1932 -0.6755 -0.3562
27352SOL    HW182634   6.578   2.778   0.332  1.4902 -0.2542 -0.4839
27352SOL    HW282635   6.698   2.687   0.346 -0.0931 -2.2104  0.9907
27353SOL     OW82636   7.217   5.403   5.145 -0.2326 -0.0518 -0.3697
27353SOL    HW182637   7.143   5.421   5.203 -0.2625 -0.4105 -0.2972
27353SOL    HW282638   7.211   5.309   5.127  0.2808 -0.1046 -0.2643
27354SOL     OW82639   9.350   9.513   8.133 -0.2391  0.3647  0.0845
27354SOL    HW182640   9.390   9.560   8.206  0.5365 -1.7010  1.0845
27354SOL    HW282641   9.392   9.427   8.134 -2.5725 -0.8849 -0.7225
27355SOL     OW82642   6.792   3.048   2.171 -0.0171 -0.1224  0.0152
27355SOL    HW182643   6.779   3.104   2.247 -1.9042 -1.4772  0.7699
27355SOL    HW282644   6.836   2.970   2.205 -1.0598 -0.8304 -0.1891
27356SOL     OW82645   8.714   1.747   1.609  0.0055 -0.3410  0.3642
27356SOL    HW182646   8.694   1.660   1.644  1.6743 -1.0454 -0.2666
27356SOL    HW282647   8.788   1.777   1.662 -0.5103  0.6649  0.5220
27357SOL     OW82648   3.877   5.495   9.399 -0.0262 -0.2956 -0.2200
27357SOL    HW182649   3.824   5.492   9.319 -0.3022  0.9029 -0.0957
27357SOL    HW282650   3.965   5.472   9.371 -0.4695 -1.6973 -0.5400
27358SOL     OW82651   9.238   6.807   5.785 -0.0315  0.2043  0.2587
27358SOL    HW182652   9.264   6.821   5.694  1.0482 -1.2305  0.3140
27358SOL    HW282653   9.280   6.879   5.833  2.9451 -1.3072  0.1450
27359SOL     OW82654   8.457   0.208   0.111 -0.1761  0.1752 -0.1254
27359SOL    HW182655   8.428   0.116   0.112  0.2836 -0.0041 -1.1689
27359SOL    HW282656   8.410   0.247   0.037 -0.8604  0.9641  0.7050
27360SOL     OW82657   1.213   2.332   6.867 -0.2210 -0.5192 -0.0079
27360SOL    HW182658   1.203   2.240   6.893 -0.8931 -0.4449  0.0070
27360SOL    HW282659   1.126   2.370   6.879  0.2483  0.3292  0.7826
27361SOL     OW82660   2.784   4.568   6.392 -0.1150 -0.2764 -0.0842
27361SOL    HW182661   2.786   4.629   6.466  0.1283 -0.1938 -0.1593
27361SOL    HW282662   2.695   4.532   6.393 -0.7493  1.1822 -0.9236
27362SOL     OW82663   4.230   4.290   2.496  0.4976  0.2476 -0.3196
27362SOL    HW182664   4.281   4.234   2.439  0.9716  0.1328  0.2073
27362SOL    HW282665   4.288   4.363   2.518 -0.1693  1.0610 -1.1413
27363SOL     OW82666   1.190   5.161   7.085  0.1151 -0.4632  0.7605
27363SOL    HW182667   1.103   5.168   7.045  0.3291  0.0605  0.3802
27363SOL    HW282668   1.248   5.206   7.024  0.5928 -0.4799  1.1988
27364SOL     OW82669   1.768   8.084   3.611 -0.2166 -0.0397 -0.1652
27364SOL    HW182670   1.762   8.157   3.672 -0.7365 -0.3100  0.1178
27364SOL    HW282671   1.800   8.011   3.665 -0.7788 -0.3054 -0.1896
27365SOL     OW82672   9.746   0.137   8.105 -0.3943  0.0722  0.3111
27365SOL    HW182673   9.688   0.148   8.180 -0.7852  0.6053 -0.0565
27365SOL    HW282674   9.827   0.102   8.142 -0.8286 -0.3490  0.8766
27366SOL     OW82675   5.807   2.246   1.213 -0.0162  0.2855 -0.4420
27366SOL    HW182676   5.770   2.158   1.222  2.2827 -0.5458  2.3748
27366SOL    HW282677   5.901   2.230   1.201  0.6239  2.3060  1.3255
27367SOL     OW82678   1.250   7.610   8.262 -0.7342 -0.0357  0.1587
27367SOL    HW182679   1.224   7.524   8.229 -0.2486 -0.2882  0.4138
27367SOL    HW282680   1.168   7.654   8.283 -0.9867 -0.4395  0.0350
27368SOL     OW82681  -0.022   4.016   1.492 -0.2373  0.2831 -0.6076
27368SOL    HW182682   0.062   3.971   1.504 -0.6837 -1.2058 -2.5816
27368SOL    HW282683   0.003   4.106   1.468  0.7439  0.2471  0.2098
27369SOL     OW82684   9.447   1.934   1.109  0.2695 -0.4595  0.1817
27369SOL    HW182685   9.537   1.928   1.140  0.1237 -0.0351  0.7165
27369SOL    HW282686   9.398   1.964   1.186 -0.1211  0.5017 -0.4327
27370SOL     OW82687   4.020   8.133   2.574 -0.0614  0.0018  0.0235
27370SOL    HW182688   4.015   8.201   2.506  0.2293 -1.1832 -1.2186
27370SOL    HW282689   3.929   8.111   2.593 -0.1427  0.3005 -0.0081
27371SOL     OW82690   0.934   8.011   1.590  0.1293 -0.0508 -0.5497
27371SOL    HW182691   0.872   8.008   1.663 -1.3385 -1.3577 -1.7798
27371SOL    HW282692   1.017   7.982   1.627  0.3631  2.6783  1.3877
27372SOL     OW82693   1.440   2.131   0.015  0.4899  0.0693  0.4079
27372SOL    HW182694   1.424   2.224   0.032  1.5366  0.0787  1.4332
27372SOL    HW282695   1.486   2.100   0.092 -0.4429 -1.4795  0.3891
27373SOL     OW82696   5.377   8.267   6.416 -0.6649 -0.4255  0.3641
27373SOL    HW182697   5.411   8.220   6.340 -1.8788  0.8143 -1.0074
27373SOL    HW282698   5.392   8.208   6.490 -0.2721 -2.0482 -0.9626
27374SOL     OW82699   7.037   5.777   8.788 -0.2931  0.2089  0.1387
27374SOL    HW182700   7.105   5.811   8.729 -0.1205 -0.9489 -0.3372
27374SOL    HW282701   7.081   5.773   8.873  1.1994 -3.0492 -0.6151
27375SOL     OW82702   0.319   9.890   3.050 -0.4197  0.0671  0.7361
27375SOL    HW182703   0.373   9.967   3.068 -0.3026 -0.0098  0.7162
27375SOL    HW282704   0.232   9.914   3.082 -0.5618  0.4862  0.0673
27376SOL     OW82705   6.528   0.687   8.810 -0.0140 -0.5715 -0.4225
27376SOL    HW182706   6.450   0.661   8.860 -0.5896  0.1263 -0.9305
27376SOL    HW282707   6.502   0.768   8.767  1.6999  0.9197  1.1482
27377SOL     OW82708   7.547   8.318   0.851 -0.6233  0.2601 -0.0482
27377SOL    HW182709   7.630   8.334   0.895 -1.5019  1.0588  1.3706
27377SOL    HW282710   7.533   8.224   0.859 -0.2724  0.2481  0.4568
27378SOL     OW82711   0.605   9.100   7.440  0.2558  0.0899 -0.1199
27378SOL    HW182712   0.509   9.106   7.433  0.1435 -1.0594  0.2423
27378SOL    HW282713   0.637   9.181   7.401 -0.8637  0.4208 -0.3853
27379SOL     OW82714   6.567   7.829   3.492  0.4668  0.5172  0.1031
27379SOL    HW182715   6.655   7.866   3.501  0.4016  0.6529  0.1955
27379SOL    HW282716   6.573   7.768   3.419  1.0883 -0.7965  1.1921
27380SOL     OW82717   0.535   1.605   4.911 -0.3646 -0.1602  0.0991
27380SOL    HW182718   0.458   1.587   4.856 -0.9982  1.3570  0.4371
27380SOL    HW282719   0.499   1.614   5.000  0.0596  1.4402  0.1287
27381SOL     OW82720   8.485   1.344   9.327  0.0215 -0.1247 -0.3228
27381SOL    HW182721   8.392   1.324   9.339 -0.6029  2.9152  0.9544
27381SOL    HW282722   8.488   1.398   9.248  0.7679 -0.6235 -0.6380
27382SOL     OW82723   5.339   2.829   2.403 -0.0291 -0.6057  0.5245
27382SOL    HW182724   5.305   2.912   2.438 -0.7756 -0.4428 -0.5322
27382SOL    HW282725   5.411   2.806   2.461  0.8679  1.3206  0.2589
27383SOL     OW82726   5.235   2.055   3.980 -0.4162  0.5459 -0.5269
27383SOL    HW182727   5.160   2.003   4.007 -1.2025  1.9731  0.1801
27383SOL    HW282728   5.196   2.136   3.946  0.7664  0.8247 -1.2542
27384SOL     OW82729   9.274   2.919   5.530  0.0777 -0.0954 -0.3536
27384SOL    HW182730   9.258   2.962   5.446  0.7271  0.3357 -0.2613
27384SOL    HW282731   9.217   2.965   5.592 -0.4107 -0.4220 -0.5573
27385SOL     OW82732   8.951   8.897   3.836  0.2977  0.0500  0.1916
27385SOL    HW182733   8.989   8.979   3.867 -0.5630  1.0714 -1.3363
27385SOL    HW282734   8.859   8.900   3.863  0.5763 -1.0828  1.3546
27386SOL     OW82735   9.355   1.515   0.982 -0.0598 -0.4769 -0.0812
27386SOL    HW182736   9.421   1.574   0.949 -0.3487 -0.3877 -0.5014
27386SOL    HW282737   9.396   1.474   1.059  0.0524  0.4501  0.3749
27387SOL     OW82738   1.842   6.343   8.468 -0.2828 -0.3130 -0.3261
27387SOL    HW182739   1.809   6.259   8.499 -0.9563 -0.3571 -1.1310
27387SOL    HW282740   1.853   6.395   8.548 -0.3127 -1.0073  0.1358
27388SOL     OW82741   6.820   0.626   7.599 -0.3847  0.4079  0.3551
27388SOL    HW182742   6.833   0.533   7.617 -1.7175  0.2502  0.6032
27388SOL    HW282743   6.766   0.628   7.520  0.5062  1.0070 -0.2640
27389SOL     OW82744   7.869   7.291   4.773  0.4785  0.3976  0.0269
27389SOL    HW182745   7.921   7.306   4.694  0.2605 -1.2366 -0.4659
27389SOL    HW282746   7.909   7.347   4.839  2.4822 -0.3156 -0.5137
27390SOL     OW82747   3.666   1.280   5.089 -0.4389 -0.0471  0.4667
27390SOL    HW182748   3.640   1.189   5.103 -0.0027  0.0181  1.8936
27390SOL    HW282749   3.744   1.275   5.034  1.2954 -0.7646  2.8309
27391SOL     OW82750   6.016   6.207   7.104  0.4371 -0.3882 -0.3263
27391SOL    HW182751   6.056   6.285   7.143  1.6223 -0.0737 -2.0362
27391SOL    HW282752   5.925   6.210   7.133  1.1692 -0.1379  2.2612
27392SOL     OW82753   4.833   9.154   8.862 -0.0948 -0.2934  0.1170
27392SOL    HW182754   4.918   9.116   8.840  0.6486  1.4083 -0.0961
27392SOL    HW282755   4.792   9.173   8.778 -0.0636  0.1993  0.2101
27393SOL     OW82756   1.152   0.199   1.978  0.1235  0.0633 -0.0227
27393SOL    HW182757   1.202   0.206   1.897  0.7722  0.2969  0.3873
27393SOL    HW282758   1.170   0.110   2.009  0.1133  0.0734  0.0124
27394SOL     OW82759   0.228   1.284   7.219 -0.0350  0.2499 -0.0199
27394SOL    HW182760   0.318   1.284   7.252 -0.0051  1.0630 -0.0664
27394SOL    HW282761   0.174   1.271   7.297  0.1366 -0.9049 -0.0799
27395SOL     OW82762   0.585   7.268   4.494 -0.0371 -0.0790  0.5619
27395SOL    HW182763   0.534   7.309   4.424 -0.3978 -0.9535  0.3002
27395SOL    HW282764   0.542   7.297   4.575  0.0429  0.4919  0.3999
27396SOL     OW82765   3.329   6.240   0.150  0.4070 -0.0430 -0.2991
27396SOL    HW182766   3.292   6.186   0.219  0.2992  0.1727 -0.1853
27396SOL    HW282767   3.294   6.328   0.167  1.0618  0.1918 -0.1245
27397SOL     OW82768   3.131   6.807   1.322  0.3501  1.0477  0.3477
27397SOL    HW182769   3.158   6.717   1.338  1.5550  1.1026 -1.1421
27397SOL    HW282770   3.056   6.800   1.263  0.6207  1.0243  0.0056
27398SOL     OW82771   6.960   5.435   8.741 -0.0772  0.8305 -0.1697
27398SOL    HW182772   6.969   5.531   8.740 -0.2942  0.8596 -1.1664
27398SOL    HW282773   7.050   5.403   8.735 -0.0002  0.9711  0.2266
27399SOL     OW82774   9.673   6.234   8.159  0.3093  0.2132  0.0984
27399SOL    HW182775   9.749   6.248   8.103  1.9543 -0.5751  2.0040
27399SOL    HW282776   9.623   6.315   8.152  0.4386  0.1613 -2.4152
27400SOL     OW82777   5.604   2.684   6.789 -0.0121 -0.4042  0.3611
27400SOL    HW182778   5.670   2.750   6.766 -0.3270 -0.1177  0.2714
27400SOL    HW282779   5.625   2.660   6.879  0.3930 -0.5288  0.2330
27401SOL     OW82780   6.670   1.953   4.479  0.8689  1.1310  0.4571
27401SOL    HW182781   6.654   1.975   4.387  1.7248  1.6795  0.4344
27401SOL    HW282782   6.591   1.904   4.506  0.8375  0.5069 -0.7106
27402SOL     OW82783   8.900   5.439   4.020  0.2824 -0.2486 -0.3298
27402SOL    HW182784   8.892   5.408   4.111  1.0445 -1.0036 -0.5153
27402SOL    HW282785   8.825   5.499   4.010 -0.0713 -0.4905  0.6547
27403SOL     OW82786   8.883   0.988   9.023 -0.2436  0.2405  0.5663
27403SOL    HW182787   8.833   1.050   8.971  1.6155  1.0241 -0.3999
27403SOL    HW282788   8.955   0.961   8.965 -0.2216 -1.7630  1.4474
27404SOL     OW82789   2.189   3.046   0.863  0.0611 -0.4527  0.0803
27404SOL    HW182790   2.097   3.074   0.862  0.4921  1.0857  0.6487
27404SOL    HW282791   2.186   2.952   0.844 -1.8978 -1.1178  2.9194
27405SOL     OW82792   9.304   9.300   4.572  0.2985  0.0282 -0.0008
27405SOL    HW182793   9.297   9.325   4.664  1.7641  0.1206  0.1062
27405SOL    HW282794   9.321   9.383   4.526  0.5129 -0.1502 -0.2409
27406SOL     OW82795   2.095   6.073   8.139  0.1228 -0.0131 -0.1032
27406SOL    HW182796   2.068   6.084   8.230 -1.7047  2.7876 -0.8685
27406SOL    HW282797   2.031   6.122   8.088  1.6082 -0.6979 -2.8640
27407SOL     OW82798   9.874   4.466   5.607 -0.1670  0.0892 -0.4278
27407SOL    HW182799   9.832   4.382   5.625 -1.4196  0.8349  0.2625
27407SOL    HW282800   9.869   4.514   5.690 -2.0854  1.9348 -1.5037
27408SOL     OW82801   8.137   4.424   0.382  0.5773  0.0423 -0.3484
27408SOL    HW182802   8.126   4.330   0.369  0.6915 -0.2105  1.2095
27408SOL    HW282803   8.054   4.463   0.355  0.2839 -0.5752 -0.3426
27409SOL     OW82804   8.681   8.866   7.320 -0.6942 -0.1993  0.2404
27409SOL    HW182805   8.765   8.911   7.334 -0.3520 -0.8832  0.4399
27409SOL    HW282806   8.623   8.934   7.285  0.2019  0.0758 -0.7602
27410SOL     OW82807   3.405   1.369   4.911 -0.1295  0.0396  0.3429
27410SOL    HW182808   3.357   1.287   4.917  0.9290 -0.5452  1.4439
27410SOL    HW282809   3.338   1.437   4.911 -1.1012 -0.8150 -1.9453
27411SOL     OW82810   2.765   9.861   4.272  0.3625  0.0655 -0.7787
27411SOL    HW182811   2.766   9.858   4.368  1.7184 -0.1633 -0.7833
27411SOL    HW282812   2.683   9.906   4.250 -0.6827 -1.1452  0.4335
27412SOL     OW82813   4.905   6.975   0.732 -0.2575 -0.0414  0.4580
27412SOL    HW182814   4.884   7.036   0.802 -0.6973  1.4040 -0.8862
27412SOL    HW282815   4.974   7.019   0.682  1.1544 -1.7192  0.8250
27413SOL     OW82816   5.272   9.429   8.643 -0.0640  0.6812 -0.3730
27413SOL    HW182817   5.293   9.479   8.722  1.4875 -1.4143  0.6375
27413SOL    HW282818   5.182   9.454   8.623 -1.7372 -0.8684  3.9157
27414SOL     OW82819   7.977   4.689   8.991  1.0284 -0.4733 -0.6027
27414SOL    HW182820   7.913   4.674   8.921  2.1572 -0.8974 -1.5912
27414SOL    HW282821   7.988   4.785   8.992 -0.3189 -0.3140  0.2472
27415SOL     OW82822   9.581   4.870   6.694  0.5174  0.4387 -0.3219
27415SOL    HW182823   9.619   4.833   6.615  1.6139  1.1418 -0.1417
27415SOL    HW282824   9.599   4.964   6.687  1.3938  0.4101  1.1572
27416SOL     OW82825   7.659   5.239   7.174 -0.4005 -0.0564 -0.3782
27416SOL    HW182826   7.586   5.180   7.192 -1.0682  0.8316 -0.1311
27416SOL    HW282827   7.693   5.209   7.089 -1.1107 -0.4215 -0.5450
27417SOL     OW82828   7.600   4.577   6.319 -0.5324  0.1668 -0.3771
27417SOL    HW182829   7.680   4.588   6.269  0.1759 -0.3524  0.6174
27417SOL    HW282830   7.566   4.492   6.293 -1.5692  0.9919 -1.8773
27418SOL     OW82831   6.585   3.745   3.291 -0.5044  0.3136  0.4428
27418SOL    HW182832   6.557   3.736   3.382  1.0653  1.3475  1.0568
27418SOL    HW282833   6.644   3.820   3.291  1.9615 -1.4839 -0.8134
27419SOL     OW82834   1.921   3.718   9.834  0.4352  0.1022  0.0509
27419SOL    HW182835   1.973   3.795   9.812 -1.4359  1.4430  0.1876
27419SOL    HW282836   1.924   3.712   9.929 -0.7117  0.9637  0.1543
27420SOL     OW82837   8.902   7.318   0.489 -0.5207 -0.0643 -0.0795
27420SOL    HW182838   8.972   7.261   0.521 -1.5284 -1.3782 -0.0853
27420SOL    HW282839   8.902   7.393   0.547 -0.1731 -0.8423  0.9518
27421SOL     OW82840   9.334   2.586   8.063 -0.1770  0.1910 -0.1878
27421SOL    HW182841   9.263   2.650   8.054 -1.0694 -0.4975  1.4275
27421SOL    HW282842   9.304   2.528   8.134  1.9765 -0.1607  0.4968
27422SOL     OW82843   8.882   3.032   5.991  0.3060 -0.1194  0.5714
27422SOL    HW182844   8.820   3.104   5.979 -0.2148 -0.4460  1.2132
27422SOL    HW282845   8.843   2.958   5.945  0.2541 -0.3104  0.9227
27423SOL     OW82846   2.931   2.620   9.351  0.7438  0.3404 -0.5024
27423SOL    HW182847   2.846   2.579   9.335  1.4551 -1.5997  0.3089
27423SOL    HW282848   2.912   2.712   9.367 -1.3215 -0.2378  0.6504
27424SOL     OW82849   7.618   6.598   7.278  0.4989 -0.0111  0.3421
27424SOL    HW182850   7.580   6.615   7.365 -0.9187 -2.3881  0.2975
27424SOL    HW282851   7.711   6.618   7.288 -0.1186  2.7575  1.4737
27425SOL     OW82852   0.798   0.689   0.977 -0.0741  0.1010 -0.2752
27425SOL    HW182853   0.860   0.676   1.048 -2.4333 -1.6277  1.6103
27425SOL    HW282854   0.812   0.780   0.950  0.9848  0.8035  2.3234
27426SOL     OW82855   5.146   8.237   9.679  0.4182  0.4677  0.0052
27426SOL    HW182856   5.167   8.260   9.588  0.8691  0.4648  0.1038
27426SOL    HW282857   5.212   8.284   9.731 -0.3449  1.1292  0.3873
27427SOL     OW82858   9.235   7.759   7.187 -0.3491  0.1107  0.3458
27427SOL    HW182859   9.141   7.751   7.203 -0.4184 -0.6513 -0.3302
27427SOL    HW282860   9.261   7.673   7.153  0.5036  0.4432  0.1160
27428SOL     OW82861   4.669   3.962   0.867  0.1568 -0.1509 -0.0881
27428SOL    HW182862   4.658   4.003   0.781  1.3062  2.1147  0.7659
27428SOL    HW282863   4.763   3.968   0.885  0.0164 -1.1089  1.1023
27429SOL     OW82864   4.834   9.334   4.105 -0.1699  0.5085 -0.4100
27429SOL    HW182865   4.902   9.387   4.148 -1.3782  0.7249  1.3496
27429SOL    HW282866   4.794   9.394   4.041  0.4074  0.7945 -0.5096
27430SOL     OW82867   4.188   4.794   4.692  0.5292  0.9018 -0.3526
27430SOL    HW182868   4.211   4.705   4.716  2.0081  1.2159 -0.5402
27430SOL    HW282869   4.168   4.789   4.598 -0.7118  0.5457 -0.0940
27431SOL     OW82870   3.767   1.785   3.304 -0.2836  0.3510  0.1711
27431SOL    HW182871   3.677   1.814   3.288 -1.0475 -1.4680  0.8870
27431SOL    HW282872   3.798   1.840   3.376 -1.0347  0.5821  0.3248
27432SOL     OW82873   6.801   7.513   7.882 -0.4377 -0.0839  0.3376
27432SOL    HW182874   6.833   7.556   7.961  0.4389  0.2091 -0.1711
27432SOL    HW282875   6.856   7.547   7.811 -1.8130  0.3749 -0.5551
27433SOL     OW82876   0.522   4.069   2.466 -0.2051  0.1061 -0.0958
27433SOL    HW182877   0.442   4.019   2.480 -1.0495  1.7252  1.2906
27433SOL    HW282878   0.503   4.155   2.503  1.8660  0.8284 -0.5815
27434SOL     OW82879   0.457   6.795   7.673  0.3375 -0.1753  0.4677
27434SOL    HW182880   0.447   6.721   7.732  0.0434 -0.1530  0.4504
27434SOL    HW282881   0.507   6.860   7.723 -0.8844  0.3003  1.1213
27435SOL     OW82882   8.306   7.072   8.667  0.1822  0.2045 -0.0871
27435SOL    HW182883   8.254   7.146   8.698  0.1729  0.1077  0.1297
27435SOL    HW282884   8.284   7.000   8.726  1.3554  0.4412  0.6668
27436SOL     OW82885   5.099   0.270   4.124  0.1118  0.2112  0.3166
27436SOL    HW182886   5.125   0.356   4.157 -0.2144  0.5111 -0.1818
27436SOL    HW282887   5.144   0.207   4.181  0.8420  0.7083  0.3052
27437SOL     OW82888   5.115   2.655   5.305 -0.2451 -0.1146 -0.1448
27437SOL    HW182889   5.080   2.712   5.237 -2.7273 -0.9725  0.3194
27437SOL    HW282890   5.185   2.606   5.262 -1.4142 -0.2845 -1.9644
27438SOL     OW82891   8.782   8.118   4.257  0.0158  0.3090 -0.2856
27438SOL    HW182892   8.854   8.107   4.319  0.1841 -0.0106 -0.5333
27438SOL    HW282893   8.738   8.198   4.285  0.8614  0.8680 -0.5283
27439SOL     OW82894   1.486   4.621   0.807  0.9806  0.4046  0.1723
27439SOL    HW182895   1.393   4.639   0.790  0.1067 -2.4087  1.3041
27439SOL    HW282896   1.492   4.614   0.902  2.3932  0.6394  0.1177
27440SOL     OW82897   7.372   9.779   1.936  0.0239  0.0936  0.2021
27440SOL    HW182898   7.454   9.742   1.969 -0.5788 -0.5219  1.0528
27440SOL    HW282899   7.363   9.741   1.848  0.7323  0.3041  0.0342
27441SOL     OW82900   8.561   3.308   9.594  0.4350  0.1109  0.0694
27441SOL    HW182901   8.655   3.295   9.611  0.3759 -1.1555 -0.4605
27441SOL    HW282902   8.524   3.328   9.680  0.8075 -1.9391  0.7815
27442SOL     OW82903   3.855   8.115   3.363 -0.2698  0.7285 -0.1503
27442SOL    HW182904   3.880   8.036   3.315  1.3582  0.3581  1.2425
27442SOL    HW282905   3.781   8.087   3.417 -0.1314  0.3241 -0.1617
27443SOL     OW82906   4.237   2.761   8.035 -1.0947  0.0126  0.5317
27443SOL    HW182907   4.145   2.741   8.047 -0.6185 -2.8887  0.1836
27443SOL    HW282908   4.283   2.684   8.070  1.1993  1.3656  0.7240
27444SOL     OW82909   7.690   2.725   1.120 -0.4248 -0.6860  0.0836
27444SOL    HW182910   7.694   2.782   1.197 -0.7843  0.3665 -0.6584
27444SOL    HW282911   7.653   2.780   1.051  0.1991 -1.5092 -0.9362
27445SOL     OW82912   1.775   5.022   7.287 -0.5270 -0.2056  0.4763
27445SOL    HW182913   1.681   5.029   7.268 -0.1686 -0.4660 -1.5379
27445SOL    HW282914   1.783   4.938   7.332 -1.3658  0.2461  1.5188
27446SOL     OW82915   8.742   5.455   5.864  0.2375  0.0276  0.0142
27446SOL    HW182916   8.782   5.500   5.790  0.4002  0.2428  0.2335
27446SOL    HW282917   8.666   5.510   5.887 -1.3030 -1.3050 -1.5622
27447SOL     OW82918   7.256   1.018   9.337  0.7644  0.0452  0.1760
27447SOL    HW182919   7.300   1.064   9.265  1.0035  1.1977  1.0376
27447SOL    HW282920   7.163   1.021   9.313  0.9318 -0.4594 -0.5669
27448SOL     OW82921   8.207   6.419   2.151  0.5052  0.6086  0.3606
27448SOL    HW182922   8.259   6.345   2.118  1.1043  1.8874 -1.7652
27448SOL    HW282923   8.117   6.389   2.145  0.6163  0.5714 -2.1574
27449SOL     OW82924   2.209   5.954   1.650 -0.8407 -0.5006  0.2263
27449SOL    HW182925   2.170   5.958   1.737 -1.3192  0.0367 -0.0009
27449SOL    HW282926   2.225   6.046   1.626 -0.2740 -0.6680 -0.0582
27450SOL     OW82927   6.222   2.034   2.288  0.3176 -0.3608 -0.3101
27450SOL    HW182928   6.277   2.024   2.365  1.2652  0.1227 -0.9167
27450SOL    HW282929   6.148   2.087   2.318 -0.0511 -1.3476  0.6055
27451SOL     OW82930   2.012   2.597   6.943 -0.6253  0.3096 -0.1520
27451SOL    HW182931   1.964   2.515   6.929 -3.1541  1.8432 -1.0323
27451SOL    HW282932   1.956   2.665   6.905  1.2049  2.5211  0.8656
27452SOL     OW82933   0.516   3.156   7.208 -0.5414  0.3875 -0.4505
27452SOL    HW182934   0.426   3.155   7.173 -0.6709  1.0374 -0.1569
27452SOL    HW282935   0.506   3.135   7.301 -0.2736 -0.5831 -0.6333
27453SOL     OW82936   9.361   7.999   5.362  0.0919  0.1641 -0.1337
27453SOL    HW182937   9.454   7.992   5.340  0.2380 -0.3414  0.6203
27453SOL    HW282938   9.360   8.033   5.451 -0.4809  1.4734 -0.6093
27454SOL     OW82939   5.663   9.630   4.817  0.3701  0.2745 -0.2227
27454SOL    HW182940   5.724   9.595   4.752  0.6574  0.9357 -0.3159
27454SOL    HW282941   5.580   9.589   4.796  0.6377 -0.1315 -0.5091
27455SOL     OW82942   1.537   5.237   6.695  0.4639  0.4041  0.3372
27455SOL    HW182943   1.554   5.219   6.602 -1.7721  1.3475 -0.3269
27455SOL    HW282944   1.597   5.308   6.717 -2.3151  3.7880 -1.9465
27456SOL     OW82945   7.411   6.858   2.119  0.0938  0.1815 -0.4680
27456SOL    HW182946   7.410   6.856   2.214 -2.3618 -0.5249 -0.4506
27456SOL    HW282947   7.464   6.935   2.097 -0.6698  1.3244  1.4973
27457SOL     OW82948   1.498   4.065   7.226  0.1413 -0.2679 -0.4260
27457SOL    HW182949   1.440   3.998   7.262 -0.6041 -0.4319 -1.8574
27457SOL    HW282950   1.585   4.024   7.227 -0.0497 -0.6694  0.1442
27458SOL     OW82951   2.911   2.943   4.291 -0.5017  0.1621  0.3216
27458SOL    HW182952   2.879   2.864   4.247  2.1743 -0.1182 -1.4006
27458SOL    HW282953   2.934   2.913   4.379 -2.9186 -0.0358  0.9584
27459SOL     OW82954   9.351   6.817   6.429  0.4371 -0.5214  0.1930
27459SOL    HW182955   9.265   6.799   6.467  0.3101  1.9368  1.2240
27459SOL    HW282956   9.333   6.836   6.336 -0.4808  1.9974  0.8200
27460SOL     OW82957   0.082   9.267  10.008  0.0862 -0.1155  0.4621
27460SOL    HW182958   0.022   9.334   9.974 -0.5677 -0.7088  0.4376
27460SOL    HW282959   0.067   9.191   9.953  0.3023 -0.5250  0.9615
27461SOL     OW82960   8.693   1.932   7.941 -0.0323 -0.2603 -0.6263
27461SOL    HW182961   8.695   1.862   7.875  1.5369  0.6750 -1.6211
27461SOL    HW282962   8.734   2.007   7.899 -1.5016  1.2629  0.4756
27462SOL     OW82963   6.433   0.774   3.528 -0.4115 -0.0272 -0.4173
27462SOL    HW182964   6.421   0.862   3.493  0.7527  0.3618  0.1436
27462SOL    HW282965   6.521   0.749   3.502  0.1872 -0.0491  1.5067
27463SOL     OW82966   2.685   3.836   9.882  0.2984 -0.5716  0.2303
27463SOL    HW182967   2.736   3.911   9.852 -0.5591 -0.1038 -0.0989
27463SOL    HW282968   2.630   3.872   9.952 -0.8245 -0.6434 -0.5828
27464SOL     OW82969   6.962   4.668   3.170  0.6824  0.1903  0.1171
27464SOL    HW182970   6.874   4.704   3.158 -0.7965 -2.9631  0.5922
27464SOL    HW282971   7.016   4.719   3.110 -1.3564  2.4254 -0.0049
27465SOL     OW82972   4.792   8.529   0.166  0.1442  0.1084 -0.3733
27465SOL    HW182973   4.867   8.488   0.210  1.0047  2.9021  1.0258
27465SOL    HW282974   4.830   8.574   0.091 -0.6529 -0.8384 -1.3869
27466SOL     OW82975   3.875   0.204   5.770  0.1328 -0.3353  0.4573
27466SOL    HW182976   3.798   0.184   5.822 -0.2378  0.8518  0.3835
27466SOL    HW282977   3.841   0.218   5.681  0.2687  1.3134  0.6485
27467SOL     OW82978   0.329   4.718   2.772 -0.1393 -0.5118 -0.5185
27467SOL    HW182979   0.360   4.794   2.722 -0.9874  0.2059  0.0199
27467SOL    HW282980   0.376   4.723   2.855 -1.7558  0.6763  0.3665
27468SOL     OW82981   5.312   2.819   0.507 -0.3410  0.0527 -0.0119
27468SOL    HW182982   5.283   2.901   0.469 -0.0677 -0.4909 -1.4617
27468SOL    HW282983   5.262   2.752   0.461  0.5152 -0.6757  0.0889
27469SOL     OW82984   3.103   3.262   3.319  0.2635  0.2294 -0.2482
27469SOL    HW182985   3.055   3.343   3.336 -0.6868 -0.5402  0.9232
27469SOL    HW282986   3.174   3.262   3.382  0.5602  0.3690 -0.5771
27470SOL     OW82987   4.483   5.448   4.703 -0.2970  0.5408  0.0752
27470SOL    HW182988   4.572   5.473   4.678 -0.3964 -0.2502 -1.1300
27470SOL    HW282989   4.489   5.428   4.797  0.9035  0.0248 -0.0953
27471SOL     OW82990   3.531   0.706   8.737 -0.5983  0.1591 -0.2251
27471SOL    HW182991   3.619   0.731   8.709 -0.5608 -0.1432 -0.3827
27471SOL    HW282992   3.545   0.653   8.816 -0.6233 -0.0922 -0.3889
27472SOL     OW82993   3.836   5.137   7.464  0.2855  0.1103  0.0635
27472SOL    HW182994   3.852   5.042   7.467 -1.3740 -0.1839  1.0660
27472SOL    HW282995   3.862   5.163   7.376 -0.1371 -1.4732 -0.5586
27473SOL     OW82996   3.658   2.783   0.589  0.0195 -0.4472 -0.8100
27473SOL    HW182997   3.732   2.843   0.582  0.2266 -0.5477  0.3969
27473SOL    HW282998   3.697   2.699   0.614 -0.4945 -0.4956 -0.1418
27474SOL     OW82999   4.354   1.162   4.512  0.3577  0.1329  0.2699
27474SOL    HW183000   4.284   1.109   4.474 -0.8879  1.8465  0.1081
27474SOL    HW283001   4.416   1.097   4.547  0.6919 -1.5512 -2.9754
27475SOL     OW83002   7.129   8.554   5.717  0.3416  0.5046 -0.0208
27475SOL    HW183003   7.086   8.471   5.701 -0.5172  0.8970  0.2054
27475SOL    HW283004   7.114   8.572   5.810 -0.2791  1.3389 -0.2614
27476SOL     OW83005   8.216   1.278   6.180 -0.3831 -0.1226 -0.2028
27476SOL    HW183006   8.220   1.271   6.275 -1.3913  2.3975  0.1175
27476SOL    HW283007   8.177   1.195   6.151  0.9885 -1.4070  1.4258
27477SOL     OW83008   5.112   6.575   2.833  0.0777  0.4462 -0.4984
27477SOL    HW183009   5.152   6.541   2.914  0.7243 -0.3030 -1.1159
27477SOL    HW283010   5.174   6.641   2.802  0.7107 -0.4905 -1.2872
27478SOL     OW83011   3.273   0.813   8.540 -0.2962 -0.1680  0.1069
27478SOL    HW183012   3.367   0.830   8.537 -0.1112 -1.2094 -0.1044
27478SOL    HW283013   3.257   0.784   8.630 -0.5467  0.7013  0.3529
27479SOL     OW83014   4.412   2.825   9.486  0.2643  0.2656 -0.5227
27479SOL    HW183015   4.363   2.891   9.437 -2.0956 -0.1769  1.0775
27479SOL    HW283016   4.370   2.742   9.464  0.0959 -0.1059  1.0217
27480SOL     OW83017   8.426   7.378   8.758  0.4674  0.0841  0.5138
27480SOL    HW183018   8.408   7.323   8.834 -0.9935  1.9194  1.6068
27480SOL    HW283019   8.522   7.382   8.753  0.5871 -0.4630  1.9644
27481SOL     OW83020   1.357   5.160   0.643 -0.0811 -0.4366 -0.7518
27481SOL    HW183021   1.342   5.093   0.576  0.3716  0.2924 -1.5998
27481SOL    HW283022   1.371   5.241   0.594  1.4071 -0.0948  0.1778
27482SOL     OW83023   7.941   7.145   3.469 -0.6984 -0.4083 -0.5700
27482SOL    HW183024   7.964   7.074   3.529 -0.6466 -0.2726 -0.4271
27482SOL    HW283025   7.915   7.217   3.527  1.3540  0.4473 -0.6033
27483SOL     OW83026   9.356   6.394   0.071  0.6922 -0.1674  0.4154
27483SOL    HW183027   9.336   6.470   0.016  2.5256  0.2105  0.2119
27483SOL    HW283028   9.394   6.432   0.150  0.1137 -0.8225  1.0225
27484SOL     OW83029   9.717   8.088   1.007 -0.1971 -0.1164 -0.4518
27484SOL    HW183030   9.802   8.081   0.964  0.4037  1.3117  0.4239
27484SOL    HW283031   9.670   8.154   0.957 -0.0322  0.5116  0.1946
27485SOL     OW83032   7.727   5.874   5.083 -0.2107  0.0647  0.1901
27485SOL    HW183033   7.658   5.941   5.087  0.9871  1.3691 -0.0567
27485SOL    HW283034   7.725   5.833   5.169 -2.1961 -0.8948 -0.2698
27486SOL     OW83035   2.773   0.971   6.359 -0.2529  0.3285 -0.3015
27486SOL    HW183036   2.792   1.064   6.372  0.6252  0.3277 -1.4135
27486SOL    HW283037   2.714   0.969   6.284  1.5544 -0.0897 -1.7991
27487SOL     OW83038   4.155   0.796   1.608 -0.9081  0.2179 -0.6052
27487SOL    HW183039   4.168   0.821   1.516  1.7313  2.8333  0.3326
27487SOL    HW283040   4.207   0.716   1.618 -0.1297  0.6506 -1.0968
27488SOL     OW83041   0.369   8.425   8.349  0.7068  0.3644  0.3126
27488SOL    HW183042   0.316   8.354   8.312  1.6955 -0.0603 -0.3376
27488SOL    HW283043   0.343   8.430   8.440 -0.6396  0.3523 -0.0556
27489SOL     OW83044   1.840   0.358   4.298  0.4147  0.4654  0.4676
27489SOL    HW183045   1.819   0.267   4.321  1.9617  0.0689  0.4392
27489SOL    HW283046   1.936   0.361   4.301  0.4333  1.7766 -0.7926
27490SOL     OW83047   0.096   4.637   2.447 -0.1205 -0.2639 -0.0221
27490SOL    HW183048   0.055   4.723   2.444 -1.3550 -0.8349 -0.3071
27490SOL    HW283049   0.090   4.604   2.358  1.4851 -0.1538 -0.1913
27491SOL     OW83050   8.486   3.906   6.533 -0.7271  0.1669  0.3636
27491SOL    HW183051   8.435   3.825   6.541 -0.6022 -0.0060 -0.5394
27491SOL    HW283052   8.427   3.967   6.489 -0.1791 -0.0249 -0.6583
27492SOL     OW83053   2.504   1.808   6.218 -0.0091 -0.1806  0.1756
27492SOL    HW183054   2.530   1.729   6.265 -0.1528 -1.9762 -2.5772
27492SOL    HW283055   2.572   1.821   6.153 -0.8705  0.9773 -0.5417
27493SOL     OW83056   8.687   3.226   7.899 -0.4350 -0.1461 -0.3338
27493SOL    HW183057   8.780   3.234   7.879 -0.3962 -0.8464 -0.4455
27493SOL    HW283058   8.645   3.208   7.815 -0.5881 -0.4971 -0.1871
27494SOL     OW83059   2.805   2.774   5.441  0.2846  0.9109  0.2826
27494SOL    HW183060   2.778   2.682   5.440  0.4949  0.8339 -1.6105
27494SOL    HW283061   2.891   2.774   5.400 -0.3355  2.0848 -1.1390
27495SOL     OW83062   7.902   1.288   1.812 -0.0801  0.4608 -0.0539
27495SOL    HW183063   7.822   1.245   1.843  0.5975 -1.5232 -0.8931
27495SOL    HW283064   7.950   1.310   1.892 -0.8685  0.4669  0.4199
27496SOL     OW83065   3.264   4.001   2.625  0.0765 -0.1369  0.3517
27496SOL    HW183066   3.304   4.067   2.569 -1.0743 -0.7351 -1.2330
27496SOL    HW283067   3.315   3.922   2.610 -0.7756 -0.5321 -0.5939
27497SOL     OW83068   5.380   7.479   6.928 -0.2725 -0.0502  0.0390
27497SOL    HW183069   5.402   7.392   6.960  0.9327  0.4789  0.7038
27497SOL    HW283070   5.396   7.537   7.002  1.1225  1.0099 -1.0331
27498SOL     OW83071   3.554   9.277   4.718  0.1148 -0.3833 -0.0148
27498SOL    HW183072   3.598   9.210   4.666  0.1209 -0.8224  0.5395
27498SOL    HW283073   3.624   9.338   4.742 -0.0155  0.2123 -1.0983
27499SOL     OW83074   7.907   1.130   0.316 -0.3617  0.3452 -0.9291
27499SOL    HW183075   7.969   1.196   0.346  0.7128 -1.2496  0.5449
27499SOL    HW283076   7.875   1.163   0.232  1.7849  1.6818 -1.2932
27500SOL     OW83077   4.606   9.578   8.489  0.0163  0.2915 -0.1155
27500SOL    HW183078   4.594   9.526   8.568 -0.0725 -2.0683 -1.5885
27500SOL    HW283079   4.696   9.562   8.462 -0.0738  0.7253 -0.7054
27501SOL     OW83080   4.939   7.913   7.357  0.2990 -0.1127 -0.2672
27501SOL    HW183081   4.996   7.842   7.385 -0.2795 -0.2409  0.6299
27501SOL    HW283082   4.879   7.872   7.294  1.6160  0.1814 -1.7792
27502SOL     OW83083   3.776   0.658   9.604 -0.2688 -0.8386 -0.1545
27502SOL    HW183084   3.685   0.651   9.630 -0.2199 -0.3369  0.1830
27502SOL    HW283085   3.783   0.606   9.524 -0.2453 -3.1351  1.2503
27503SOL     OW83086   6.082   5.394   5.751 -0.5639  0.6674 -0.3002
27503SOL    HW183087   6.026   5.370   5.825  0.8030 -0.5123  0.4078
27503SOL    HW283088   6.108   5.485   5.768  0.9211 -0.0306  1.5306
27504SOL     OW83089   2.869   3.503   2.621 -0.5613 -0.1471 -0.0391
27504SOL    HW183090   2.833   3.468   2.703 -1.9209 -0.2322 -0.6592
27504SOL    HW283091   2.937   3.440   2.596  0.9263  0.6380  1.7636
27505SOL     OW83092   8.763   8.469   0.600 -0.6584  0.0893  0.0871
27505SOL    HW183093   8.710   8.414   0.542  0.4178 -0.0162 -0.8371
27505SOL    HW283094   8.742   8.438   0.688 -3.0943  0.9276 -0.1262
27506SOL     OW83095   1.742   8.096   3.349  0.3068  0.3358  0.3094
27506SOL    HW183096   1.691   8.016   3.336 -0.6605  0.8103  1.0292
27506SOL    HW283097   1.751   8.103   3.444 -0.7497  1.7644  0.3314
27507SOL     OW83098   8.298   7.617   8.406 -0.7432  0.1253 -0.5241
27507SOL    HW183099   8.245   7.634   8.485  0.0206  2.0196 -0.3671
27507SOL    HW283100   8.259   7.539   8.368 -1.0774 -0.9407  1.7914
27508SOL     OW83101   0.233   9.053   3.016  0.1370 -0.5908 -0.1297
27508SOL    HW183102   0.250   9.147   3.022 -0.5211 -0.3875 -1.2442
27508SOL    HW283103   0.159   9.038   3.075 -1.8664  0.1997 -2.2550
27509SOL     OW83104   6.271   9.249   1.643  0.1605 -0.2078 -0.0049
27509SOL    HW183105   6.192   9.256   1.589  0.8027  0.7983 -0.8667
27509SOL    HW283106   6.257   9.311   1.714  0.6070  0.7857 -0.7582
27510SOL     OW83107   8.224   2.294   9.299 -0.1922 -0.1151  0.3811
27510SOL    HW183108   8.183   2.360   9.356  0.2720 -0.2211  0.8446
27510SOL    HW283109   8.313   2.286   9.332 -0.4663 -1.5541  0.8330
27511SOL     OW83110   5.125   9.260   1.488 -0.1860  0.7879 -0.4960
27511SOL    HW183111   5.052   9.284   1.545 -1.2781 -1.2831 -0.9166
27511SOL    HW283112   5.177   9.199   1.540  0.2656  0.8897 -0.8233
27512SOL     OW83113   7.294   2.642   9.102 -0.6308 -0.1930  0.2019
27512SOL    HW183114   7.297   2.721   9.048 -0.4265  0.6512  1.4126
27512SOL    HW283115   7.384   2.632   9.134 -0.3972 -1.5469 -0.7853
27513SOL     OW83116   5.215   3.899   2.638 -0.3333  0.1228  0.8356
27513SOL    HW183117   5.275   3.960   2.681  0.6513  0.2874 -0.6979
27513SOL    HW283118   5.163   3.954   2.579 -0.2800 -0.3360  0.3507
27514SOL     OW83119   2.357   2.372   1.670 -0.0062 -0.5819  0.6382
27514SOL    HW183120   2.325   2.460   1.686  0.5125 -0.4679  1.0675
27514SOL    HW283121   2.330   2.352   1.580 -0.2881 -0.0639  0.6076
27515SOL     OW83122   2.221   8.621   8.110  0.3953  0.0293  0.0033
27515SOL    HW183123   2.183   8.558   8.048  0.7609  0.2868 -0.4901
27515SOL    HW283124   2.315   8.618   8.092  0.3520  1.2382 -0.5286
27516SOL     OW83125   8.262   4.902   3.171  0.2453 -0.5018  0.0034
27516SOL    HW183126   8.211   4.975   3.207 -1.7699 -1.2900 -1.1116
27516SOL    HW283127   8.239   4.827   3.225  1.5939 -0.5314  0.5657
27517SOL     OW83128   7.309   7.777   9.973  1.1146  0.3248  0.1769
27517SOL    HW183129   7.289   7.719   9.899 -0.6618 -0.0833  0.9283
27517SOL    HW283130   7.405   7.783   9.973  1.1917 -0.2932 -1.6643
27518SOL     OW83131   3.499   0.334   2.236  0.1007 -0.0204  0.1138
27518SOL    HW183132   3.474   0.321   2.144  1.5309 -1.7182 -0.0937
27518SOL    HW283133   3.471   0.255   2.280  0.2338  0.3936  0.9574
27519SOL     OW83134   3.764   6.518   3.371 -0.8493  0.2694 -0.0680
27519SOL    HW183135   3.689   6.477   3.415 -0.4355 -0.0524  0.3494
27519SOL    HW283136   3.735   6.608   3.354 -1.1349  0.3132  0.5987
27520SOL     OW83137   4.243   1.285   9.337  0.2991  0.0572  0.5710
27520SOL    HW183138   4.314   1.330   9.382  0.6372  0.5602 -0.4352
27520SOL    HW283139   4.222   1.210   9.393  2.0299 -0.4537  0.5784
27521SOL     OW83140   7.587   0.229   7.541 -0.6098 -0.0243  0.0025
27521SOL    HW183141   7.623   0.181   7.465 -0.2287  1.2754 -0.6714
27521SOL    HW283142   7.502   0.260   7.511 -0.5968  0.2188  0.2167
27522SOL     OW83143   0.852   7.352   0.219 -0.2920  0.3279  0.2450
27522SOL    HW183144   0.937   7.396   0.215 -1.2386  2.1919 -0.6518
27522SOL    HW283145   0.806   7.395   0.291 -0.3684 -0.9357  0.9781
27523SOL     OW83146   3.944   7.393   0.665  0.3856  0.1678  0.1600
27523SOL    HW183147   3.911   7.456   0.601 -0.8759 -0.7939 -0.1805
27523SOL    HW283148   3.922   7.432   0.750 -0.7884  0.0259 -0.0513
27524SOL     OW83149   3.614   8.656   3.473 -0.8091  0.2676 -0.7328
27524SOL    HW183150   3.674   8.675   3.545 -2.3542  1.4047  0.2999
27524SOL    HW283151   3.654   8.581   3.429  1.7615  1.4027 -0.5627
27525SOL     OW83152   8.388   1.515   6.206  0.2332  0.5407 -0.4130
27525SOL    HW183153   8.313   1.573   6.199 -0.1133 -0.0715 -2.5229
27525SOL    HW283154   8.351   1.430   6.228  0.0691 -0.0749 -2.7749
27526SOL     OW83155   3.577   8.646   2.305  0.1517 -0.3232 -0.7826
27526SOL    HW183156   3.577   8.612   2.395  1.1980  0.1512 -0.5932
27526SOL    HW283157   3.602   8.738   2.314 -1.3983  0.1966 -1.4123
27527SOL     OW83158   3.299   2.777   3.722  0.1022  0.3610 -0.1053
27527SOL    HW183159   3.338   2.798   3.806 -0.6306 -0.7581  0.5323
27527SOL    HW283160   3.243   2.852   3.702  1.4680  1.3428 -0.3717
27528SOL     OW83161   5.820   1.921   0.386  0.0591  0.3562 -0.1165
27528SOL    HW183162   5.780   1.862   0.449 -0.2940 -0.6012 -1.2143
27528SOL    HW283163   5.793   2.008   0.414  1.2268  0.1046  1.9869
27529SOL     OW83164   7.663   6.567   1.347 -0.8559 -0.3392  0.6044
27529SOL    HW183165   7.597   6.625   1.385  0.3496  2.0231 -0.7336
27529SOL    HW283166   7.739   6.623   1.331  0.2122 -2.1660 -1.2570
27530SOL     OW83167   8.159   0.006   4.655 -0.0210 -0.1759  0.2410
27530SOL    HW183168   8.188   0.012   4.564 -0.1436 -0.1983  0.2003
27530SOL    HW283169   8.120   0.091   4.674  1.9491  0.6203  0.9458
27531SOL     OW83170   2.686   6.953   3.907  0.4746  0.6869 -0.1034
27531SOL    HW183171   2.626   6.933   3.979  0.3312 -0.8405 -0.6068
27531SOL    HW283172   2.712   6.867   3.873  2.1192  1.3480 -0.5848
27532SOL     OW83173   4.308   7.385   1.436  0.4603  0.3406 -0.4108
27532SOL    HW183174   4.217   7.406   1.416 -0.2903 -2.4235 -0.2632
27532SOL    HW283175   4.359   7.437   1.374 -1.2906  0.6041 -1.7064
27533SOL     OW83176   2.472   1.561   9.389  1.1097  0.3512  0.4264
27533SOL    HW183177   2.486   1.467   9.402  1.0690 -0.0332 -1.9153
27533SOL    HW283178   2.378   1.570   9.375  1.2388  0.5774 -0.3497
27534SOL     OW83179   7.680   3.128   0.866 -0.4064  0.1095  0.0373
27534SOL    HW183180   7.741   3.066   0.826 -0.8009 -0.2760  0.0234
27534SOL    HW283181   7.735   3.203   0.891 -0.2676  0.7555 -1.9952
27535SOL     OW83182   7.311   9.001   5.476  0.0628  0.3710 -0.1700
27535SOL    HW183183   7.384   8.939   5.469 -1.2650 -1.1905 -0.7858
27535SOL    HW283184   7.293   9.007   5.569 -0.5896 -1.1743 -0.1755
27536SOL     OW83185   3.203   2.840   4.706 -0.1740  0.0542  0.5544
27536SOL    HW183186   3.157   2.817   4.625  0.3000 -0.0429  0.3093
27536SOL    HW283187   3.244   2.925   4.687  0.2543 -0.1484  0.5589
27537SOL     OW83188   2.761   7.575   9.691 -0.2875  0.1947 -0.0574
27537SOL    HW183189   2.789   7.616   9.609 -0.7012  0.2109 -0.1908
27537SOL    HW283190   2.822   7.609   9.757  1.1634 -1.1561 -0.6460
27538SOL     OW83191   0.103   1.660   0.983  0.4097  0.4784  0.3630
27538SOL    HW183192   0.018   1.689   0.951  0.6901  2.0681  0.9438
27538SOL    HW283193   0.166   1.687   0.916  0.5640  0.2280  0.4040
27539SOL     OW83194   8.846   5.646   5.510  0.5097  0.4263 -0.3405
27539SOL    HW183195   8.839   5.670   5.603  1.3802  1.2651 -0.4806
27539SOL    HW283196   8.938   5.620   5.499  0.2270 -0.4056 -0.8053
27540SOL     OW83197   0.337   1.552   7.008  0.0290  1.0410  0.0896
27540SOL    HW183198   0.275   1.619   6.979 -0.0977  0.3272 -1.3265
27540SOL    HW283199   0.310   1.472   6.963  1.7172  0.6181 -0.2381
27541SOL     OW83200   4.315   3.365   4.324  0.4796  0.4093 -0.4827
27541SOL    HW183201   4.341   3.455   4.301  2.2272  0.2445  0.6258
27541SOL    HW283202   4.370   3.310   4.269  0.2217  0.0205 -0.3534
27542SOL     OW83203   9.536   6.240   6.451 -0.3184 -0.3546 -0.1248
27542SOL    HW183204   9.584   6.305   6.400  0.0321 -1.3566 -1.1090
27542SOL    HW283205   9.584   6.234   6.534  1.0886 -1.0885 -0.9634
27543SOL     OW83206   3.997   5.669   1.574 -0.1196 -0.7047 -0.0046
27543SOL    HW183207   4.063   5.711   1.519  0.9338  1.6849  2.8185
27543SOL    HW283208   4.035   5.584   1.595  0.6128 -0.6213 -0.9130
27544SOL     OW83209   6.165   9.072   9.510 -0.1687 -0.1335 -0.0655
27544SOL    HW183210   6.171   9.161   9.547  0.0576 -0.1448 -0.0734
27544SOL    HW283211   6.156   9.015   9.586 -1.3098 -0.0282 -0.1040
27545SOL     OW83212   6.089   8.419   7.342 -0.3377  0.4433 -0.1045
27545SOL    HW183213   6.160   8.480   7.325 -2.2899  2.3736 -2.0935
27545SOL    HW283214   6.101   8.392   7.433  2.1346  1.6963  0.0169
27546SOL     OW83215   0.189   9.767   0.108 -0.4464 -0.0821 -0.3023
27546SOL    HW183216   0.107   9.718   0.108 -0.9168  0.6872  0.4069
27546SOL    HW283217   0.251   9.710   0.062 -1.3469 -0.7119 -0.7570
27547SOL     OW83218   1.393   5.438   5.976  0.1566 -0.1040 -0.0643
27547SOL    HW183219   1.338   5.384   5.918 -0.0645  1.2780 -1.2166
27547SOL    HW283220   1.480   5.401   5.968 -0.4677 -2.1175  1.5099
27548SOL     OW83221   0.386   4.127   2.898 -0.2997  0.2082 -0.0248
27548SOL    HW183222   0.338   4.117   2.815  0.1528  0.2910 -0.3012
27548SOL    HW283223   0.411   4.037   2.922  1.5383  0.3634 -1.1728
27549SOL     OW83224   7.827   0.858   2.906 -0.1843  0.4884  0.5032
27549SOL    HW183225   7.819   0.764   2.921  0.2529  0.4389  0.4314
27549SOL    HW283226   7.889   0.866   2.833  0.0215  0.8462  0.7132
27550SOL     OW83227   9.261   0.406   8.358  0.4498 -0.1527 -0.5488
27550SOL    HW183228   9.326   0.476   8.361 -0.4785  0.7057  0.4203
27550SOL    HW283229   9.291   0.342   8.422  0.6391 -0.0273 -0.5112
27551SOL     OW83230   0.095   3.153   3.746 -0.5191  0.3752  0.4726
27551SOL    HW183231   0.182   3.176   3.778 -0.6469  0.2219  0.9368
27551SOL    HW283232   0.083   3.063   3.774 -0.5775  0.1914 -0.1367
27552SOL     OW83233   7.852   4.096   3.864 -0.3061 -0.2859  0.4276
27552SOL    HW183234   7.904   4.176   3.858 -0.8306  0.1843  1.8184
27552SOL    HW283235   7.849   4.063   3.774 -0.4632  1.4938 -0.2658
27553SOL     OW83236   3.636   0.227   9.760  0.1030 -0.2097 -0.1808
27553SOL    HW183237   3.619   0.135   9.778 -0.8355 -0.3354 -1.6033
27553SOL    HW283238   3.680   0.228   9.675 -0.7301  0.6961 -0.6228
27554SOL     OW83239   0.706   0.469   0.567  0.1787  0.3097  0.1196
27554SOL    HW183240   0.676   0.438   0.652  1.0008 -1.6000 -0.2453
27554SOL    HW283241   0.724   0.562   0.581 -0.8610  0.3142  1.6962
27555SOL     OW83242   9.080   0.724   6.504  0.0813  0.5187 -0.4671
27555SOL    HW183243   9.016   0.693   6.441  1.9602  1.2781 -2.8938
27555SOL    HW283244   9.112   0.806   6.468  0.8589  1.2947  1.7978
27556SOL     OW83245   0.327   7.044   4.353 -0.2782 -0.4413 -0.4404
27556SOL    HW183246   0.354   7.061   4.444  0.4462 -1.1374 -0.5142
27556SOL    HW283247   0.268   6.970   4.360 -0.1859 -0.5240 -0.5452
27557SOL     OW83248   9.326   7.752   2.141  0.1398 -0.6138 -0.2813
27557SOL    HW183249   9.241   7.746   2.096  0.0635  1.0052 -0.4060
27557SOL    HW283250   9.389   7.766   2.071  0.0768  1.4563  0.0018
27558SOL     OW83251   5.334   3.197   0.875 -0.0566  0.4537 -0.0364
27558SOL    HW183252   5.249   3.239   0.867  0.0671  0.5035 -1.3000
27558SOL    HW283253   5.322   3.111   0.834  0.1422 -0.0939  1.0140
27559SOL     OW83254   4.839   9.238   0.226 -0.6154  0.0565  0.0475
27559SOL    HW183255   4.782   9.241   0.303  0.6060  0.1253  0.9626
27559SOL    HW283256   4.907   9.175   0.248  1.4208  2.1946  0.2319
27560SOL     OW83257   8.759   6.121   6.155 -0.4860  0.1930  0.2380
27560SOL    HW183258   8.803   6.206   6.152  3.2258 -1.4484  1.9323
27560SOL    HW283259   8.750   6.102   6.248  1.0566 -2.2097 -0.0109
27561SOL     OW83260   5.753   0.103   2.840  0.1106  0.1660  0.7065
27561SOL    HW183261   5.834   0.153   2.849  0.7581 -0.5494 -0.9219
27561SOL    HW283262   5.778   0.013   2.861 -0.4903  0.0862  1.1148
27562SOL     OW83263   4.767   5.979   4.394  0.6108  0.1029 -0.7265
27562SOL    HW183264   4.760   5.937   4.480  0.6331  2.1620  0.3488
27562SOL    HW283265   4.680   6.018   4.380  0.4888 -0.5373 -1.8412
27563SOL     OW83266   2.373   1.650   7.969  0.0786  0.5645  0.1890
27563SOL    HW183267   2.429   1.661   7.892 -0.0282  0.9565  0.1658
27563SOL    HW283268   2.348   1.739   7.993 -0.8108  0.3751  0.0017
27564SOL     OW83269   1.222   3.383   3.624 -0.6000  0.3178  0.4523
27564SOL    HW183270   1.209   3.418   3.535 -1.3068  0.4271  0.5925
27564SOL    HW283271   1.143   3.410   3.672 -0.7599 -0.7317  0.7989
27565SOL     OW83272   2.554   7.942   6.518  0.4103 -0.0004 -0.6194
27565SOL    HW183273   2.646   7.919   6.502  0.3299 -0.8813  0.1394
27565SOL    HW283274   2.536   7.913   6.607 -0.5326  0.4361 -0.6488
27566SOL     OW83275   9.846   8.185   0.121  0.4484 -0.0316  0.1458
27566SOL    HW183276   9.785   8.255   0.099  0.4853  0.8743  2.6199
27566SOL    HW283277   9.922   8.230   0.158  2.1671 -1.2080 -1.7361
27567SOL     OW83278   7.199   5.754   9.730  0.0716 -0.3505  0.3339
27567SOL    HW183279   7.292   5.738   9.750 -0.1707 -1.1151  0.8695
27567SOL    HW283280   7.201   5.808   9.650  0.9781 -0.2460  0.4162
27568SOL     OW83281   5.466   1.303   9.687 -0.0320 -0.1256  0.2116
27568SOL    HW183282   5.500   1.215   9.703 -0.2011  0.0628  1.7749
27568SOL    HW283283   5.540   1.351   9.652 -0.3436 -1.2628 -2.2485
27569SOL     OW83284   6.216   1.874   6.535 -0.3407 -0.6344 -0.4520
27569SOL    HW183285   6.260   1.795   6.505  1.7462  0.6175 -0.8239
27569SOL    HW283286   6.267   1.903   6.611  0.2410  1.4833 -1.5816
27570SOL     OW83287   5.793   2.694   0.930 -0.1687  0.6089  0.6811
27570SOL    HW183288   5.865   2.632   0.946 -0.1087  0.1582 -1.1503
27570SOL    HW283289   5.718   2.656   0.975 -0.1981 -0.9918 -0.6085
27571SOL     OW83290   1.855   3.061   3.599 -0.2305  0.0321  0.3145
27571SOL    HW183291   1.851   3.082   3.692  1.6435 -1.1098  0.7120
27571SOL    HW283292   1.880   2.968   3.597 -0.5210 -0.0372 -1.3323
27572SOL     OW83293   6.438   0.108   8.835 -0.3168 -0.1301 -0.2075
27572SOL    HW183294   6.514   0.071   8.792 -0.9275 -0.8722 -0.6656
27572SOL    HW283295   6.469   0.191   8.871  0.9091 -0.7702  0.2886
27573SOL     OW83296   3.434   6.397   1.547 -0.1179 -0.2112 -0.4895
27573SOL    HW183297   3.454   6.477   1.499  1.0268 -0.5000 -0.5192
27573SOL    HW283298   3.482   6.328   1.500 -0.0124 -0.6999  0.3143
27574SOL     OW83299   2.791   5.783   3.178  0.0539 -0.1361 -0.1089
27574SOL    HW183300   2.811   5.717   3.112 -3.1182 -0.9871 -0.3886
27574SOL    HW283301   2.834   5.751   3.258  2.4431 -0.0070 -1.2644
27575SOL     OW83302   2.301   8.688   3.328 -0.0910  0.2654  0.2020
27575SOL    HW183303   2.235   8.750   3.360  0.5146  1.3660 -0.5954
27575SOL    HW283304   2.385   8.734   3.339  0.3737 -0.4202 -0.3606
27576SOL     OW83305   1.804   2.490   0.714 -0.4402  0.1383  0.0509
27576SOL    HW183306   1.710   2.500   0.702 -0.6294  0.1988  1.4142
27576SOL    HW283307   1.843   2.538   0.640 -1.4664  0.1303 -0.5101
27577SOL     OW83308   1.348   5.763   7.990 -0.1428 -0.4275 -0.4589
27577SOL    HW183309   1.428   5.787   7.944  1.4915 -1.5027  1.6750
27577SOL    HW283310   1.324   5.678   7.953  0.6653 -0.8832  0.0536
27578SOL     OW83311   1.410   8.201   2.264  0.0612  0.2008 -0.0507
27578SOL    HW183312   1.435   8.273   2.322  0.0148 -1.2852  1.9112
27578SOL    HW283313   1.355   8.144   2.318  0.3576 -1.4880 -1.4354
27579SOL     OW83314   6.648   1.226   3.082  0.1827  0.5054 -0.5685
27579SOL    HW183315   6.589   1.174   3.028  0.3609  0.7341 -0.9948
27579SOL    HW283316   6.696   1.162   3.134 -0.9043  0.3549  0.2822
27580SOL     OW83317   8.410   2.479   6.703  0.4513 -0.1840  0.1248
27580SOL    HW183318   8.484   2.538   6.714  0.2485  0.1090 -0.0455
27580SOL    HW283319   8.447   2.391   6.710  0.8551 -0.0418 -0.2028
27581SOL     OW83320   4.767   6.151   7.913  0.8152 -0.0411  0.3557
27581SOL    HW183321   4.717   6.075   7.942  0.6699 -0.1916 -0.2882
27581SOL    HW283322   4.721   6.226   7.952  0.3248 -0.2061  0.0988
27582SOL     OW83323   6.204   1.575   2.132  0.5888 -0.3187  0.1523
27582SOL    HW183324   6.145   1.641   2.168  0.6607 -0.7877  1.1783
27582SOL    HW283325   6.200   1.588   2.037 -0.9380 -0.1388  0.2069
27583SOL     OW83326   0.694   9.606   7.725  0.3944  0.4489 -0.3507
27583SOL    HW183327   0.670   9.697   7.745 -0.0874  0.3124 -0.2833
27583SOL    HW283328   0.642   9.583   7.648  2.5861  1.1159 -2.1435
27584SOL     OW83329   4.325   6.727   4.114 -0.2713 -0.1772 -0.0053
27584SOL    HW183330   4.407   6.689   4.084 -0.8342 -0.8093 -0.7852
27584SOL    HW283331   4.281   6.755   4.033 -1.0604 -0.3468  0.3571
27585SOL     OW83332   7.346   2.576   0.713 -0.4448  0.2080 -0.3479
27585SOL    HW183333   7.440   2.590   0.719 -0.1845 -1.2555 -0.6074
27585SOL    HW283334   7.316   2.572   0.804 -0.0177 -0.6978 -0.2400
27586SOL     OW83335   6.278   0.204   2.573  0.4809 -0.2382  0.1840
27586SOL    HW183336   6.252   0.215   2.664 -2.3555  0.2091 -0.5907
27586SOL    HW283337   6.269   0.111   2.556 -1.3626 -0.0254 -0.2175
27587SOL     OW83338   0.047   8.323   5.142  0.2298 -0.3944  0.3118
27587SOL    HW183339   0.113   8.378   5.100 -0.5592  1.5646  1.4850
27587SOL    HW283340   0.024   8.258   5.076  1.0681  0.8157 -1.2460
27588SOL     OW83341   7.933   7.369   3.984 -0.6488 -0.3974  0.6135
27588SOL    HW183342   7.965   7.280   3.969  0.0924 -0.0433 -0.0055
27588SOL    HW283343   7.988   7.423   3.928 -1.2503  0.4281  0.8084
27589SOL     OW83344   3.022   4.808   7.957  0.0731  0.0798 -0.9246
27589SOL    HW183345   2.990   4.739   8.015  2.9177 -0.3832  0.2904
27589SOL    HW283346   3.008   4.889   8.007  1.7758 -0.2445  0.2035
27590SOL     OW83347   2.315   4.114   0.529  0.0697  0.7520 -0.0590
27590SOL    HW183348   2.372   4.191   0.535 -0.1054  1.1665 -2.5418
27590SOL    HW283349   2.227   4.150   0.522  0.0462  0.4409 -1.9784
27591SOL     OW83350   0.234   2.509   7.797  0.7496 -0.1565  0.5082
27591SOL    HW183351   0.208   2.566   7.869  1.1383  0.4900  0.1394
27591SOL    HW283352   0.329   2.501   7.805  0.8553  0.2827 -0.1911
27592SOL     OW83353   9.857   4.723   1.090  0.1167  0.3294 -0.0265
27592SOL    HW183354   9.908   4.760   1.161 -0.5368  1.7877 -0.2776
27592SOL    HW283355   9.907   4.647   1.060 -0.4229 -1.4217  3.1044
27593SOL     OW83356   4.149   7.094   2.760  0.1216  0.1457 -0.1892
27593SOL    HW183357   4.179   7.175   2.800 -0.5085  0.2915  0.0071
27593SOL    HW283358   4.222   7.034   2.769  1.6506  1.4563 -2.7287
27594SOL     OW83359   9.924   4.448   3.983 -0.0193 -0.4619  0.2994
27594SOL    HW183360  10.015   4.421   3.995 -0.1163 -0.4356  1.1711
27594SOL    HW283361   9.917   4.472   3.890  1.0712  0.3448  0.4127
27595SOL     OW83362   3.906   8.312   4.906 -0.2142  0.0263  0.2771
27595SOL    HW183363   3.996   8.280   4.910 -0.9287 -2.3060  4.2381
27595SOL    HW283364   3.869   8.269   4.829  1.4035 -1.2311  0.1301
27596SOL     OW83365   0.331   5.250   4.963 -0.1859 -0.0035 -0.2178
27596SOL    HW183366   0.267   5.207   4.905  2.5961 -2.5517 -1.6763
27596SOL    HW283367   0.341   5.189   5.036  1.8592 -0.5958 -0.9439
27597SOL     OW83368   2.988   4.867   5.485 -0.1585  0.1170  0.1198
27597SOL    HW183369   3.078   4.865   5.517  0.7308 -1.0261 -2.2070
27597SOL    HW283370   2.944   4.931   5.541  2.3702  1.5480  0.6144
27598SOL     OW83371   6.283   5.680   4.658 -0.2727  0.2372 -0.6579
27598SOL    HW183372   6.196   5.719   4.649 -1.2041 -0.7324  2.6757
27598SOL    HW283373   6.283   5.607   4.596 -2.6290 -0.8543  0.4713
27599SOL     OW83374   1.014   6.491   1.830 -0.4115  0.1429  0.2753
27599SOL    HW183375   0.960   6.473   1.753  0.3534 -0.2943 -0.1642
27599SOL    HW283376   0.991   6.581   1.854  1.2034  1.2615 -2.0197
27600SOL     OW83377   3.547   9.937   6.033  0.0507  0.1359  0.5358
27600SOL    HW183378   3.605   9.863   6.046  0.5428  0.2709 -0.7514
27600SOL    HW283379   3.487   9.935   6.108  1.1312 -0.5380  1.4008
27601SOL     OW83380   8.059   9.380   5.529  0.1109  0.2919  0.3948
27601SOL    HW183381   8.055   9.290   5.561 -0.1552  0.4121  0.7095
27601SOL    HW283382   8.105   9.428   5.598 -0.5222  0.5646  0.6361
27602SOL     OW83383   9.703   3.498   0.050 -0.0604  0.6423  0.0001
27602SOL    HW183384   9.725   3.503  -0.043  1.0585 -0.7247  0.1486
27602SOL    HW283385   9.775   3.447   0.088 -1.4085 -0.3656  1.2962
27603SOL     OW83386   8.696   9.900   2.475  0.5969  0.2505 -0.8041
27603SOL    HW183387   8.632   9.970   2.485  1.4520  1.1691 -1.4577
27603SOL    HW283388   8.694   9.879   2.382  1.3632  0.4355 -0.8745
27604SOL     OW83389   1.629   6.823   4.134  0.1527 -0.0383  0.1249
27604SOL    HW183390   1.560   6.872   4.178  1.5722 -0.6925  3.3977
27604SOL    HW283391   1.698   6.887   4.118  0.6691 -0.2349  1.3751
27605SOL     OW83392   2.450   2.125   7.040  0.2789  0.1668 -0.1144
27605SOL    HW183393   2.356   2.117   7.055 -0.0931  0.8300 -1.9109
27605SOL    HW283394   2.464   2.218   7.023  0.8658 -0.2526 -2.1592
27606SOL     OW83395   6.959   1.922   0.830  0.6016 -0.9953  0.4834
27606SOL    HW183396   7.011   1.864   0.887 -1.8450 -2.6387  1.2117
27606SOL    HW283397   6.922   1.863   0.764  0.7704  0.3609 -0.8597
27607SOL     OW83398   8.272   0.473   3.057 -0.8661  0.0054 -0.1172
27607SOL    HW183399   8.194   0.433   3.019 -0.8554  1.1149 -1.3579
27607SOL    HW283400   8.325   0.500   2.982  0.3117  0.0744  0.6991
27608SOL     OW83401   3.580   8.377   1.758  0.0144 -0.7034 -0.2697
27608SOL    HW183402   3.575   8.469   1.735 -0.5945 -0.3559  1.1378
27608SOL    HW283403   3.674   8.358   1.761  0.1326 -0.2421 -0.9806
27609SOL     OW83404   9.385   4.438   8.031 -0.2740 -0.1277  0.4152
27609SOL    HW183405   9.368   4.505   8.097 -1.2753 -0.9824  1.0656
27609SOL    HW283406   9.475   4.411   8.046 -0.3645 -0.0272  1.1891
27610SOL     OW83407   0.849   3.839   0.611  0.2844  0.2150  0.2852
27610SOL    HW183408   0.869   3.817   0.702  0.9806  1.1557  0.3759
27610SOL    HW283409   0.890   3.770   0.560  0.0071 -0.2450  0.6794
27611SOL     OW83410   3.479   5.097   1.304  0.2015 -0.2634  0.0631
27611SOL    HW183411   3.572   5.093   1.285  0.5231  1.0258  1.2370
27611SOL    HW283412   3.458   5.191   1.302 -0.7216 -0.4166  1.3825
27612SOL     OW83413   2.184   3.289   5.287 -0.0166 -0.3891  0.1126
27612SOL    HW183414   2.128   3.339   5.347  2.4184  0.3689  1.9547
27612SOL    HW283415   2.269   3.334   5.291  0.8043 -1.5435 -2.4049
27613SOL     OW83416   5.400   2.819   5.243 -0.2136  0.1790  0.2823
27613SOL    HW183417   5.304   2.823   5.252 -0.2959 -0.4011 -0.2448
27613SOL    HW283418   5.426   2.909   5.224 -0.4956  0.6023  1.7572
27614SOL     OW83419   1.999   8.491   9.363  0.3047 -0.2234 -0.0295
27614SOL    HW183420   1.956   8.412   9.396  1.2827 -0.7301  0.0844
27614SOL    HW283421   2.039   8.463   9.281  1.3987 -0.0994  0.4409
27615SOL     OW83422   4.784   9.419   6.505  0.3568 -0.1903 -0.5799
27615SOL    HW183423   4.871   9.383   6.493  0.5432  0.5140 -1.3810
27615SOL    HW283424   4.783   9.449   6.596  0.1483 -2.2843  0.1641
27616SOL     OW83425   6.465   3.735   9.672  0.0176  0.3442  0.2940
27616SOL    HW183426   6.439   3.803   9.734  1.3509 -0.5218  1.9120
27616SOL    HW283427   6.514   3.781   9.604  0.9787  1.0142  1.4098
27617SOL     OW83428   4.037   9.084   5.246  0.9211 -0.2240 -0.1245
27617SOL    HW183429   3.992   9.165   5.272  0.2790 -1.1232  1.6883
27617SOL    HW283430   4.000   9.063   5.160  0.4753  0.9201 -0.2351
27618SOL     OW83431   8.143   9.160   4.496  0.0231 -0.0075 -0.1316
27618SOL    HW183432   8.053   9.191   4.502 -0.0817 -0.4742  1.0017
27618SOL    HW283433   8.141   9.093   4.428 -0.6726 -0.5799  0.4314
27619SOL     OW83434   1.140   5.924   7.087 -0.4092 -0.2848  0.2022
27619SOL    HW183435   1.179   5.851   7.135  0.2608 -0.1555 -0.1345
27619SOL    HW283436   1.166   5.909   6.996  1.5263  1.4690  0.3978
27620SOL     OW83437   7.297   1.974   7.122  0.1466  0.0826 -0.5849
27620SOL    HW183438   7.352   1.959   7.045  0.4516  2.2895 -0.8669
27620SOL    HW283439   7.358   2.003   7.190 -0.2832 -0.6118  0.1185
27621SOL     OW83440   0.644   8.759   7.103 -0.6531 -0.3337  0.0480
27621SOL    HW183441   0.602   8.843   7.084  0.0345 -0.0573 -0.2837
27621SOL    HW283442   0.649   8.756   7.199 -0.9951 -0.1557  0.0716
27622SOL     OW83443   1.819   7.326   9.615 -0.6638 -0.0726 -0.5130
27622SOL    HW183444   1.819   7.415   9.580 -1.1062 -0.1746 -0.7780
27622SOL    HW283445   1.899   7.286   9.580 -0.9996 -0.1109 -1.2400
27623SOL     OW83446   7.550   6.720   4.573  0.2328  0.0904  0.2112
27623SOL    HW183447   7.615   6.682   4.631  2.2251  1.2460 -1.1313
27623SOL    HW283448   7.565   6.677   4.489 -1.8667 -0.7908  0.2424
27624SOL     OW83449   7.784   4.210   9.520  0.1822  0.2354  0.1259
27624SOL    HW183450   7.708   4.237   9.467  0.5349  2.6854  0.7251
27624SOL    HW283451   7.761   4.237   9.609  1.0585 -0.6011  0.6225
27625SOL     OW83452   3.734   1.120   4.784 -0.3768 -0.3029 -0.2916
27625SOL    HW183453   3.800   1.185   4.760 -0.6831 -0.2527 -1.0449
27625SOL    HW283454   3.651   1.159   4.756 -1.1715  1.0072  3.3655
27626SOL     OW83455   3.845   7.032   1.960 -0.4082 -0.2136 -0.5179
27626SOL    HW183456   3.911   6.991   1.905 -0.7270 -0.1732 -0.9372
27626SOL    HW283457   3.822   6.965   2.024  0.4333 -0.0404 -0.0282
27627SOL     OW83458   8.528   1.355   5.740  0.0532 -0.2284  0.1104
27627SOL    HW183459   8.510   1.414   5.812 -0.4901  0.1872 -0.3677
27627SOL    HW283460   8.624   1.356   5.732  0.1838 -0.8942  1.3306
27628SOL     OW83461   1.591   3.474   5.113 -0.2040  0.6753 -0.1356
27628SOL    HW183462   1.658   3.489   5.047  0.3813 -0.4715  0.1756
27628SOL    HW283463   1.522   3.536   5.092  0.1132  0.5469 -1.6319
27629SOL     OW83464   9.074   2.796   9.624  0.7178  0.1892  0.0180
27629SOL    HW183465   9.081   2.770   9.715  0.9633 -0.6365 -0.2262
27629SOL    HW283466   9.011   2.734   9.586 -1.0458  1.8530  0.1021
27630SOL     OW83467   1.431   5.855   7.550  0.2657 -0.2242  0.1517
27630SOL    HW183468   1.492   5.896   7.488 -1.5575  2.6970  0.0682
27630SOL    HW283469   1.400   5.777   7.505 -0.8905  1.6949 -2.7186
27631SOL     OW83470   0.842   6.548   7.461  0.4598 -0.0827 -0.1628
27631SOL    HW183471   0.915   6.604   7.487  0.1434 -0.0022  0.5820
27631SOL    HW283472   0.797   6.597   7.393 -0.5266  1.1664  1.3112
27632SOL     OW83473   4.524   6.839   3.849 -0.2057  0.4469  0.0208
27632SOL    HW183474   4.530   6.783   3.772 -0.5300  0.5682 -0.0945
27632SOL    HW283475   4.446   6.892   3.834 -1.0314 -0.4432  1.0511
27633SOL     OW83476   0.644   9.886   0.830 -0.4550  0.0736  0.4350
27633SOL    HW183477   0.630   9.889   0.925 -1.6593  1.6761  0.2513
27633SOL    HW283478   0.576   9.827   0.798  0.7959 -1.5446  0.6646
27634SOL     OW83479   4.937   7.487   3.595 -0.7805 -0.2350  0.5582
27634SOL    HW183480   4.896   7.507   3.511 -0.1945 -1.7345 -0.1117
27634SOL    HW283481   4.967   7.397   3.587  1.5033  0.3681  1.4828
27635SOL     OW83482   2.265   6.638   6.381  0.0827 -0.0616 -0.4064
27635SOL    HW183483   2.338   6.662   6.325  0.3289  1.8045  0.6244
27635SOL    HW283484   2.207   6.587   6.325  1.2850  0.0137 -1.7591
27636SOL     OW83485   3.748   6.547   6.928 -0.0443  0.6047 -0.0436
27636SOL    HW183486   3.799   6.625   6.950 -0.5460  1.3499 -1.3907
27636SOL    HW283487   3.657   6.571   6.949  0.0173 -0.3582  1.4201
27637SOL     OW83488   3.614   5.095   4.377  0.4260 -0.2020 -0.2754
27637SOL    HW183489   3.703   5.130   4.368  0.3384  0.0274 -0.2450
27637SOL    HW283490   3.565   5.164   4.420 -0.0636  0.1646 -1.3748
27638SOL     OW83491   6.755   5.546   1.806  0.5380  0.3874  0.1521
27638SOL    HW183492   6.834   5.493   1.803  0.0496 -0.4316  1.0574
27638SOL    HW283493   6.683   5.483   1.801 -0.0671  1.0886 -0.3059
27639SOL     OW83494   2.681   9.630   5.796  0.7242 -0.0544  0.1487
27639SOL    HW183495   2.615   9.694   5.824  0.7426 -0.2975  0.7617
27639SOL    HW283496   2.632   9.569   5.741  0.6085  0.2252 -0.0621
27640SOL     OW83497   2.430   1.368   8.604  0.2566  0.2159 -0.1362
27640SOL    HW183498   2.445   1.421   8.525  0.0710  3.5106  1.8595
27640SOL    HW283499   2.346   1.324   8.587  0.8305 -0.2054 -2.2320
27641SOL     OW83500   9.488   4.154   8.580 -0.2532  0.4121 -0.0698
27641SOL    HW183501   9.410   4.170   8.633 -1.5291 -2.2248 -0.9707
27641SOL    HW283502   9.543   4.098   8.635  0.3073  0.9825 -0.0390
27642SOL     OW83503   8.236   9.916   3.278 -0.3948 -0.4844  0.0695
27642SOL    HW183504   8.255   9.823   3.275 -1.5208 -0.7313 -2.4660
27642SOL    HW283505   8.314   9.958   3.242 -0.7373 -0.6694 -0.9229
27643SOL     OW83506   8.551   3.323   8.113  0.0258 -0.0378  0.1332
27643SOL    HW183507   8.572   3.416   8.115  0.2806 -0.0795 -0.5470
27643SOL    HW283508   8.597   3.289   8.037 -0.3725 -0.6498  0.1559
27644SOL     OW83509   7.137   2.854   1.609 -0.6658  0.9848  0.0991
27644SOL    HW183510   7.052   2.809   1.604  0.0436 -0.6961  1.8547
27644SOL    HW283511   7.162   2.847   1.701  2.5724 -0.9212 -0.7585
27645SOL     OW83512   0.443   6.597   8.658 -0.0818 -0.0057 -0.4265
27645SOL    HW183513   0.440   6.517   8.605 -0.9524 -0.3791  0.1456
27645SOL    HW283514   0.359   6.640   8.641  0.4711  0.9163 -0.8976
27646SOL     OW83515   5.989   8.222   9.640 -0.4295 -0.3805 -0.1796
27646SOL    HW183516   6.054   8.196   9.575 -0.0111 -1.3992  0.6047
27646SOL    HW283517   6.016   8.309   9.669 -1.2278  0.5511 -2.0975
27647SOL     OW83518   9.226   1.529   0.502 -0.5455  0.1523  0.1662
27647SOL    HW183519   9.133   1.512   0.486 -0.4723  1.0187 -1.3803
27647SOL    HW283520   9.270   1.453   0.463 -0.5023  1.1100 -1.8063
27648SOL     OW83521   1.765   3.510   8.141 -0.5258 -0.0302  0.4063
27648SOL    HW183522   1.713   3.565   8.199 -0.6694  0.3853 -0.1012
27648SOL    HW283523   1.745   3.544   8.053 -0.5625 -0.8451  0.0908
27649SOL     OW83524   8.505   3.134   3.635 -0.5367  0.2362 -0.2239
27649SOL    HW183525   8.553   3.051   3.640 -2.7760 -1.1144  0.3774
27649SOL    HW283526   8.483   3.143   3.542  1.2669  1.1630 -0.6036
27650SOL     OW83527   0.882   0.729   7.774 -0.1672 -0.0208 -0.1973
27650SOL    HW183528   0.963   0.764   7.811  0.0964  0.8003 -1.4816
27650SOL    HW283529   0.814   0.792   7.800 -0.0868  0.2281 -0.5835
27651SOL     OW83530   6.675   4.872   9.311 -0.0711 -0.0987  0.8313
27651SOL    HW183531   6.728   4.931   9.258  0.0830 -0.8217  0.1656
27651SOL    HW283532   6.685   4.905   9.401 -0.1886  1.0266  0.4462
27652SOL     OW83533   5.548   8.830   2.133 -0.0369  0.3915 -0.1779
27652SOL    HW183534   5.601   8.820   2.212  0.8404  0.2375 -0.7723
27652SOL    HW283535   5.507   8.744   2.121  0.2462  0.2514 -0.1686
27653SOL     OW83536   4.806   0.554   1.704 -0.9398 -0.2506 -0.3087
27653SOL    HW183537   4.847   0.468   1.701  1.4924  0.7975  0.2389
27653SOL    HW283538   4.764   0.558   1.790 -1.4054 -0.9956 -0.4930
27654SOL     OW83539   1.423   1.018   7.750 -0.0661  0.5999 -0.3508
27654SOL    HW183540   1.465   1.104   7.747  1.7606 -0.2585 -0.6657
27654SOL    HW283541   1.337   1.033   7.711  0.0074  2.3896  0.0705
27655SOL     OW83542   5.840   5.909   6.857 -0.1402 -0.4996  0.6190
27655SOL    HW183543   5.837   5.935   6.765  2.2341 -0.7617  0.4004
27655SOL    HW283544   5.874   5.985   6.903 -1.2810 -0.3824  1.2964
27656SOL     OW83545   6.943   2.675   2.703 -0.4145  0.4358  0.3014
27656SOL    HW183546   6.930   2.748   2.642  1.5922  0.9048  0.3588
27656SOL    HW283547   6.886   2.606   2.670 -0.4527  1.1668 -1.2718
27657SOL     OW83548   5.152   6.076   7.219  0.0009 -0.0019  0.3050
27657SOL    HW183549   5.168   6.134   7.294 -0.0631  1.5897 -0.8684
27657SOL    HW283550   5.229   6.019   7.216  0.6648  0.8515  0.7475
27658SOL     OW83551   8.609   5.730   9.737 -0.4686  0.5378 -0.4423
27658SOL    HW183552   8.691   5.758   9.695  1.1861  0.2435  2.3428
27658SOL    HW283553   8.603   5.636   9.718 -0.0332  0.5172 -0.4825
27659SOL     OW83554   9.542   1.359   6.895  0.3898 -0.3839  0.0438
27659SOL    HW183555   9.566   1.449   6.919 -0.0182  0.0699 -1.1611
27659SOL    HW283556   9.450   1.365   6.871  0.5573 -0.9637 -0.7860
27660SOL     OW83557   8.995   9.404   5.680 -0.1553  0.0598  0.2851
27660SOL    HW183558   9.014   9.364   5.595 -0.0172  0.4462  0.1341
27660SOL    HW283559   9.027   9.494   5.672  3.3114 -0.8452  1.9772
27661SOL     OW83560   4.438   5.566   8.756 -0.1454 -0.3170  0.2447
27661SOL    HW183561   4.533   5.558   8.762 -0.2977 -2.7767  0.6041
27661SOL    HW283562   4.408   5.566   8.847 -0.4641  1.6368  0.1737
27662SOL     OW83563   5.356   3.652   9.214 -0.9970  0.6520  0.6656
27662SOL    HW183564   5.414   3.726   9.232 -0.5437  0.4944 -0.1107
27662SOL    HW283565   5.281   3.690   9.170 -1.0771  0.7373  0.8751
27663SOL     OW83566   0.195   4.094   2.155 -0.1567  0.3728  0.2887
27663SOL    HW183567   0.279   4.051   2.170  0.5969  1.6524 -0.1238
27663SOL    HW283568   0.137   4.024   2.125  0.9427 -0.4101 -0.0743
27664SOL     OW83569   9.486   1.930   7.584 -0.2645  0.2950  0.1473
27664SOL    HW183570   9.574   1.907   7.557  0.3826  1.2775  1.3224
27664SOL    HW283571   9.432   1.856   7.557  0.8574 -0.1734 -0.8704
27665SOL     OW83572   6.405   1.433   2.595  0.1208  0.3367  0.5311
27665SOL    HW183573   6.441   1.462   2.511 -0.0076  0.2926  0.4595
27665SOL    HW283574   6.382   1.341   2.580  2.2947 -0.3978  1.3307
27666SOL     OW83575   0.885   5.018   9.213 -0.1804 -0.0695  0.2175
27666SOL    HW183576   0.948   5.032   9.284 -1.3439 -0.8389  1.4293
27666SOL    HW283577   0.890   4.925   9.194 -1.8896 -0.4171  1.2689
27667SOL     OW83578   4.960   9.125   7.679  0.5874 -0.0027 -0.0320
27667SOL    HW183579   4.996   9.085   7.758  0.0593 -0.3560  0.0334
27667SOL    HW283580   5.021   9.197   7.658  0.3956  0.4872  1.0426
27668SOL     OW83581   7.611   1.093   9.179  0.2886 -0.3573  0.3725
27668SOL    HW183582   7.608   1.028   9.249  0.8990 -0.8430 -0.0385
27668SOL    HW283583   7.620   1.177   9.225  0.6730 -0.6682  0.8835
27669SOL     OW83584   3.177   1.121   9.522 -0.5999 -0.2773 -0.2557
27669SOL    HW183585   3.101   1.084   9.478 -1.0499  2.1321 -1.6873
27669SOL    HW283586   3.252   1.077   9.481 -1.1253 -0.2444 -1.2846
27670SOL     OW83587   4.903   6.374   9.930  0.1810 -0.2966  0.6130
27670SOL    HW183588   4.809   6.374   9.950  0.2384  1.8747  1.1074
27670SOL    HW283589   4.925   6.281   9.924 -2.0980 -0.8673 -0.0971
27671SOL     OW83590   1.348   0.735   8.284 -0.0809  0.4467 -0.6913
27671SOL    HW183591   1.296   0.749   8.363  0.8433 -2.1867  0.4678
27671SOL    HW283592   1.411   0.667   8.307  2.3185  1.7647 -2.7796
27672SOL     OW83593   2.826   5.151   6.997 -0.1726 -0.2701  0.0626
27672SOL    HW183594   2.776   5.202   7.060 -0.5607  0.3680 -0.7489
27672SOL    HW283595   2.857   5.074   7.046 -0.6128  0.1303  0.9682
27673SOL     OW83596   2.126   2.974   8.766  0.2791  0.0727 -0.1066
27673SOL    HW183597   2.108   2.963   8.673  0.1514  0.0971 -0.0855
27673SOL    HW283598   2.052   3.026   8.799 -0.3404 -1.0165  0.2565
27674SOL     OW83599   2.891   7.398   9.326 -0.0291 -0.2886 -0.4785
27674SOL    HW183600   2.842   7.480   9.334  0.3419  0.0012 -1.0648
27674SOL    HW283601   2.938   7.389   9.409  0.7532  0.6434 -0.8067
27675SOL     OW83602   1.320   0.107   9.665 -0.2746 -0.0641 -0.6263
27675SOL    HW183603   1.358   0.182   9.621  1.1907 -0.0705  0.5369
27675SOL    HW283604   1.230   0.133   9.685  0.3408  1.5743  0.1703
27676SOL     OW83605   9.537   4.160   6.135  0.1000  0.0342 -0.2411
27676SOL    HW183606   9.590   4.223   6.087 -0.4492  0.4525 -0.3129
27676SOL    HW283607   9.497   4.105   6.067  2.4447 -2.0009 -0.1342
27677SOL     OW83608   4.866   9.374   4.473 -0.0636 -0.5894  0.3147
27677SOL    HW183609   4.872   9.389   4.378  0.3425  0.4816  0.4918
27677SOL    HW283610   4.920   9.297   4.488 -0.4717 -1.0162 -0.3846
27678SOL     OW83611   1.144   4.900   7.077  0.4140  0.4589 -0.3502
27678SOL    HW183612   1.220   4.842   7.072  1.2289  1.4244  0.5784
27678SOL    HW283613   1.180   4.988   7.077 -0.7437  0.9505 -0.4127
27679SOL     OW83614   2.490   6.737   0.910  0.5981  0.1316 -0.1722
27679SOL    HW183615   2.405   6.715   0.950 -0.9640 -0.2923 -3.4069
27679SOL    HW283616   2.503   6.829   0.932 -0.0468 -0.1266  1.4372
27680SOL     OW83617   2.338   9.914   3.179  0.4641  0.1640 -0.0417
27680SOL    HW183618   2.251   9.952   3.174  0.5910  0.6536  1.0461
27680SOL    HW283619   2.337   9.862   3.260  0.5865 -1.4308 -1.0220
27681SOL     OW83620   3.111   2.009   9.961 -0.1646 -0.0881  0.3675
27681SOL    HW183621   3.124   2.065   9.884  0.4255 -1.2272 -0.3958
27681SOL    HW283622   3.016   1.997   9.965 -0.2077  0.0614 -0.1174
27682SOL     OW83623   0.089   0.474   9.146 -0.0534  0.1382  0.1141
27682SOL    HW183624   0.103   0.450   9.054  0.2668  0.5359  0.0528
27682SOL    HW283625   0.008   0.430   9.170 -0.7737  0.9565 -0.7076
27683SOL     OW83626   9.893   2.554   9.638 -0.0340  0.1078 -0.1122
27683SOL    HW183627   9.821   2.604   9.676 -0.2127 -0.9396  0.9872
27683SOL    HW283628   9.858   2.465   9.628  0.7880 -0.1850 -0.5035
27684SOL     OW83629   9.227   8.615   2.304  0.4650 -0.1964  0.5962
27684SOL    HW183630   9.281   8.687   2.272 -0.2408 -0.0160 -0.2242
27684SOL    HW283631   9.255   8.539   2.253 -0.7623  0.1224 -0.6251
27685SOL     OW83632   4.108   4.708  -0.019 -0.1815  0.2111 -0.3333
27685SOL    HW183633   4.013   4.719  -0.027 -0.3577  0.5272  1.6874
27685SOL    HW283634   4.134   4.771   0.048  1.2743 -0.6751 -0.0233
27686SOL     OW83635   7.977   5.145   3.973 -0.3401 -0.2780  0.0916
27686SOL    HW183636   8.025   5.200   4.035  1.9799 -1.5633 -0.4334
27686SOL    HW283637   7.886   5.150   4.001  0.5710 -0.7499  3.5834
27687SOL     OW83638   7.517   7.907   1.265 -0.0780  0.0264  0.4339
27687SOL    HW183639   7.565   7.990   1.256  1.0399 -0.7067 -0.6705
27687SOL    HW283640   7.425   7.933   1.270  0.3640  1.5731  3.7272
27688SOL     OW83641   5.212   4.088   5.764 -0.1377  0.1745  0.1519
27688SOL    HW183642   5.174   4.017   5.816  1.0147 -0.8379 -0.3655
27688SOL    HW283643   5.144   4.110   5.700 -0.4550 -0.5341  0.2432
27689SOL     OW83644   7.588   2.465   1.226  0.4019 -0.1479  0.2306
27689SOL    HW183645   7.593   2.551   1.186  0.2343 -0.6150 -0.8136
27689SOL    HW283646   7.495   2.451   1.241  0.3790 -0.3750 -0.1152
27690SOL     OW83647   4.096   2.496   7.381  0.7442  0.0587 -0.1560
27690SOL    HW183648   4.154   2.503   7.457 -2.4148 -1.8750  2.7697
27690SOL    HW283649   4.082   2.402   7.370 -1.4085  0.4119 -0.9891
27691SOL     OW83650   3.615   0.997   9.576 -0.7363 -0.6758 -0.4352
27691SOL    HW183651   3.592   0.984   9.668  0.6796 -1.4607 -0.1694
27691SOL    HW283652   3.615   1.092   9.565 -1.5024 -0.5894  0.2105
27692SOL     OW83653   3.757   8.196   4.701  0.2221  0.1496  0.0087
27692SOL    HW183654   3.741   8.262   4.634  0.0571  0.4843  0.3758
27692SOL    HW283655   3.671   8.156   4.717  0.0220  0.8999  0.8835
27693SOL     OW83656   3.508   5.014   7.901  0.0381 -0.5638  0.2906
27693SOL    HW183657   3.525   4.950   7.832 -2.2832  0.3663 -1.2866
27693SOL    HW283658   3.509   4.963   7.982  3.1284 -1.6456 -0.2906
27694SOL     OW83659   3.166   1.184   5.238  0.3141 -0.2977  0.2436
27694SOL    HW183660   3.238   1.129   5.268  0.6731  0.3256  0.5465
27694SOL    HW283661   3.162   1.169   5.143 -0.0163 -1.3273  0.4127
27695SOL     OW83662   3.245   4.696   3.580 -0.0385  0.1248 -0.4438
27695SOL    HW183663   3.222   4.698   3.673  1.9911  0.0325  0.1007
27695SOL    HW283664   3.245   4.604   3.557  0.3065  0.0873 -0.2998
27696SOL     OW83665   6.824   7.170   3.985  0.6976  0.2274  0.5002
27696SOL    HW183666   6.913   7.193   4.011  0.5231  0.0595  1.2670
27696SOL    HW283667   6.833   7.138   3.895  1.4882 -0.2764  0.7482
27697SOL     OW83668   6.743   0.804   8.174 -0.3800 -0.0965 -0.2192
27697SOL    HW183669   6.686   0.743   8.127 -0.8947  1.5035 -1.8171
27697SOL    HW283670   6.686   0.842   8.242 -0.4579 -0.3857 -0.1232
27698SOL     OW83671   9.924   7.352   7.947  0.4027 -0.4791 -0.0804
27698SOL    HW183672   9.910   7.306   7.864 -1.3172  0.6839 -0.5118
27698SOL    HW283673  10.016   7.379   7.945  0.7260 -1.5961 -0.9978
27699SOL     OW83674   4.621   8.721   9.646  0.3334  0.1279  0.0741
27699SOL    HW183675   4.598   8.701   9.736  0.2296 -0.3225 -0.0496
27699SOL    HW283676   4.618   8.637   9.601 -1.5273  0.5916 -0.7851
27700SOL     OW83677   0.740   4.844   0.809  0.2160 -0.4006 -0.1506
27700SOL    HW183678   0.706   4.913   0.752  0.6407  0.2145  0.3264
27700SOL    HW283679   0.661   4.798   0.841 -0.0513 -0.3446 -0.7239
27701SOL     OW83680   7.517   7.102   0.013  0.1067 -0.0906 -0.0906
27701SOL    HW183681   7.428   7.120  -0.015  0.0100  0.2223  0.3974
27701SOL    HW283682   7.532   7.163   0.086  0.3015 -0.9402  0.6053
27702SOL     OW83683   3.356   8.889   4.281  0.4482  0.0489  0.1915
27702SOL    HW183684   3.279   8.897   4.225  1.5834  0.7447 -1.3428
27702SOL    HW283685   3.369   8.795   4.291  0.5062 -0.1029 -1.1616
27703SOL     OW83686   3.006   7.294   7.472 -0.1098 -0.1153 -0.2366
27703SOL    HW183687   3.090   7.292   7.425 -0.3165  0.4664 -0.6565
27703SOL    HW283688   2.942   7.266   7.406 -0.1272 -1.5709  0.3805
27704SOL     OW83689   4.388   5.787   1.748  0.5749 -0.3238  0.0044
27704SOL    HW183690   4.372   5.797   1.842 -0.2955  0.1937 -0.1804
27704SOL    HW283691   4.479   5.814   1.736  0.2167  1.2476  0.4895
27705SOL     OW83692   0.034   8.942   4.596  0.1455  0.1062 -0.0048
27705SOL    HW183693   0.043   8.996   4.518  1.3519 -0.2026 -0.0941
27705SOL    HW283694  -0.055   8.908   4.591  0.1843  0.1400 -1.2249
27706SOL     OW83695   9.892   1.992   3.139 -0.1687  0.1561 -0.5063
27706SOL    HW183696   9.929   1.959   3.057  1.0023 -1.2862  0.5339
27706SOL    HW283697   9.964   2.039   3.181  0.1483 -1.5037  0.9220
27707SOL     OW83698   1.819   6.024   6.636  0.5566  0.0632  0.0232
27707SOL    HW183699   1.843   5.946   6.586  1.6125 -0.4187  1.2176
27707SOL    HW283700   1.743   5.997   6.687 -1.2020  0.8814 -2.0428
27708SOL     OW83701   8.805   3.249   8.943  0.0069  0.3216  0.2578
27708SOL    HW183702   8.737   3.186   8.970  0.1089 -0.3447 -0.9537
27708SOL    HW283703   8.887   3.208   8.969  0.0807 -0.1209 -0.6410
27709SOL     OW83704   7.086   4.446   2.100  0.4073  0.0311 -0.5168
27709SOL    HW183705   7.130   4.363   2.121  0.7516  0.6422  1.3849
27709SOL    HW283706   6.996   4.433   2.127  0.1566 -0.1049 -1.3674
27710SOL     OW83707   1.065   6.885   2.996  0.2692  0.2173  0.2097
27710SOL    HW183708   1.100   6.972   2.979 -1.3505  0.6765 -0.9947
27710SOL    HW283709   1.138   6.826   2.976  0.8488  1.2033 -0.6773
27711SOL     OW83710   4.987   9.834   0.846 -0.0883 -0.3302  0.7378
27711SOL    HW183711   5.006   9.742   0.863 -0.7399 -0.6516 -0.2112
27711SOL    HW283712   4.917   9.833   0.780  0.1668  0.8369  0.4216
27712SOL     OW83713   2.332   4.656   5.995  0.2495  0.3555  0.1345
27712SOL    HW183714   2.357   4.744   6.025  1.9569  0.3135 -1.0151
27712SOL    HW283715   2.357   4.598   6.066  0.8669  0.6201  0.1368
27713SOL     OW83716   0.188   6.956   3.060  0.2453 -0.3511  0.0030
27713SOL    HW183717   0.199   6.982   3.152  0.0101  0.0974 -0.0955
27713SOL    HW283718   0.096   6.971   3.041  0.4393  0.2316 -0.5129
27714SOL     OW83719   1.438   2.467   8.365 -0.3368 -0.2150 -0.1550
27714SOL    HW183720   1.472   2.503   8.447 -0.5819  1.1949 -0.6464
27714SOL    HW283721   1.499   2.396   8.343  0.1342 -0.1544  0.8773
27715SOL     OW83722   9.544   9.936   8.617  0.3338  0.0931  0.4728
27715SOL    HW183723   9.538   9.841   8.609 -0.1142  0.2144 -0.9454
27715SOL    HW283724   9.529   9.954   8.710 -0.5777 -1.1481  0.5812
27716SOL     OW83725   9.934   1.103   6.982 -0.0683 -0.6230 -0.1504
27716SOL    HW183726   9.936   1.196   7.002  0.2804 -0.3860 -1.2189
27716SOL    HW283727   9.959   1.098   6.890 -0.6288 -1.7292 -0.2584
27717SOL     OW83728   4.562   8.982   4.568 -0.4414 -0.2896 -0.1233
27717SOL    HW183729   4.514   9.064   4.558 -0.9602 -0.7210 -1.3259
27717SOL    HW283730   4.506   8.916   4.526  0.3721 -1.1126  0.0543
27718SOL     OW83731   5.213   6.811   6.822  0.6332  0.2146  0.5366
27718SOL    HW183732   5.150   6.883   6.821 -0.0892 -0.4037  0.5289
27718SOL    HW283733   5.169   6.741   6.872  0.7962 -0.6905 -0.5506
27719SOL     OW83734   1.203   1.362   1.474 -0.4441 -0.1989 -0.5340
27719SOL    HW183735   1.192   1.283   1.526 -1.6816  0.0694 -0.3426
27719SOL    HW283736   1.128   1.362   1.414 -0.6251  0.9521 -0.3387
27720SOL     OW83737   3.148   6.379   2.290 -0.1016  0.4025  0.2984
27720SOL    HW183738   3.151   6.437   2.213 -0.1979  0.0375  0.0178
27720SOL    HW283739   3.061   6.340   2.287  0.6325 -1.2628 -0.6343
27721SOL     OW83740   1.688   3.359   3.791 -0.1497 -0.6987  0.2512
27721SOL    HW183741   1.755   3.292   3.783 -0.3757 -0.8138 -0.7986
27721SOL    HW283742   1.606   3.313   3.774 -0.2446 -0.0333 -1.2425
27722SOL     OW83743   7.357   3.194   6.375 -0.3535 -0.2176 -0.1165
27722SOL    HW183744   7.442   3.161   6.345 -0.3233 -1.3739  1.1327
27722SOL    HW283745   7.371   3.219   6.466 -0.5786  2.6762 -0.7940
27723SOL     OW83746   4.093   0.607   0.695 -0.2934 -0.1116 -0.4455
27723SOL    HW183747   4.071   0.557   0.773  1.2827 -1.5930 -0.8783
27723SOL    HW283748   4.188   0.616   0.698 -0.3719  1.2943 -1.3356
27724SOL     OW83749   8.497   1.184   3.666  0.0633  0.1074  0.6784
27724SOL    HW183750   8.546   1.104   3.646 -1.1113 -0.4053 -0.2966
27724SOL    HW283751   8.531   1.211   3.751  1.6589 -0.4903  0.2836
27725SOL     OW83752   6.804   7.688   5.357 -0.5617 -0.0449  0.3312
27725SOL    HW183753   6.883   7.740   5.373  0.6662 -1.8493  0.3910
27725SOL    HW283754   6.732   7.750   5.370  0.8229  1.6370  0.3482
27726SOL     OW83755   1.131   6.249   7.474  0.0237  0.2953  0.5891
27726SOL    HW183756   1.186   6.250   7.396  1.1992 -0.0646  1.3924
27726SOL    HW283757   1.134   6.159   7.505 -1.8146  0.0327  0.1327
27727SOL     OW83758   2.618   9.268   3.246 -0.2780 -0.0585  0.2223
27727SOL    HW183759   2.657   9.355   3.234 -0.5947  0.0013 -0.4068
27727SOL    HW283760   2.580   9.271   3.334 -0.3899  0.4796  0.1586
27728SOL     OW83761   1.734   2.490   9.012  0.0492 -1.0687  0.0058
27728SOL    HW183762   1.732   2.520   9.103  2.1790  0.3369 -0.3277
27728SOL    HW283763   1.650   2.518   8.975  1.3149  3.6930  0.0915
27729SOL     OW83764   0.494   7.486   6.728  0.4862 -0.7529  0.3655
27729SOL    HW183765   0.513   7.410   6.783 -0.7277 -0.1230  1.7006
27729SOL    HW283766   0.414   7.463   6.681  0.6785 -0.6803 -0.0094
27730SOL     OW83767   5.993   8.995   7.629 -0.5621  0.3262 -0.2948
27730SOL    HW183768   6.062   9.052   7.662 -0.8714  0.5685 -0.0630
27730SOL    HW283769   6.040   8.918   7.597 -0.1493  0.6827 -0.5588
27731SOL     OW83770   2.413   2.790   1.461 -0.1026 -0.5210 -0.0543
27731SOL    HW183771   2.481   2.814   1.398  0.0897 -0.7709  0.0559
27731SOL    HW283772   2.455   2.726   1.518  0.0098  0.3680  0.8928
27732SOL     OW83773   4.168   6.008   9.056  0.1099  0.0409  0.2191
27732SOL    HW183774   4.238   5.994   9.120 -0.5491 -0.7114  0.7902
27732SOL    HW283775   4.103   5.940   9.075 -0.5810  0.4499 -0.5838
27733SOL     OW83776   9.941   9.451   2.688 -0.6169 -0.0207  0.0565
27733SOL    HW183777   9.935   9.515   2.617  0.7592  0.6217  0.4778
27733SOL    HW283778   9.980   9.374   2.647  1.0481  0.6680  0.2687
27734SOL     OW83779   0.330   1.074   5.853  0.1359  0.3375 -0.0566
27734SOL    HW183780   0.390   1.016   5.901  0.4688 -0.0459 -0.9149
27734SOL    HW283781   0.243   1.052   5.887  0.1939 -1.0710 -0.7395
27735SOL     OW83782   6.609   2.494   7.874  0.8653  0.1198 -0.5669
27735SOL    HW183783   6.614   2.446   7.957 -0.9934  0.1639 -0.4013
27735SOL    HW283784   6.658   2.575   7.891  1.4438 -0.3621  0.1257
27736SOL     OW83785   0.310   5.586   1.961  0.3951 -0.4417  0.3597
27736SOL    HW183786   0.348   5.564   1.876  0.3195 -0.3609  0.3049
27736SOL    HW283787   0.215   5.582   1.947  0.3641 -1.6853  0.7587
27737SOL     OW83788   7.268   7.112   4.521  0.1453 -0.1367 -0.3787
27737SOL    HW183789   7.293   7.027   4.556 -0.4106 -0.5338 -0.9151
27737SOL    HW283790   7.186   7.133   4.564  1.8424  1.7072  2.2574
27738SOL     OW83791   2.120   0.895   8.543 -0.6172  0.0370 -0.3534
27738SOL    HW183792   2.078   0.856   8.467 -1.2822 -2.1701  1.0644
27738SOL    HW283793   2.056   0.958   8.576 -0.3364  0.9920 -1.5148
27739SOL     OW83794   0.948   4.004   4.126  0.2004 -0.0815  0.1046
27739SOL    HW183795   0.980   4.073   4.185 -3.1439  0.5318  1.4254
27739SOL    HW283796   0.955   3.924   4.178  0.9809 -0.2023 -0.1815
27740SOL     OW83797   3.188   2.914   4.265  0.6275 -0.6677 -0.7334
27740SOL    HW183798   3.112   2.938   4.212  0.7011 -0.7068 -0.8584
27740SOL    HW283799   3.166   2.828   4.301  1.1472 -1.2940 -1.8368
27741SOL     OW83800   2.038   4.648   7.127  0.2826 -0.1473 -0.3072
27741SOL    HW183801   2.050   4.571   7.071  0.2179 -0.9695  0.7836
27741SOL    HW283802   2.125   4.669   7.159  0.1288 -0.5317  0.3764
27742SOL     OW83803   8.018   3.756   6.659 -0.3666 -0.4401 -0.4506
27742SOL    HW183804   7.934   3.715   6.638  0.0946 -1.6109 -0.0887
27742SOL    HW283805   8.083   3.697   6.621  0.3377 -0.4290  0.7023
27743SOL     OW83806   4.061   8.845   0.505  0.4411  0.4556 -0.2349
27743SOL    HW183807   4.002   8.918   0.486  0.5635  0.3759 -0.9142
27743SOL    HW283808   4.003   8.771   0.521  0.3183  0.6726  0.3935
27744SOL     OW83809   5.576   9.946   8.768  0.7383  0.1038  0.0439
27744SOL    HW183810   5.544   9.971   8.682  1.8047 -1.2940 -0.8086
27744SOL    HW283811   5.498   9.945   8.823  0.3927  3.5455 -0.1872
27745SOL     OW83812   4.491   7.347   7.685 -0.2428 -0.0880  0.0171
27745SOL    HW183813   4.503   7.425   7.739 -0.0286  0.2582 -0.5256
27745SOL    HW283814   4.530   7.276   7.737  0.0760  0.2598  0.2607
27746SOL     OW83815   8.956   5.217   9.320  0.3892  0.1521 -0.2369
27746SOL    HW183816   9.024   5.257   9.266  0.3828  2.4840  1.3295
27746SOL    HW283817   8.994   5.134   9.349  1.9205  0.6725 -0.6812
27747SOL     OW83818   3.476   8.913   1.793  0.3466  0.1109  0.0982
27747SOL    HW183819   3.408   8.887   1.855  1.2447 -0.5861  0.8204
27747SOL    HW283820   3.431   8.919   1.709 -1.1402  2.1670  0.9464
27748SOL     OW83821   8.857   2.897   0.011  0.1427  0.2995  0.1148
27748SOL    HW183822   8.867   2.919   0.103  2.0903  0.6081 -0.1153
27748SOL    HW283823   8.881   2.977  -0.036 -0.8634  0.1609 -0.6669
27749SOL     OW83824   4.979   6.869   9.832 -0.2727  0.1923 -0.4899
27749SOL    HW183825   4.888   6.899   9.822 -0.9322  0.1742  3.6458
27749SOL    HW283826   4.971   6.775   9.849  0.5228  0.1504 -0.3307
27750SOL     OW83827   3.448   7.323   1.826 -0.1963  0.3065 -0.1007
27750SOL    HW183828   3.531   7.291   1.860 -0.7661  0.8687  1.9650
27750SOL    HW283829   3.406   7.246   1.788  0.1828 -0.5622  1.1717
27751SOL     OW83830   7.473   2.122   0.718 -0.2327  0.3694 -0.0497
27751SOL    HW183831   7.413   2.192   0.691 -0.9103 -0.3040 -0.3341
27751SOL    HW283832   7.480   2.132   0.813  0.3539  1.3453 -0.1892
27752SOL     OW83833   3.478   8.669   0.832  0.2582 -0.0044  0.1765
27752SOL    HW183834   3.472   8.574   0.822 -0.9507  0.2523 -2.3707
27752SOL    HW283835   3.572   8.688   0.830  0.4774 -0.9511 -2.6804
27753SOL     OW83836   1.622   4.151   8.986 -0.1242 -0.1468  0.3109
27753SOL    HW183837   1.619   4.056   8.996 -2.2966 -0.0606  0.9656
27753SOL    HW283838   1.661   4.182   9.068 -1.4061 -0.3967  1.0475
27754SOL     OW83839   8.653   4.866   6.164 -0.1110  0.1819  0.7808
27754SOL    HW183840   8.611   4.947   6.195 -1.5410 -0.5996  0.9773
27754SOL    HW283841   8.636   4.865   6.070 -1.1087 -0.4498  0.9615
27755SOL     OW83842   1.378   4.065   1.116 -0.2141 -0.0717  0.1885
27755SOL    HW183843   1.330   4.003   1.061 -0.4245 -1.3564  1.7398
27755SOL    HW283844   1.432   4.115   1.055 -4.1316  2.1851 -1.8797
27756SOL     OW83845   6.421   0.344   6.557 -0.6606 -0.5612  0.3759
27756SOL    HW183846   6.406   0.329   6.463  0.3200  0.7657 -0.0189
27756SOL    HW283847   6.429   0.439   6.565  0.9309 -0.7584  1.5319
27757SOL     OW83848   5.516   5.317   4.903  0.2487 -0.4768 -0.4792
27757SOL    HW183849   5.469   5.393   4.870 -0.4126 -0.0563  1.3456
27757SOL    HW283850   5.449   5.264   4.946  1.1311 -0.8072  0.5191
27758SOL     OW83851   6.995   6.283   8.160  0.0887 -0.4718 -0.3282
27758SOL    HW183852   6.980   6.377   8.151  0.5403 -0.5040 -1.4988
27758SOL    HW283853   7.090   6.275   8.170  0.2404 -0.9027 -1.8722
27759SOL     OW83854   4.874   3.059   1.380 -0.7607  0.2527 -0.5226
27759SOL    HW183855   4.870   3.101   1.294  0.5726  1.6459  0.0407
27759SOL    HW283856   4.831   3.121   1.439 -1.3157 -0.5066 -0.1214
27760SOL     OW83857   3.577   0.444   0.741  0.3841 -0.3151  0.5864
27760SOL    HW183858   3.545   0.388   0.671  0.1841  0.6752 -0.1477
27760SOL    HW283859   3.623   0.515   0.695  4.1733 -1.9197  1.5461
27761SOL     OW83860   4.463   0.192   3.201  0.5536  0.0823 -0.1274
27761SOL    HW183861   4.546   0.176   3.245  0.4695 -0.0993 -0.0298
27761SOL    HW283862   4.433   0.105   3.175  0.1022  0.0758  0.3764
27762SOL     OW83863   6.994   6.431   0.538  0.2510 -0.2594  0.3212
27762SOL    HW183864   7.015   6.520   0.568  1.1977 -0.3765  0.0529
27762SOL    HW283865   7.063   6.376   0.576 -0.2958 -0.8730  0.4387
27763SOL     OW83866   2.548   4.213   5.976 -0.3216 -0.8334 -0.2320
27763SOL    HW183867   2.599   4.292   5.989  0.2822 -1.1692 -0.5366
27763SOL    HW283868   2.458   4.239   5.995 -0.0480 -0.2220  0.2292
27764SOL     OW83869   0.161   7.082   2.098  0.1637  0.1490  0.5936
27764SOL    HW183870   0.245   7.123   2.116  0.0408  0.4789  0.4171
27764SOL    HW283871   0.107   7.152   2.062 -0.3944  0.0992  1.3110
27765SOL     OW83872   3.656   9.415   3.327 -0.4371 -0.0905 -0.2521
27765SOL    HW183873   3.666   9.486   3.264 -2.0012  1.0584  0.7250
27765SOL    HW283874   3.745   9.381   3.340  0.7013  2.9430  0.6435
27766SOL     OW83875   2.245   7.215   7.737  0.0143 -0.3512  0.0160
27766SOL    HW183876   2.274   7.288   7.791 -1.5917  0.4895 -0.1964
27766SOL    HW283877   2.257   7.138   7.792 -0.5422  0.3605  1.1674
27767SOL     OW83878   0.335   7.891   6.284  0.3682 -0.2903 -0.1077
27767SOL    HW183879   0.328   7.802   6.250  2.0588 -0.4732 -0.0745
27767SOL    HW283880   0.368   7.880   6.373  0.6891  0.3791 -0.1403
27768SOL     OW83881   0.860   1.155   5.254  0.3751 -0.4357 -0.3275
27768SOL    HW183882   0.920   1.085   5.282  1.4109 -0.0948 -1.6138
27768SOL    HW283883   0.855   1.146   5.159  0.5680  1.2735 -0.5268
27769SOL     OW83884   7.115   9.774   7.672 -0.3368  0.0248  0.1388
27769SOL    HW183885   7.063   9.724   7.735 -0.7019 -0.6996 -0.7264
27769SOL    HW283886   7.124   9.861   7.712 -0.7305 -0.3611  1.0907
27770SOL     OW83887   5.205   2.034   2.079 -0.4545  0.1772  0.7062
27770SOL    HW183888   5.140   2.104   2.070 -0.7534 -0.1983 -0.0606
27770SOL    HW283889   5.284   2.070   2.039 -1.3977 -0.9707 -2.5174
27771SOL     OW83890   8.959   5.438   6.034  0.3897  0.2150  0.2190
27771SOL    HW183891   8.874   5.459   5.996  0.3786 -0.4991 -0.1548
27771SOL    HW283892   8.948   5.351   6.072  0.3670  0.9278  1.9546
27772SOL     OW83893   7.099   9.090   8.289 -0.2430  0.1568 -0.2479
27772SOL    HW183894   7.052   9.046   8.359  0.3407  1.1011  0.7808
27772SOL    HW283895   7.186   9.107   8.326  0.0550  0.7278 -1.1781
27773SOL     OW83896   1.167   0.649   7.296  0.3408 -0.0548  0.2201
27773SOL    HW183897   1.103   0.663   7.366 -0.6030  0.6950 -0.7483
27773SOL    HW283898   1.118   0.666   7.216  1.8944  1.0885 -0.5433
27774SOL     OW83899   0.906   7.839   5.599 -0.1775 -0.4241 -0.7787
27774SOL    HW183900   0.911   7.746   5.575 -0.2556 -0.6800  0.1343
27774SOL    HW283901   0.870   7.838   5.688  4.3373  0.1895  1.3057
27775SOL     OW83902   8.513   7.472   3.519  0.0924 -0.6059 -0.0549
27775SOL    HW183903   8.506   7.547   3.578 -0.7806 -0.4363 -0.3578
27775SOL    HW283904   8.602   7.439   3.532  0.1240 -0.1842  0.8845
27776SOL     OW83905   7.012   9.473   6.075 -0.6209 -0.2996 -0.0058
27776SOL    HW183906   7.021   9.381   6.050  0.2521  0.0962 -1.2572
27776SOL    HW283907   7.058   9.480   6.159 -2.3478 -1.3663  1.0870
27777SOL     OW83908   6.970   7.902   1.447  0.3624  0.4349  0.1986
27777SOL    HW183909   7.015   7.823   1.417  1.3823  0.1541  2.3233
27777SOL    HW283910   6.946   7.947   1.366  2.5191 -0.4957 -1.0593
27778SOL     OW83911   5.587   9.990   6.840 -0.5478  0.9226  0.5752
27778SOL    HW183912   5.580   9.927   6.768  2.0259  3.4662 -2.1499
27778SOL    HW283913   5.528   9.955   6.907 -1.7101 -2.6131 -1.9585
27779SOL     OW83914   4.634   0.510   5.525 -0.6008 -0.0761  0.7442
27779SOL    HW183915   4.649   0.543   5.613 -0.9554  0.9321  0.4370
27779SOL    HW283916   4.552   0.461   5.531 -1.0026  0.5922  0.8269
27780SOL     OW83917   4.805   8.868   3.341  0.0872  0.2084  0.2492
27780SOL    HW183918   4.790   8.788   3.290  0.0255 -0.0990  0.7348
27780SOL    HW283919   4.746   8.859   3.416 -0.9810  1.3822 -0.4140
27781SOL     OW83920   6.850   3.323   4.053 -0.9438  0.0062  0.2444
27781SOL    HW183921   6.862   3.408   4.095 -2.0376  0.2828  0.0507
27781SOL    HW283922   6.937   3.297   4.024 -0.6229  1.1560  0.1413
27782SOL     OW83923   7.188   6.285   0.649 -0.0917  0.1434  0.5873
27782SOL    HW183924   7.247   6.263   0.577 -1.4717 -3.4918  0.3615
27782SOL    HW283925   7.232   6.249   0.727 -0.4543  0.4533  0.9385
27783SOL     OW83926   2.385   2.860   6.174  0.5378  0.0982  0.0358
27783SOL    HW183927   2.320   2.889   6.109  1.9221  3.3103 -0.1288
27783SOL    HW283928   2.462   2.840   6.121  0.9471  0.4354  0.5025
27784SOL     OW83929   6.303   8.846   8.294  0.1206  0.0822 -0.7402
27784SOL    HW183930   6.231   8.902   8.266 -1.6175 -0.7468  1.7108
27784SOL    HW283931   6.319   8.871   8.385  1.9913 -0.7473 -0.7954
27785SOL     OW83932   4.826   4.437   0.438  0.6086  0.2704 -0.2034
27785SOL    HW183933   4.763   4.418   0.507 -0.0622  2.1660 -0.2476
27785SOL    HW283934   4.842   4.531   0.445  1.5335  0.2653 -1.7872
27786SOL     OW83935   3.501   2.891   1.098  0.1620  0.1134  0.5898
27786SOL    HW183936   3.525   2.927   1.184 -2.0018  1.8137  0.5493
27786SOL    HW283937   3.536   2.802   1.099  1.1514  0.4638  2.7898
27787SOL     OW83938   9.434   3.613   4.477  0.3844 -0.5670  0.5993
27787SOL    HW183939   9.521   3.573   4.468  0.8973  0.8554 -1.7153
27787SOL    HW283940   9.440   3.664   4.559  1.2261 -1.6039  1.2125
27788SOL     OW83941   9.423   7.986   4.624 -0.3252 -0.0093  0.5847
27788SOL    HW183942   9.415   7.979   4.719  0.4616 -0.2267  0.6435
27788SOL    HW283943   9.374   8.065   4.601 -0.5962 -0.0058  1.1571
27789SOL     OW83944   3.140   9.646   2.212 -0.1431 -0.2986 -0.0977
27789SOL    HW183945   3.101   9.714   2.267  0.2091 -0.0261 -0.1808
27789SOL    HW283946   3.106   9.564   2.248  0.6346 -0.1729  0.9844
27790SOL     OW83947   2.286   4.243   6.076  0.6064  0.1013 -0.1367
27790SOL    HW183948   2.198   4.267   6.047  1.1792  1.0315 -1.1753
27790SOL    HW283949   2.286   4.147   6.075 -0.1294  0.0923 -0.9638
27791SOL     OW83950   7.619   2.148   2.692  0.3518 -0.2124 -0.2951
27791SOL    HW183951   7.688   2.165   2.628 -1.3426  3.5174 -1.4290
27791SOL    HW283952   7.549   2.107   2.641 -0.1866  0.7890 -0.3819
27792SOL     OW83953   9.139   2.670   5.582 -0.1416 -0.2534  0.2767
27792SOL    HW183954   9.046   2.693   5.590 -0.7873 -2.0070 -1.2889
27792SOL    HW283955   9.183   2.753   5.566 -1.7666  0.3820 -1.2266
27793SOL     OW83956   7.261   7.463   6.631 -0.3800  0.1819  0.7182
27793SOL    HW183957   7.193   7.456   6.564 -0.8466 -0.3985  1.2491
27793SOL    HW283958   7.297   7.551   6.618 -1.1433  0.4533  0.3548
27794SOL     OW83959   7.745   1.085   5.537  0.3880  0.0203  0.0394
27794SOL    HW183960   7.727   1.001   5.580 -0.7871 -0.0253 -0.4948
27794SOL    HW283961   7.837   1.079   5.511  1.0489 -0.0559  2.2331
27795SOL     OW83962   2.923   8.299   0.759  0.0443  0.1622  0.0622
27795SOL    HW183963   2.918   8.281   0.852 -0.3738  1.0270  0.2178
27795SOL    HW283964   2.922   8.395   0.753 -1.1041  0.1097 -0.8831
27796SOL     OW83965   6.539   1.773   1.595  0.2057  0.0213  0.1978
27796SOL    HW183966   6.561   1.855   1.551  0.7748 -1.8298 -3.3343
27796SOL    HW283967   6.444   1.773   1.600  0.1358  0.4233 -0.8898
27797SOL     OW83968   2.485   7.664   0.655  0.0305 -0.0537  0.5364
27797SOL    HW183969   2.437   7.712   0.588  3.3676  0.5052 -1.6670
27797SOL    HW283970   2.498   7.728   0.725 -0.5488  0.4117  0.2313
27798SOL     OW83971   7.632   5.087   3.831 -0.3634 -0.5096  0.1157
27798SOL    HW183972   7.598   5.131   3.909  0.8737  1.1810 -0.2441
27798SOL    HW283973   7.586   5.128   3.758  0.2840 -0.2854 -0.1798
27799SOL     OW83974   0.807   3.894   5.730  0.1330 -0.2387  0.3588
27799SOL    HW183975   0.866   3.884   5.656 -0.2162 -2.9881  0.3417
27799SOL    HW283976   0.720   3.899   5.690  0.1758  2.6162  0.4436
27800SOL     OW83977   4.639   7.853   9.738 -0.4059 -0.0190  0.0193
27800SOL    HW183978   4.726   7.813   9.743  0.7808  1.1395 -5.0410
27800SOL    HW283979   4.656   7.947   9.740 -1.5378  0.2138 -0.5568
27801SOL     OW83980   9.626   5.922   4.939  0.2179  0.3266  0.1738
27801SOL    HW183981   9.640   5.895   4.848 -1.7921  0.1630 -0.1235
27801SOL    HW283982   9.581   5.848   4.980 -2.3374  1.7937  0.2487
27802SOL     OW83983   2.379   8.676   0.877 -0.0010  0.3562  0.1174
27802SOL    HW183984   2.412   8.610   0.939  0.7658 -0.0004 -0.6514
27802SOL    HW283985   2.291   8.696   0.908  0.6447  0.7610  1.7837
27803SOL     OW83986   0.651   4.287   6.270 -0.5304 -0.4526  0.3573
27803SOL    HW183987   0.634   4.303   6.177  0.8904 -0.9844 -0.0167
27803SOL    HW283988   0.600   4.209   6.291 -1.4474  0.1031  0.2269
27804SOL     OW83989   3.534   5.740   8.068 -0.3535  0.3773 -0.1699
27804SOL    HW183990   3.601   5.783   8.015 -0.4706  0.1734 -0.4866
27804SOL    HW283991   3.488   5.812   8.111  0.2768  0.5057  0.3131
27805SOL     OW83992   4.477   1.324   3.510 -0.4926  0.5337 -0.2757
27805SOL    HW183993   4.480   1.415   3.483  0.1185  0.6085  0.0376
27805SOL    HW283994   4.423   1.281   3.443  0.6293  0.8011 -1.3781
27806SOL     OW83995   7.216   2.061   1.542  0.1177 -0.3335  0.1750
27806SOL    HW183996   7.195   1.974   1.510 -0.6354 -1.1550  2.6114
27806SOL    HW283997   7.132   2.094   1.576  0.7405  0.6168  0.8363
27807SOL     OW83998   8.805   7.626   3.306  0.2745 -0.0693  0.3862
27807SOL    HW183999   8.862   7.694   3.344  0.7466  0.5678 -1.3832
27807SOL    HW284000   8.860   7.584   3.240 -0.8920 -0.3445 -0.4298
27808SOL     OW84001   8.896   0.263   7.171  0.3516  0.5535 -0.3779
27808SOL    HW184002   8.931   0.326   7.109  1.9085 -1.1166 -1.2654
27808SOL    HW284003   8.960   0.259   7.241  0.3760 -0.1913 -0.4336
27809SOL     OW84004   0.245   7.657   2.413 -0.1292 -0.0793  0.2296
27809SOL    HW184005   0.244   7.565   2.440 -2.3110  0.3303  1.8158
27809SOL    HW284006   0.301   7.658   2.335 -0.3879 -2.8126 -0.1123
27810SOL     OW84007   4.727   9.702   5.008 -0.2173 -0.6630  0.3300
27810SOL    HW184008   4.718   9.776   5.069 -0.6887 -0.1261 -0.3806
27810SOL    HW284009   4.689   9.628   5.055  0.0551 -0.4136  0.9590
27811SOL     OW84010   4.616   6.098   2.684  0.0036  0.2371  0.1439
27811SOL    HW184011   4.546   6.033   2.677  0.3290 -0.0899 -0.0900
27811SOL    HW284012   4.628   6.109   2.779  0.0333 -0.1441  0.1893
27812SOL     OW84013   9.693   1.562   1.578  0.2919  0.4392  0.3177
27812SOL    HW184014   9.657   1.649   1.564  0.2223  0.5249  0.9675
27812SOL    HW284015   9.784   1.578   1.604  0.3723  0.3046  0.1167
27813SOL     OW84016   3.213   6.684   7.950  0.6352 -0.2873 -0.7086
27813SOL    HW184017   3.212   6.596   7.913  0.0508 -0.6859  0.2166
27813SOL    HW284018   3.151   6.733   7.896 -0.1206 -0.8318 -0.3552
27814SOL     OW84019   8.357   4.794   8.686 -0.2141 -0.0093  0.2671
27814SOL    HW184020   8.300   4.730   8.727  1.0794 -1.0128  0.5693
27814SOL    HW284021   8.307   4.827   8.611 -1.6444  0.0632  1.2135
27815SOL     OW84022   2.948   0.134   1.027  0.1520 -0.3104 -0.1782
27815SOL    HW184023   3.022   0.167   0.975  0.2594 -0.7361 -0.3015
27815SOL    HW284024   2.918   0.210   1.077 -0.6860  0.4134 -1.7184
27816SOL     OW84025   0.341   7.207   6.534 -0.0642 -0.0843  0.1523
27816SOL    HW184026   0.362   7.161   6.615  1.6105 -0.4630 -0.4727
27816SOL    HW284027   0.255   7.172   6.510  0.1756 -1.2462  0.8612
27817SOL     OW84028   4.787   6.162   0.759  0.1424  0.1549  0.3137
27817SOL    HW184029   4.826   6.108   0.690 -0.7665 -0.2963  0.1353
27817SOL    HW284030   4.859   6.180   0.819  1.2010  1.3936 -1.2383
27818SOL     OW84031   8.956   7.738   0.501  0.5307  0.1482 -0.8868
27818SOL    HW184032   9.043   7.705   0.478  1.2281  0.7633  0.7912
27818SOL    HW284033   8.937   7.805   0.434  0.8845 -0.6772 -1.8423
27819SOL     OW84034   0.480   4.688   6.283  0.5805  0.1743 -0.0484
27819SOL    HW184035   0.524   4.770   6.302  0.6743  0.2311 -0.4983
27819SOL    HW284036   0.407   4.712   6.227  0.5861 -0.0411 -0.1509
27820SOL     OW84037   5.528   4.684   4.812 -0.4758  0.1125  0.1106
27820SOL    HW184038   5.522   4.767   4.859 -1.9254  0.1661 -0.1337
27820SOL    HW284039   5.553   4.620   4.880  0.6840  0.7241  0.2906
27821SOL     OW84040   7.568   1.832   6.582 -0.0049  0.0017 -0.0178
27821SOL    HW184041   7.603   1.904   6.529  1.0761 -0.0491  0.5998
27821SOL    HW284042   7.510   1.785   6.522  1.1305 -0.0247 -1.1522
27822SOL     OW84043   5.900   5.503   6.185  0.3879 -0.3337 -0.0836
27822SOL    HW184044   5.849   5.447   6.244  1.5226 -1.4747 -0.1356
27822SOL    HW284045   5.931   5.444   6.117  1.3256  0.4377 -0.3496
27823SOL     OW84046   4.695   4.431   7.214 -0.3161  0.2470 -0.0469
27823SOL    HW184047   4.730   4.467   7.296 -1.1392  0.6171  0.1477
27823SOL    HW284048   4.667   4.507   7.164 -1.4402 -0.0658  0.0810
27824SOL     OW84049   8.291   3.709   2.797  0.0686 -0.0745 -0.0740
27824SOL    HW184050   8.321   3.714   2.706  1.6801  0.9008  0.4646
27824SOL    HW284051   8.356   3.655   2.841 -1.0132 -1.0155  0.4062
27825SOL     OW84052   2.359   7.075   6.605  0.0873 -0.4181 -0.0862
27825SOL    HW184053   2.324   7.110   6.687  0.5499 -0.9675  0.3564
27825SOL    HW284054   2.336   7.140   6.539  0.1170  0.2519  0.5559
27826SOL     OW84055   7.631   5.540   5.340 -0.4933  0.2000  0.0848
27826SOL    HW184056   7.564   5.553   5.273 -1.0322 -0.2812  0.5106
27826SOL    HW284057   7.688   5.616   5.333 -1.1970  0.7107 -0.1730
27827SOL     OW84058   8.225   9.848   9.750  0.1023  0.3326  0.0468
27827SOL    HW184059   8.281   9.896   9.689 -0.8889  0.5913 -0.6922
27827SOL    HW284060   8.148   9.824   9.698  1.3721 -3.9096 -0.2225
27828SOL     OW84061   4.820   1.222   0.557 -0.4247  0.4693 -0.0651
27828SOL    HW184062   4.732   1.242   0.524 -0.1723  0.5340 -0.7066
27828SOL    HW284063   4.828   1.276   0.637 -0.3059  1.8430 -0.9630
27829SOL     OW84064   4.339   9.207   6.884 -0.2425 -0.2618  0.7996
27829SOL    HW184065   4.364   9.246   6.800  1.4651 -1.3807  0.7341
27829SOL    HW284066   4.318   9.283   6.939  2.4122  0.8231  0.5051
27830SOL     OW84067   6.483   4.730   4.372 -0.0493 -0.3398 -0.3520
27830SOL    HW184068   6.515   4.820   4.367 -2.5981  0.6275 -0.8821
27830SOL    HW284069   6.524   4.694   4.451  4.2480 -0.1880 -2.2633
27831SOL     OW84070   3.927   7.948   5.381 -0.4111 -0.3653 -0.1667
27831SOL    HW184071   3.887   7.918   5.462 -2.3597  0.4994 -0.7613
27831SOL    HW284072   3.982   8.022   5.407  0.3923 -1.1853  0.5680
27832SOL     OW84073   9.952   6.506   0.394  0.3356  0.6063  0.3255
27832SOL    HW184074  10.027   6.563   0.378 -0.2206  2.0218  2.4148
27832SOL    HW284075   9.879   6.548   0.350  0.0477  1.2257  1.3646
27833SOL     OW84076   1.283   3.728   6.041 -0.3129 -0.0635 -0.6318
27833SOL    HW184077   1.243   3.647   6.010  1.9006 -1.1495 -0.8794
27833SOL    HW284078   1.288   3.784   5.964 -1.7871  0.2936 -0.4790
27834SOL     OW84079   4.252   6.477   7.558  0.3584  0.9936  0.0457
27834SOL    HW184080   4.261   6.555   7.504  1.2405  0.6557 -0.3134
27834SOL    HW284081   4.167   6.440   7.533  1.1775  0.2796 -1.8830
27835SOL     OW84082   6.675   8.839   1.493 -0.1179 -0.0795  0.1254
27835SOL    HW184083   6.691   8.771   1.428  0.9896  0.4113 -0.1312
27835SOL    HW284084   6.633   8.909   1.443 -1.6265 -0.7053  0.4675
27836SOL     OW84085   1.512   1.127   0.220 -0.3202 -0.5493 -0.2226
27836SOL    HW184086   1.600   1.153   0.192  0.6464 -1.4230  1.8171
27836SOL    HW284087   1.477   1.079   0.145 -0.1165  1.9142 -2.0452
27837SOL     OW84088   6.171   0.746   2.448  0.0174  0.5359  0.0214
27837SOL    HW184089   6.155   0.716   2.538  2.3019  0.2508  0.3966
27837SOL    HW284090   6.151   0.671   2.394  1.1273 -0.1737  0.5546
27838SOL     OW84091   1.298   6.486   5.771  0.3498  0.2404  0.3741
27838SOL    HW184092   1.327   6.407   5.727 -3.0748 -0.6703 -0.5694
27838SOL    HW284093   1.240   6.455   5.841  2.6015  1.8308  3.1479
27839SOL     OW84094   2.958   4.886   8.960  0.9729  0.0885  0.3077
27839SOL    HW184095   3.012   4.850   8.889  0.8596  0.0610  0.2348
27839SOL    HW284096   3.015   4.884   9.037  0.5261 -1.5893  0.6466
27840SOL     OW84097   4.339   5.011   1.778  0.1715 -0.2846  0.2296
27840SOL    HW184098   4.357   4.928   1.822  1.3111 -0.5670 -0.7513
27840SOL    HW284099   4.279   5.056   1.838 -1.3917 -2.2566  0.2772
27841SOL     OW84100   7.580   7.025   5.383  0.1188 -0.4377  0.1698
27841SOL    HW184101   7.559   7.074   5.462  0.4046 -0.6667  0.3913
27841SOL    HW284102   7.586   7.091   5.314  1.3344 -0.0565  0.6290
27842SOL     OW84103   8.137   4.643   7.719 -0.0501 -0.1165  0.1436
27842SOL    HW184104   8.107   4.690   7.640  2.1607 -0.7080 -1.1249
27842SOL    HW284105   8.073   4.572   7.730  0.6632 -1.2527 -2.3693
27843SOL     OW84106   9.905   5.357   0.350 -0.0537  0.2863  0.1178
27843SOL    HW184107   9.949   5.399   0.275  0.1358 -0.2349 -0.0705
27843SOL    HW284108   9.841   5.298   0.310 -0.5898  0.6763  0.3874
27844SOL     OW84109   0.528   5.885   0.781 -0.4568 -0.1316  0.0628
27844SOL    HW184110   0.498   5.795   0.769 -2.9872  0.7336 -0.9075
27844SOL    HW284111   0.450   5.932   0.810  1.1479  1.5147  1.9537
27845SOL     OW84112   8.864   9.197   1.824  0.4205 -0.2032  0.4707
27845SOL    HW184113   8.821   9.265   1.876  1.1839  0.2685  0.4960
27845SOL    HW284114   8.824   9.116   1.855  1.4371 -0.0279  2.4332
27846SOL     OW84115   8.606   2.427   9.350 -0.1063 -0.4046 -0.0441
27846SOL    HW184116   8.663   2.364   9.306 -1.1992 -0.7553 -1.0356
27846SOL    HW284117   8.542   2.374   9.397 -0.7264 -0.0527 -0.4650
27847SOL     OW84118   6.505   2.937   2.857  0.0600  0.3036  0.1883
27847SOL    HW184119   6.585   2.885   2.843 -0.8579 -1.3283  0.7204
27847SOL    HW284120   6.536   3.018   2.898  1.3997 -0.5020  0.8533
27848SOL     OW84121   4.528   8.187   1.005  0.3485 -0.1384  0.7008
27848SOL    HW184122   4.485   8.217   0.924  0.9112  0.5736  0.6493
27848SOL    HW284123   4.460   8.194   1.072  0.2695  0.6169  0.5521
27849SOL     OW84124   7.839   7.154   7.634 -0.3474  0.5594 -0.4207
27849SOL    HW184125   7.904   7.161   7.564 -1.0443  0.8442 -1.0446
27849SOL    HW284126   7.783   7.231   7.622 -0.0030  1.0590  0.9366
27850SOL     OW84127   8.578   5.306   1.359  0.1171  0.6542  0.8079
27850SOL    HW184128   8.575   5.325   1.452 -0.5572  1.5356  0.6200
27850SOL    HW284129   8.489   5.325   1.328 -0.0024 -0.7585  0.1937
27851SOL     OW84130   2.273   0.507   5.316 -0.0376 -0.3324  0.5249
27851SOL    HW184131   2.332   0.449   5.269 -0.5767 -1.2363  0.9441
27851SOL    HW284132   2.286   0.593   5.275  0.9513 -0.6905  0.0752
27852SOL     OW84133   1.409   8.339   3.414 -0.0666  0.6079 -0.0986
27852SOL    HW184134   1.473   8.316   3.482  1.6051  1.9094 -1.1405
27852SOL    HW284135   1.463   8.367   3.339 -1.8614  1.7537 -1.0262
27853SOL     OW84136   4.932   4.870   2.928  0.1616 -0.6015  0.1318
27853SOL    HW184137   4.930   4.916   3.012 -1.1568  0.5882 -0.5020
27853SOL    HW284138   4.951   4.779   2.951  1.5891  0.0148  1.5454
27854SOL     OW84139   6.512   5.925   6.041  0.6434  0.2915  0.1493
27854SOL    HW184140   6.515   5.904   6.134 -0.3295 -0.4729  0.0237
27854SOL    HW284141   6.545   5.847   5.997 -1.9332 -0.6940 -0.2656
27855SOL     OW84142   6.926   6.775   8.871 -0.5324  0.1951  0.2795
27855SOL    HW184143   6.937   6.754   8.778  0.5733  1.3840  0.1132
27855SOL    HW284144   7.003   6.738   8.913 -1.1080 -0.4780  0.7758
27856SOL     OW84145   6.964   7.128   8.983 -0.0713 -0.0017 -0.2446
27856SOL    HW184146   6.952   7.037   9.011  1.9674 -0.5368 -0.8558
27856SOL    HW284147   6.929   7.131   8.895 -1.3601  0.1823  0.2600
27857SOL     OW84148   6.571   2.906   5.480 -0.0014 -0.0937  0.2837
27857SOL    HW184149   6.543   2.989   5.441  0.2681 -0.7221 -1.3094
27857SOL    HW284150   6.494   2.873   5.525 -0.8020 -0.1002 -1.0534
27858SOL     OW84151   4.542   3.483   0.114 -0.4538  0.4507  0.0110
27858SOL    HW184152   4.501   3.487   0.029 -1.3194 -2.3657  0.1800
27858SOL    HW284153   4.628   3.444   0.097  0.4819  2.3483  0.1651
27859SOL     OW84154   9.061   9.441   1.775 -0.0073  0.4273  0.4596
27859SOL    HW184155   9.099   9.418   1.690 -0.9358 -0.0506  0.1572
27859SOL    HW284156   9.010   9.520   1.758  0.6552  0.9437  0.8172
27860SOL     OW84157   1.779   6.243   6.983 -0.6987  0.8164  0.2431
27860SOL    HW184158   1.839   6.306   6.944  0.0347 -0.8752 -1.5400
27860SOL    HW284159   1.695   6.260   6.940 -0.8433  1.4144  0.7477
27861SOL     OW84160   8.204   6.408   9.210 -0.1691 -0.1662  0.3837
27861SOL    HW184161   8.271   6.354   9.252  0.6819  0.5082 -0.0974
27861SOL    HW284162   8.157   6.448   9.283  1.0694  0.7109  0.7329
27862SOL     OW84163   1.744   3.134   2.779  0.1876  0.5891 -0.1564
27862SOL    HW184164   1.822   3.184   2.805  0.8320 -0.5525  0.2184
27862SOL    HW284165   1.748   3.055   2.834 -2.4624  1.4750  1.5160
27863SOL     OW84166   0.906   0.281   0.201 -0.1973 -0.0995 -0.3223
27863SOL    HW184167   0.825   0.312   0.161 -1.3371 -1.8358  0.5052
27863SOL    HW284168   0.901   0.186   0.195  2.3050 -0.2531 -1.1685
27864SOL     OW84169   8.275   7.623   1.464  0.0117 -0.4859  0.3960
27864SOL    HW184170   8.352   7.577   1.430 -0.2147 -0.8270  0.3418
27864SOL    HW284171   8.233   7.661   1.387  0.2234 -0.1418  0.4453
27865SOL     OW84172   5.736   8.216   3.961  0.2754 -0.3895  0.5763
27865SOL    HW184173   5.697   8.135   3.994 -2.5617  0.4212 -0.4624
27865SOL    HW284174   5.692   8.232   3.877  1.0849  1.9696  0.5019
27866SOL     OW84175   2.241   3.042   4.793 -0.2495  0.1949 -0.3024
27866SOL    HW184176   2.179   3.044   4.721  0.3648  1.6415 -0.8301
27866SOL    HW284177   2.213   3.112   4.852  0.4386  0.3655 -0.1677
27867SOL     OW84178   7.456   7.664   0.291  0.2130  0.2136 -0.0954
27867SOL    HW184179   7.475   7.725   0.220  0.1478  0.6114  0.2228
27867SOL    HW284180   7.484   7.579   0.258 -1.7472  0.0294 -1.4123
27868SOL     OW84181   9.183   2.423   0.796  0.2342 -0.8149  0.1772
27868SOL    HW184182   9.217   2.513   0.793  1.0579 -1.1144  0.4409
27868SOL    HW284183   9.144   2.409   0.710 -2.6269  0.8295  1.0540
27869SOL     OW84184   4.852   4.348   2.480  0.1278  0.3066  0.0542
27869SOL    HW184185   4.921   4.294   2.520  1.0730  0.7174 -0.9919
27869SOL    HW284186   4.843   4.422   2.540  0.1742 -0.0435  0.5031
27870SOL     OW84187   5.789   4.178   3.773  0.2915 -0.3349  0.2517
27870SOL    HW184188   5.856   4.178   3.706  0.4167  3.1722  0.2213
27870SOL    HW284189   5.707   4.193   3.726 -0.2375 -2.0379  0.5466
27871SOL     OW84190   8.783   6.403   2.730  0.1363  0.8936 -0.0250
27871SOL    HW184191   8.782   6.497   2.748 -0.2164  1.0785 -0.9327
27871SOL    HW284192   8.705   6.389   2.677  1.3494  0.4872 -1.7770
27872SOL     OW84193   0.098   7.114   6.996  0.2500  0.4951  0.1797
27872SOL    HW184194   0.064   7.119   6.907 -0.5273  2.0238  0.5315
27872SOL    HW284195   0.172   7.054   6.990 -1.3409 -1.5055 -0.9852
27873SOL     OW84196   9.385   6.992   0.567  0.1965  0.2539  0.1378
27873SOL    HW184197   9.357   6.969   0.655 -0.6545  0.2178 -0.1379
27873SOL    HW284198   9.476   6.963   0.563  0.5635  1.1235  1.3173
27874SOL     OW84199   2.337   3.600   1.694  0.2830 -0.0309  0.3950
27874SOL    HW184200   2.293   3.584   1.778  1.7881 -2.3459  0.8310
27874SOL    HW284201   2.396   3.673   1.712 -0.4834  0.4734  0.9196
27875SOL     OW84202   1.221   2.838   3.546 -0.1637 -0.0440 -0.3840
27875SOL    HW184203   1.276   2.876   3.615  2.1467  0.1837 -2.2482
27875SOL    HW284204   1.192   2.913   3.494 -1.6628 -0.2390  0.1330
27876SOL     OW84205   5.107   2.745   2.284  0.5535 -0.1960 -0.4098
27876SOL    HW184206   5.094   2.787   2.199  0.9984 -2.9556 -1.9657
27876SOL    HW284207   5.199   2.762   2.306  0.1982  1.3169  0.0570
27877SOL     OW84208   2.741   9.026   1.639 -0.3895  0.2123  0.1540
27877SOL    HW184209   2.760   9.119   1.623  0.0211  0.6323  2.7427
27877SOL    HW284210   2.803   9.000   1.706  0.5065 -2.4099 -1.5383
27878SOL     OW84211   7.823   5.707   4.458  0.0416 -0.3888  0.7046
27878SOL    HW184212   7.847   5.712   4.550  0.7556 -3.5107  0.8168
27878SOL    HW284213   7.737   5.664   4.458 -0.1096 -0.1115 -0.0828
27879SOL     OW84214   0.291   6.715   6.561  0.0947 -0.1028 -0.1591
27879SOL    HW184215   0.197   6.729   6.564  0.2785  1.0230  1.7850
27879SOL    HW284216   0.302   6.622   6.582 -0.5600 -0.1214  0.1198
27880SOL     OW84217   3.504   3.299   9.907 -0.0798  0.2164 -0.7629
27880SOL    HW184218   3.515   3.384   9.949  2.9099 -0.0138 -0.8489
27880SOL    HW284219   3.587   3.284   9.862 -0.3586 -2.8829 -0.4756
27881SOL     OW84220   9.329   7.834   0.607  0.3830 -0.0674  0.1060
27881SOL    HW184221   9.335   7.901   0.539 -0.5103 -0.5375 -0.4591
27881SOL    HW284222   9.269   7.872   0.672 -0.1893 -0.3406 -0.2549
27882SOL     OW84223   8.564   9.519   3.727  1.0122 -0.6841 -0.4068
27882SOL    HW184224   8.541   9.462   3.800  0.1886 -0.8032 -0.7517
27882SOL    HW284225   8.570   9.460   3.652  2.8621 -0.7293 -0.2798
27883SOL     OW84226   7.533   8.919   3.757 -0.3389 -0.2446  0.0537
27883SOL    HW184227   7.600   8.859   3.724 -0.4746  0.6909 -2.1087
27883SOL    HW284228   7.508   8.883   3.842  2.2619 -1.1133  0.5532
27884SOL     OW84229   8.743   0.955   9.747  0.1884 -0.5799 -1.0556
27884SOL    HW184230   8.748   0.901   9.668 -1.6062 -1.0870 -0.8542
27884SOL    HW284231   8.674   0.915   9.799  1.1726 -0.1024  0.6881
27885SOL     OW84232   4.308   5.531   1.715  0.3265  0.2484  0.4351
27885SOL    HW184233   4.389   5.486   1.692 -0.6820 -0.3687 -2.3169
27885SOL    HW284234   4.332   5.624   1.718  1.0729  0.1153 -0.7516
27886SOL     OW84235   0.164   5.359   7.204 -0.2558 -0.1353  0.4904
27886SOL    HW184236   0.079   5.358   7.160 -0.0694  0.2270  0.1188
27886SOL    HW284237   0.212   5.287   7.165  0.4569  1.0963 -1.0114
27887SOL     OW84238   8.547   8.110   8.390  0.0988  0.2720  0.1529
27887SOL    HW184239   8.566   8.025   8.351 -4.3755  0.2667 -2.6653
27887SOL    HW284240   8.547   8.094   8.484  1.2670 -2.3243 -0.2222
27888SOL     OW84241   9.413   5.728   2.377 -0.0525 -0.2127 -0.2774
27888SOL    HW184242   9.320   5.716   2.356  0.0535  0.5523 -1.2493
27888SOL    HW284243   9.414   5.750   2.470 -0.8126 -0.5312 -0.1817
27889SOL     OW84244   5.399   2.846   0.070  0.3761 -0.7378  0.3978
27889SOL    HW184245   5.493   2.834   0.065  0.1713 -2.0209 -0.8556
27889SOL    HW284246   5.388   2.941   0.079  1.7598 -0.5203  0.0545
27890SOL     OW84247   9.656   1.984   4.124  0.0868 -0.0648 -0.3509
27890SOL    HW184248   9.675   1.890   4.127  0.5278  0.0301  2.2001
27890SOL    HW284249   9.735   2.023   4.086  0.8884 -0.5594  0.7606
27891SOL     OW84250   3.492   9.628   3.445 -0.1519 -0.1267  0.2867
27891SOL    HW184251   3.491   9.642   3.540  0.7384 -0.1046  0.2998
27891SOL    HW284252   3.558   9.560   3.431 -0.5349 -0.3916 -0.2878
27892SOL     OW84253   7.932   7.984   7.827 -0.1096 -0.4964  0.2391
27892SOL    HW184254   7.968   7.925   7.893 -0.6658  0.0544  1.0590
27892SOL    HW284255   7.861   7.935   7.787 -1.0660 -0.1443  1.4410
27893SOL     OW84256   8.944   8.083   1.641 -0.0436  0.4320  0.2242
27893SOL    HW184257   9.035   8.053   1.645 -0.3499 -0.9697 -1.7592
27893SOL    HW284258   8.944   8.167   1.686  2.0500  0.0389  1.0426
27894SOL     OW84259   3.028   0.885   0.951 -0.2281  0.0643  0.1336
27894SOL    HW184260   3.040   0.976   0.923  0.5235  0.4946  1.7230
27894SOL    HW284261   2.951   0.886   1.008 -1.6652 -0.7753 -1.6750
27895SOL     OW84262   2.504   7.997   8.996 -0.0191  0.5048  0.1410
27895SOL    HW184263   2.491   7.980   8.903  0.0807  0.6423  0.1024
27895SOL    HW284264   2.417   7.987   9.035 -0.0444  0.3588  0.0470
27896SOL     OW84265   5.791   2.684   3.144 -0.3666 -0.3768 -0.3014
27896SOL    HW184266   5.716   2.686   3.204  0.1023 -1.1884  0.3326
27896SOL    HW284267   5.822   2.593   3.148 -0.7627 -0.6590 -2.3195
27897SOL     OW84268   9.545   0.738   4.710 -0.2131 -0.1479 -0.1589
27897SOL    HW184269   9.566   0.658   4.757 -1.0977 -0.4788 -0.3151
27897SOL    HW284270   9.630   0.775   4.686  0.1966 -1.1747 -0.3260
27898SOL     OW84271   7.643   2.397   6.666  0.0402 -0.2729  0.4129
27898SOL    HW184272   7.737   2.415   6.664  0.2781 -1.1282  2.1902
27898SOL    HW284273   7.604   2.472   6.622  1.5333  0.2237 -0.1355
27899SOL     OW84274   9.271   6.605   8.224  0.7299 -0.1258 -0.4348
27899SOL    HW184275   9.248   6.648   8.307  0.3554 -0.0329 -0.5857
27899SOL    HW284276   9.188   6.599   8.177  1.1107  0.8021 -1.2627
27900SOL     OW84277   9.867   0.715   9.859 -0.5094  0.2045 -0.2064
27900SOL    HW184278   9.904   0.645   9.806  1.0363  0.7163  0.1448
27900SOL    HW284279   9.900   0.698   9.947 -1.3546  0.5294  0.1803
27901SOL     OW84280   0.551   6.126   9.041 -0.2291  0.9354  0.3068
27901SOL    HW184281   0.527   6.189   9.109 -0.5775  1.0018  0.1277
27901SOL    HW284282   0.505   6.045   9.067  0.6678  0.5880  0.8409
27902SOL     OW84283   1.869   8.829   2.068  0.4350 -0.4351 -0.1212
27902SOL    HW184284   1.815   8.900   2.103  1.9125 -0.0749  1.5626
27902SOL    HW284285   1.900   8.861   1.983 -0.7299 -0.0276 -0.4109
27903SOL     OW84286   0.304   6.319   2.578  0.1615  0.4947  0.1680
27903SOL    HW184287   0.301   6.406   2.539 -1.3918 -0.4224 -1.8902
27903SOL    HW284288   0.213   6.298   2.599  0.5786 -0.4279  1.1546
27904SOL     OW84289   9.315   2.626   4.781  0.4769  0.3344 -0.1863
27904SOL    HW184290   9.407   2.605   4.801  0.6426 -0.5383 -1.7353
27904SOL    HW284291   9.316   2.649   4.688 -0.8122  0.8087 -0.0952
27905SOL     OW84292   8.285   1.770   8.003  0.2967 -0.5311  0.4110
27905SOL    HW184293   8.248   1.780   7.915 -0.4267 -0.9194  0.6587
27905SOL    HW284294   8.328   1.854   8.021 -0.0047 -0.2604 -0.0988
27906SOL     OW84295   7.162   5.553   0.398  0.4464 -0.0257  0.3842
27906SOL    HW184296   7.191   5.502   0.322 -0.5146 -0.6146  0.3985
27906SOL    HW284297   7.159   5.489   0.469  2.4240  0.7422  1.2182
27907SOL     OW84298   8.305   5.727   5.557  0.0972 -0.4770 -0.2941
27907SOL    HW184299   8.333   5.818   5.563  0.2169 -0.5849  1.3845
27907SOL    HW284300   8.384   5.678   5.533  0.6686 -0.3995  1.2792
27908SOL     OW84301   7.724   8.667   5.733 -0.3890 -0.0761  0.3180
27908SOL    HW184302   7.688   8.719   5.661  0.3590 -0.1622 -0.1210
27908SOL    HW284303   7.706   8.720   5.811 -2.5719 -0.6747  0.2857
27909SOL     OW84304   6.777   0.525   1.948 -1.1517 -0.1459  0.1828
27909SOL    HW184305   6.799   0.501   1.859  0.7899 -0.0707  0.6049
27909SOL    HW284306   6.729   0.449   1.982 -0.4873 -0.8443 -0.4125
27910SOL     OW84307   4.599   9.158   2.994  0.2360 -0.0085  0.0259
27910SOL    HW184308   4.616   9.252   2.986  0.0979 -0.0791 -1.2041
27910SOL    HW284309   4.555   9.134   2.913  1.0690 -1.3043 -0.0762
27911SOL     OW84310   4.668   0.181   3.697  0.2630  0.2128 -0.4535
27911SOL    HW184311   4.742   0.210   3.643 -1.1743  0.3900 -2.4177
27911SOL    HW284312   4.636   0.102   3.653 -0.7669  0.1728  0.3404
27912SOL     OW84313   5.633   2.725   6.087  0.2264  0.2260 -0.1511
27912SOL    HW184314   5.586   2.806   6.067  1.0109  0.4161 -1.3456
27912SOL    HW284315   5.572   2.655   6.067 -0.6354  0.5051  1.3658
27913SOL     OW84316   2.370   5.954   6.995 -0.0232  0.4428  0.5684
27913SOL    HW184317   2.329   5.872   7.024  0.4680  0.4820  1.4065
27913SOL    HW284318   2.463   5.941   7.013  0.3316  0.4591 -1.0589
27914SOL     OW84319   1.151   3.183   1.153 -0.0332  0.0724  0.5348
27914SOL    HW184320   1.213   3.150   1.218 -0.8595  0.6278  1.6163
27914SOL    HW284321   1.127   3.270   1.184  2.0260  1.8187 -2.1904
27915SOL     OW84322   7.927   8.780   3.991 -0.4783  0.0964 -0.2970
27915SOL    HW184323   7.980   8.848   4.032 -0.3933  0.7018 -1.3855
27915SOL    HW284324   7.989   8.711   3.969 -0.6678 -0.6875  1.4557
27916SOL     OW84325   2.220   2.385   0.552  0.0393 -0.4066 -0.2028
27916SOL    HW184326   2.212   2.342   0.637 -0.1372 -0.4454 -0.2400
27916SOL    HW284327   2.303   2.434   0.558  0.9017 -1.7571 -0.6040
27917SOL     OW84328   6.434   3.085   7.532 -0.0593 -0.2891  0.1660
27917SOL    HW184329   6.404   3.000   7.500 -0.5179 -0.2256  0.4110
27917SOL    HW284330   6.472   3.128   7.456 -0.1314 -0.5825 -0.0367
27918SOL     OW84331   1.227   9.625   4.246  0.0794  0.3437 -0.2347
27918SOL    HW184332   1.286   9.595   4.177 -1.4272  0.2512 -1.5561
27918SOL    HW284333   1.282   9.675   4.306  1.5783 -0.2502 -1.0774
27919SOL     OW84334   5.216   3.223   3.869 -0.2875 -0.3668  0.3804
27919SOL    HW184335   5.250   3.178   3.946  0.9056  0.1984  0.2056
27919SOL    HW284336   5.151   3.284   3.903  1.7245  1.4259  1.2477
27920SOL     OW84337   7.330   3.715   2.338  0.9204 -0.2369 -0.2416
27920SOL    HW184338   7.304   3.676   2.254  0.2800  1.4230 -0.8515
27920SOL    HW284339   7.357   3.640   2.391 -2.6342 -1.9099 -0.4602
27921SOL     OW84340   8.434   0.466   2.325  0.3473 -0.6846  0.4832
27921SOL    HW184341   8.525   0.437   2.329  0.7235  0.2706 -0.7612
27921SOL    HW284342   8.436   0.547   2.275 -1.5030 -1.9579 -1.8589
27922SOL     OW84343   8.988   5.616   4.782 -0.0012 -0.1751 -0.2524
27922SOL    HW184344   9.051   5.687   4.775 -0.4710  0.1826 -0.8954
27922SOL    HW284345   8.958   5.620   4.873 -0.3038  0.7019 -0.3794
27923SOL     OW84346   6.124   0.806   8.580  0.1566  0.1154 -0.0953
27923SOL    HW184347   6.146   0.888   8.536 -0.6594  0.1717 -0.4013
27923SOL    HW284348   6.054   0.768   8.528  0.0430 -0.4403  0.4454
27924SOL     OW84349   0.579   5.869   8.753 -0.5752 -0.0162  0.0635
27924SOL    HW184350   0.574   5.918   8.671  0.3565 -1.9760 -1.2448
27924SOL    HW284351   0.492   5.831   8.764  0.2785 -3.0891 -2.3310
27925SOL     OW84352   4.137   5.142   4.437  0.0573  0.4168  0.2008
27925SOL    HW184353   4.199   5.162   4.367 -1.3727  1.1969 -0.9051
27925SOL    HW284354   4.180   5.174   4.517  1.2322  0.5645 -0.4636
27926SOL     OW84355   6.333   8.827   1.271 -0.0533  0.3865  0.2549
27926SOL    HW184356   6.396   8.820   1.342 -0.8361 -1.8122  0.8115
27926SOL    HW284357   6.283   8.745   1.275 -1.3963  1.0458 -1.6188
27927SOL     OW84358   8.623   7.943   2.738  0.2665 -0.3728  0.0504
27927SOL    HW184359   8.574   7.905   2.665 -0.1440  2.9662 -1.6392
27927SOL    HW284360   8.714   7.917   2.722  0.1344  0.0101 -1.5188
27928SOL     OW84361   8.030   4.529   4.553  0.6093  0.3278  0.6094
27928SOL    HW184362   7.941   4.524   4.519  0.9442 -0.5364 -0.1640
27928SOL    HW284363   8.065   4.610   4.516  0.5499  0.0335 -0.1120
27929SOL     OW84364   7.284   4.904   1.783 -0.2686 -0.1602 -0.7103
27929SOL    HW184365   7.360   4.954   1.755 -0.2531 -0.3738 -1.0619
27929SOL    HW284366   7.212   4.967   1.784  0.2698  0.5121  1.5044
27930SOL     OW84367   0.656   9.440   4.766  0.0543  0.1585 -0.1768
27930SOL    HW184368   0.643   9.524   4.721  2.0154  1.5569  1.6341
27930SOL    HW284369   0.741   9.409   4.734 -0.9368 -1.5172 -1.3002
27931SOL     OW84370   9.666   6.587   3.102  0.1302 -0.1570  0.8536
27931SOL    HW184371   9.604   6.658   3.119  1.4059  1.6043 -1.2202
27931SOL    HW284372   9.733   6.596   3.170 -0.7880 -0.7771  1.8728
27932SOL     OW84373   1.937   8.161   3.922 -0.6639  0.0269  0.1492
27932SOL    HW184374   1.994   8.111   3.864 -1.0739  0.7492 -0.9042
27932SOL    HW284375   1.991   8.236   3.948 -1.1979  0.8764 -1.0965
27933SOL     OW84376   3.035   1.563   9.684 -0.0547  0.4988  0.2540
27933SOL    HW184377   2.956   1.618   9.684  0.0484  0.6988 -1.3078
27933SOL    HW284378   3.053   1.548   9.592  0.9270 -0.7471  0.6258
27934SOL     OW84379   9.797   3.554   9.752 -0.0336  0.4075 -0.0322
27934SOL    HW184380   9.866   3.618   9.769  0.0786  0.3997 -0.4612
27934SOL    HW284381   9.835   3.493   9.689  0.5205 -1.1451  1.6891
27935SOL     OW84382   7.791   0.599   7.281  0.3143 -0.6755  0.1264
27935SOL    HW184383   7.709   0.645   7.262  0.2100 -0.7119  0.4882
27935SOL    HW284384   7.836   0.595   7.196  0.1630 -0.2238  0.0228
27936SOL     OW84385   5.682   7.938   1.345 -0.7494  0.0017  0.2467
27936SOL    HW184386   5.640   7.933   1.258  0.0782 -0.5327 -0.1297
27936SOL    HW284387   5.671   7.851   1.382  0.8399 -0.4299 -0.2483
27937SOL     OW84388   3.679   4.354   4.699 -0.2502 -0.7628  0.0982
27937SOL    HW184389   3.631   4.377   4.619 -1.1501  1.1035  1.1325
27937SOL    HW284390   3.756   4.411   4.698 -0.8168  0.0504  1.0649
27938SOL     OW84391   2.035   9.800   5.554 -0.0288  0.9422  0.3796
27938SOL    HW184392   2.014   9.823   5.463 -1.4388  0.9017  0.6617
27938SOL    HW284393   1.952   9.810   5.600  0.6722  0.9704  1.6757
27939SOL     OW84394   8.191   6.754   1.804  0.0124 -0.0244  0.1647
27939SOL    HW184395   8.213   6.749   1.897  0.2878  0.5658  0.1326
27939SOL    HW284396   8.148   6.670   1.785 -2.3737  0.8092  1.4405
27940SOL     OW84397   6.574   9.405   8.742 -0.4813  0.2632 -0.0307
27940SOL    HW184398   6.521   9.440   8.814  1.7658  0.2218  1.7349
27940SOL    HW284399   6.646   9.466   8.733  0.1627 -0.6206 -1.1461
27941SOL     OW84400   4.648   0.087   7.642 -0.0295 -0.4977  0.0960
27941SOL    HW184401   4.728   0.131   7.672 -0.3065 -0.1574  0.3476
27941SOL    HW284402   4.599   0.071   7.722  0.2379 -1.6248  0.0501
27942SOL     OW84403   8.112   0.637   4.433 -0.0399 -1.0269  0.5430
27942SOL    HW184404   8.092   0.558   4.483 -0.2784 -1.5010 -0.2641
27942SOL    HW284405   8.036   0.648   4.375 -0.7160  0.6757  1.6895
27943SOL     OW84406   6.684   2.508   1.656  0.2619  0.3502 -0.1007
27943SOL    HW184407   6.610   2.448   1.664 -0.3964  1.0428 -0.8056
27943SOL    HW284408   6.759   2.452   1.640 -0.2408 -0.3136 -0.1585
27944SOL     OW84409   6.263   0.657   3.258  0.0543 -0.1173  0.2022
27944SOL    HW184410   6.215   0.668   3.340  0.2632  1.2712  0.1722
27944SOL    HW284411   6.332   0.724   3.262 -0.1759  0.2439 -1.2728
27945SOL     OW84412   0.365   7.621   1.035  0.1459  0.4106 -0.2978
27945SOL    HW184413   0.281   7.654   1.001  0.7554  1.8970 -0.4307
27945SOL    HW284414   0.379   7.540   0.987 -1.1233  0.2231 -0.4108
27946SOL     OW84415   2.097   0.122   4.464 -0.2135 -0.3541  0.2999
27946SOL    HW184416   2.057   0.048   4.510  0.2641 -1.1749 -0.5773
27946SOL    HW284417   2.170   0.149   4.520 -0.7579 -0.1389  0.9206
27947SOL     OW84418   2.103   8.834   4.611  1.0826  0.1155 -0.4372
27947SOL    HW184419   2.075   8.753   4.569 -0.9549  0.8293 -0.5736
27947SOL    HW284420   2.197   8.837   4.596  1.2551 -2.3095 -0.2446
27948SOL     OW84421   9.740   7.191   4.395 -0.3108  0.3115  0.3068
27948SOL    HW184422   9.664   7.220   4.446 -0.5398 -0.1329  0.2204
27948SOL    HW284423   9.715   7.105   4.361  0.0962  0.3178 -0.0138
27949SOL     OW84424   3.904   1.536   5.799  0.1879  0.2159  0.5180
27949SOL    HW184425   3.929   1.611   5.744  0.9043  0.1158  0.6935
27949SOL    HW284426   3.808   1.539   5.802  0.2035  2.6107  2.5399
27950SOL     OW84427   1.618   8.233   5.501  0.2065  0.0229  0.2936
27950SOL    HW184428   1.528   8.264   5.505 -0.3457 -0.7879 -3.1228
27950SOL    HW284429   1.665   8.300   5.452  0.9536 -0.5619  0.1830
27951SOL     OW84430   8.111   1.111   1.018  0.6951 -0.0362  0.3402
27951SOL    HW184431   8.152   1.049   1.079  0.7262 -1.4172 -1.0098
27951SOL    HW284432   8.172   1.184   1.014  1.3611 -0.5352  0.9145
27952SOL     OW84433   3.012   8.378   6.275  0.2802 -0.6067 -0.3718
27952SOL    HW184434   2.966   8.460   6.295  0.7225 -0.4979  0.2205
27952SOL    HW284435   2.942   8.316   6.256 -0.0751 -0.1903 -0.4525
27953SOL     OW84436   3.608   6.833   9.113 -0.3914  0.1036 -0.2093
27953SOL    HW184437   3.555   6.894   9.164  1.2362  2.0525 -0.7353
27953SOL    HW284438   3.578   6.844   9.023  0.5988  0.9343 -0.4532
27954SOL     OW84439   1.540   6.024   0.419  0.4926  0.3900  0.2932
27954SOL    HW184440   1.551   6.030   0.514  0.7620  1.1980  0.2167
27954SOL    HW284441   1.630   6.021   0.385  0.3958  0.1661  0.0558
27955SOL     OW84442   9.041   6.057   7.667 -0.3406 -0.4603 -0.4326
27955SOL    HW184443   9.062   5.989   7.603 -1.6481  0.7856 -2.2969
27955SOL    HW284444   9.098   6.130   7.644  2.0645 -1.2477  2.4354
27956SOL     OW84445   1.918   3.124   8.858  0.2869 -0.3419 -0.2098
27956SOL    HW184446   1.865   3.085   8.789 -2.3640  0.8626  1.0017
27956SOL    HW284447   1.858   3.133   8.932  2.4312  0.4057  1.5467
27957SOL     OW84448   5.337   5.868   9.563  0.3740 -0.0825  0.0746
27957SOL    HW184449   5.314   5.776   9.554 -2.0590  0.4204  0.5381
27957SOL    HW284450   5.402   5.883   9.495 -0.5664 -1.7192 -1.2498
27958SOL     OW84451   6.934   7.624   6.897  0.3217  0.1856  0.3746
27958SOL    HW184452   6.916   7.532   6.915  0.2270  0.2747  0.7414
27958SOL    HW284453   6.876   7.672   6.956  2.3938  0.4787  2.3043
27959SOL     OW84454   1.746   6.983   3.119 -0.2951 -0.5398  0.4623
27959SOL    HW184455   1.753   6.891   3.148 -1.7323 -0.4842  1.0565
27959SOL    HW284456   1.653   7.003   3.125  0.0850  1.2261  1.1431
27960SOL     OW84457   9.463   7.325   7.320  0.0363 -0.1302 -0.1528
27960SOL    HW184458   9.396   7.313   7.386 -0.5014  1.6882 -0.3097
27960SOL    HW284459   9.466   7.242   7.272 -1.8655 -0.3563  0.0659
27961SOL     OW84460   2.174   1.607   4.808 -0.1111  0.6639  0.2602
27961SOL    HW184461   2.223   1.689   4.804 -2.7643  2.4588  1.6936
27961SOL    HW284462   2.216   1.551   4.742  2.0578  2.9877 -0.4924
27962SOL     OW84463   9.384   0.336   6.599 -0.1520  1.1870  0.2199
27962SOL    HW184464   9.431   0.300   6.674 -1.6093 -0.9571  0.1995
27962SOL    HW284465   9.298   0.360   6.634 -0.7172  0.5018 -0.6417
27963SOL     OW84466   0.508   2.878   4.313 -0.2840  0.0087 -0.3562
27963SOL    HW184467   0.461   2.823   4.250 -1.7796  0.8886 -0.0746
27963SOL    HW284468   0.486   2.840   4.399 -0.7063  0.5699 -0.2084
27964SOL     OW84469   6.621   1.675   6.773  0.1741 -0.0337 -0.1902
27964SOL    HW184470   6.532   1.708   6.785 -0.7013 -2.2486 -0.1052
27964SOL    HW284471   6.677   1.749   6.794 -1.6214  1.0571  1.0222
27965SOL     OW84472   4.887   7.968   4.388  0.4634 -0.2335  0.1203
27965SOL    HW184473   4.870   8.050   4.342  2.1851 -0.7366 -1.5241
27965SOL    HW284474   4.968   7.935   4.350  1.6325 -1.0914  3.0344
27966SOL     OW84475   8.756   7.226   0.954 -0.4069 -0.3654 -0.1267
27966SOL    HW184476   8.705   7.189   1.026 -2.0114 -1.4846 -1.7529
27966SOL    HW284477   8.792   7.150   0.909  0.6706  0.3231 -0.4613
27967SOL     OW84478   0.460   1.589   4.103  0.1875  0.3641  0.0942
27967SOL    HW184479   0.388   1.575   4.042 -0.6446  0.4625  1.0177
27967SOL    HW284480   0.499   1.502   4.116 -1.0009 -0.0557  1.0457
27968SOL     OW84481   9.823   1.044   8.624  0.1103  0.5852 -0.4117
27968SOL    HW184482   9.817   0.955   8.658 -2.4871 -0.1256 -2.4037
27968SOL    HW284483   9.792   1.100   8.696  0.1117 -0.2814  0.2750
27969SOL     OW84484   7.035   1.736   2.795 -0.5015 -0.4122 -0.6484
27969SOL    HW184485   6.948   1.770   2.774  0.1778  1.4047 -0.7522
27969SOL    HW284486   7.020   1.670   2.862 -1.9366  0.1282 -0.4004
27970SOL     OW84487   4.519   6.889   6.816 -0.2757 -0.4420 -0.6048
27970SOL    HW184488   4.426   6.869   6.811 -0.2437 -0.5375 -0.8625
27970SOL    HW284489   4.562   6.812   6.778 -0.1058 -0.2899 -0.7253
27971SOL     OW84490   6.385   3.419   2.681  0.6029 -0.3422 -0.2575
27971SOL    HW184491   6.375   3.363   2.605 -2.8618  0.5840 -0.6437
27971SOL    HW284492   6.349   3.504   2.654  0.4709  0.3994  2.0164
27972SOL     OW84493   6.803   5.319   6.626  0.6472 -1.0534 -0.3377
27972SOL    HW184494   6.728   5.265   6.651  1.4998 -1.4299  1.5640
27972SOL    HW284495   6.766   5.406   6.609 -0.1750 -1.1044  1.0440
27973SOL     OW84496   4.381   4.177   3.211  0.4479 -1.0267  0.3535
27973SOL    HW184497   4.341   4.188   3.125  1.6824 -0.5839 -0.1826
27973SOL    HW284498   4.349   4.092   3.241 -0.7185 -0.7820 -0.1236
27974SOL     OW84499   6.821   6.611   9.126 -0.9166 -0.2039  0.2495
27974SOL    HW184500   6.792   6.598   9.036  0.9299 -2.1968 -0.1557
27974SOL    HW284501   6.852   6.701   9.129  1.3054 -0.8092 -1.8979
27975SOL     OW84502   3.143   9.956   9.344  0.1195  0.2694  0.0362
27975SOL    HW184503   3.171   9.871   9.309  0.5322  0.3578  0.1360
27975SOL    HW284504   3.076   9.986   9.283 -0.0970 -0.1690  0.0498
27976SOL     OW84505   4.084   8.043   2.856  0.1418  0.0507 -0.2769
27976SOL    HW184506   4.064   8.019   2.765 -0.8163 -0.7955  0.1463
27976SOL    HW284507   4.140   7.972   2.888 -0.3523 -0.1725  0.1001
27977SOL     OW84508   7.884   7.034   5.693  0.3197  0.5892  0.5544
27977SOL    HW184509   7.920   7.072   5.613  0.6647  0.2340  0.5374
27977SOL    HW284510   7.955   7.040   5.757 -0.0828  1.2341  0.9571
27978SOL     OW84511   7.266   4.795   4.024  0.2703  0.1882 -0.5201
27978SOL    HW184512   7.234   4.705   4.029 -1.7872  0.8960  0.3114
27978SOL    HW284513   7.188   4.847   4.002  1.1353  1.9074  0.2889
27979SOL     OW84514   2.801   0.690   9.459  0.2333  0.3024 -0.4922
27979SOL    HW184515   2.843   0.636   9.526 -2.4281 -2.8918 -1.1240
27979SOL    HW284516   2.737   0.743   9.507 -1.5114 -1.8168 -0.3443
27980SOL     OW84517   3.191   2.875   5.134 -0.0415 -0.3673  0.1826
27980SOL    HW184518   3.243   2.938   5.083  0.1595  0.0358  0.8677
27980SOL    HW284519   3.252   2.841   5.199  0.2480 -2.3746 -1.0646
27981SOL     OW84520   5.173   8.201   1.363 -0.2910 -0.0193 -0.1589
27981SOL    HW184521   5.252   8.162   1.325 -0.3779 -0.7610  0.3909
27981SOL    HW284522   5.173   8.291   1.331  1.9383  0.6774  1.5199
27982SOL     OW84523   1.419   1.471   8.842 -0.3022  0.6082 -0.5196
27982SOL    HW184524   1.325   1.488   8.849 -0.5742 -0.4621 -1.3082
27982SOL    HW284525   1.426   1.400   8.779  0.8743 -0.9609  1.2654
27983SOL     OW84526   8.266   6.647   9.971  0.2404 -0.3587  0.1995
27983SOL    HW184527   8.177   6.643   9.936  1.3131  0.0640 -2.8357
27983SOL    HW284528   8.302   6.560   9.954  0.5008 -0.4509  1.1889
27984SOL     OW84529   0.366   5.391   6.844 -0.2495  0.3900  0.0638
27984SOL    HW184530   0.381   5.366   6.753  1.0996  1.6632 -0.0838
27984SOL    HW284531   0.436   5.349   6.893 -1.5838 -1.2026  0.7341
27985SOL     OW84532   4.013   8.864   4.072 -0.1537 -0.0355 -0.2324
27985SOL    HW184533   3.952   8.804   4.114 -0.2315 -0.5499 -1.0575
27985SOL    HW284534   3.958   8.920   4.017  0.0108  0.1656 -0.1938
27986SOL     OW84535   3.803   8.638   4.347 -0.0533  0.1489 -0.9552
27986SOL    HW184536   3.719   8.633   4.392  1.2013 -1.5720  1.4262
27986SOL    HW284537   3.857   8.693   4.404  1.4253 -1.6099 -0.5665
27987SOL     OW84538   2.817   2.052   5.964  0.1251 -0.4538 -0.1197
27987SOL    HW184539   2.864   1.968   5.967 -1.4723 -1.4018 -0.5810
27987SOL    HW284540   2.872   2.108   5.909 -0.3757 -2.2928 -2.7003
27988SOL     OW84541   4.617   1.000   0.829 -0.2925 -0.1911 -0.1743
27988SOL    HW184542   4.522   1.000   0.821 -0.2774 -0.5692 -0.3873
27988SOL    HW284543   4.636   1.063   0.898 -0.6876  0.0089 -0.2476
27989SOL     OW84544   2.198   2.819   6.583  0.0503  0.1829  0.5131
27989SOL    HW184545   2.241   2.761   6.520 -0.7678 -0.5137  0.5699
27989SOL    HW284546   2.249   2.810   6.663  0.6420  0.4769  0.1724
27990SOL     OW84547   6.068   1.118   6.549  0.2347  0.2969 -0.2156
27990SOL    HW184548   6.077   1.113   6.453  0.0918  0.6608 -0.2480
27990SOL    HW284549   5.989   1.169   6.563  1.0687  1.5463  0.1001
27991SOL     OW84550   9.404   3.098   2.622 -0.5340  0.8342 -0.2475
27991SOL    HW184551   9.488   3.092   2.576 -1.0438 -0.9802 -1.0335
27991SOL    HW284552   9.399   3.019   2.675 -1.8848  0.7198 -0.4955
27992SOL     OW84553   4.540   3.508   8.867  0.0839 -0.5633 -0.0855
27992SOL    HW184554   4.524   3.448   8.940  2.4667 -0.1462  0.8418
27992SOL    HW284555   4.523   3.595   8.903 -0.5480 -0.4670 -0.5942
27993SOL     OW84556   6.334   1.272   0.268  0.2940  0.3197  0.1179
27993SOL    HW184557   6.327   1.335   0.197  0.1140 -0.9484 -1.0365
27993SOL    HW284558   6.292   1.315   0.343 -0.1506  1.4089 -0.7365
27994SOL     OW84559   6.696   5.306   1.583  0.7102 -0.0762  0.1923
27994SOL    HW184560   6.766   5.337   1.526  1.1197 -1.7603 -0.2701
27994SOL    HW284561   6.731   5.228   1.625 -0.4579 -0.2428  0.9123
27995SOL     OW84562   7.844   7.403   6.222 -0.7040 -1.0454  0.0008
27995SOL    HW184563   7.918   7.456   6.251 -0.2213 -0.8161 -1.5433
27995SOL    HW284564   7.808   7.364   6.302  0.7493 -0.7297  0.8256
27996SOL     OW84565   0.674   6.546   7.780 -0.0337  0.1217 -0.0196
27996SOL    HW184566   0.592   6.587   7.810 -0.5853  0.1242 -1.4683
27996SOL    HW284567   0.662   6.453   7.798 -1.2037 -0.1552 -1.9971
27997SOL     OW84568   6.510   7.958   8.777  0.7435 -0.2219  0.4400
27997SOL    HW184569   6.513   7.927   8.867 -1.0481 -1.0366  0.2540
27997SOL    HW284570   6.588   7.920   8.736  0.8427 -0.9771  1.3014
27998SOL     OW84571   8.955   8.430   9.879  0.6479  0.0024 -0.1368
27998SOL    HW184572   8.968   8.380   9.798  0.3106  0.1294 -0.2679
27998SOL    HW284573   9.044   8.448   9.910  0.8071  1.1510 -1.2010
27999SOL     OW84574   6.524   4.707   1.745  0.6024  0.1020  0.0353
27999SOL    HW184575   6.482   4.644   1.687  1.2064 -1.2629  1.0370
27999SOL    HW284576   6.451   4.754   1.786  0.1500  1.9181 -2.5804
28000SOL     OW84577   1.391   3.741   3.495  0.4301 -0.0872 -0.1861
28000SOL    HW184578   1.473   3.714   3.452  1.5366  2.8804 -0.1392
28000SOL    HW284579   1.373   3.828   3.461 -1.4613  0.2970  1.5800
28001SOL     OW84580   9.842   7.368   1.218 -0.0934 -0.4276 -0.6492
28001SOL    HW184581   9.843   7.433   1.288  0.0720  1.0985 -2.0084
28001SOL    HW284582   9.758   7.323   1.228  0.5639 -1.3136  1.4118
28002SOL     OW84583   5.928   9.601   0.248  0.9526  0.5209  0.8823
28002SOL    HW184584   5.945   9.689   0.214  0.8564  0.5018  0.7848
28002SOL    HW284585   5.962   9.542   0.182  0.6811  0.4832  0.7740
28003SOL     OW84586   6.143   0.646   2.742  0.3659 -0.3589 -0.5110
28003SOL    HW184587   6.179   0.559   2.728 -0.7559 -1.2534  1.6940
28003SOL    HW284588   6.178   0.673   2.827 -0.1101  0.9211 -0.7025
28004SOL     OW84589   2.593   1.934   9.801 -0.4658 -0.2198 -0.2431
28004SOL    HW184590   2.569   1.859   9.855 -1.9553  1.0665  0.9805
28004SOL    HW284591   2.515   1.952   9.749 -1.3625  2.3823  1.8101
28005SOL     OW84592   6.507   3.127   7.055 -0.0058 -0.1692  0.2806
28005SOL    HW184593   6.602   3.126   7.064  0.1911  1.2566 -1.2896
28005SOL    HW284594   6.487   3.048   7.004  0.4600  0.1218 -0.3587
28006SOL     OW84595   0.806   2.458   9.235 -0.5279  0.0865  0.1884
28006SOL    HW184596   0.804   2.521   9.163 -0.0088  1.6044  1.4362
28006SOL    HW284597   0.900   2.442   9.249 -0.6134  0.1530  0.8269
28007SOL     OW84598   2.617   9.749   6.156  0.4606 -0.1248 -0.4139
28007SOL    HW184599   2.640   9.656   6.146  1.9039  0.1484  0.0578
28007SOL    HW284600   2.574   9.754   6.241 -1.9659 -0.7264 -1.5156
28008SOL     OW84601   9.022   5.827   6.267  1.0100  0.0897 -0.1439
28008SOL    HW184602   8.940   5.860   6.229  1.1659  0.8508  0.1784
28008SOL    HW284603   9.001   5.811   6.359  1.5600  1.5284  0.2583
28009SOL     OW84604   2.355   0.642   1.048  0.6434 -0.0897  0.1544
28009SOL    HW184605   2.401   0.584   1.109 -0.2247 -0.8120  0.1563
28009SOL    HW284606   2.422   0.702   1.016  0.9406  1.0302  2.6298
28010SOL     OW84607   2.362   2.064   1.450  0.0602  0.3157  0.3534
28010SOL    HW184608   2.402   2.150   1.448 -0.0123  0.3938  1.5295
28010SOL    HW284609   2.436   2.003   1.447  0.1482  0.4256  0.2678
28011SOL     OW84610   7.475   4.903   8.821  0.0876 -0.1613 -0.5523
28011SOL    HW184611   7.549   4.934   8.770  1.2172 -0.6998  0.6858
28011SOL    HW284612   7.500   4.814   8.847 -0.0057  0.4080  1.6779
28012SOL     OW84613   2.188   5.688   0.008  0.1926  0.2073  0.3230
28012SOL    HW184614   2.168   5.701   0.101  0.8580  0.5317  0.4329
28012SOL    HW284615   2.106   5.659  -0.031  0.1398 -0.8541  1.1872
28013SOL     OW84616   0.142   6.551   3.837  0.6590 -0.6247  0.4737
28013SOL    HW184617   0.237   6.563   3.830  0.5523 -0.6337 -1.3101
28013SOL    HW284618   0.112   6.627   3.887  1.2573  1.1300 -1.6964
28014SOL     OW84619   2.759   6.334   8.028 -0.0593 -0.3699  0.1425
28014SOL    HW184620   2.818   6.307   8.100 -0.2779 -0.1603  0.4004
28014SOL    HW284621   2.730   6.252   7.989  1.7185 -0.4768 -1.0726
28015SOL     OW84622   9.219   8.741   6.603 -0.3509 -0.7762  0.5709
28015SOL    HW184623   9.278   8.682   6.556 -0.8383  0.1364 -1.2721
28015SOL    HW284624   9.152   8.684   6.640 -0.7323 -1.4312 -1.0534
28016SOL     OW84625   1.431   3.270   4.843 -0.0537  0.1816 -0.0537
28016SOL    HW184626   1.434   3.179   4.873  2.2535 -0.5323 -2.1407
28016SOL    HW284627   1.518   3.304   4.860 -0.1925  1.2799 -1.3933
28017SOL     OW84628   5.001   6.491   3.540  0.4987 -0.1536  0.1194
28017SOL    HW184629   4.935   6.447   3.486  1.6045 -0.1463 -1.2963
28017SOL    HW284630   5.002   6.440   3.622 -0.4310 -0.8481 -0.2793
28018SOL     OW84631   1.701   8.885   2.511 -0.5388  1.0663  0.0456
28018SOL    HW184632   1.613   8.847   2.505  0.4905 -1.5040 -0.3550
28018SOL    HW284633   1.716   8.925   2.425 -0.4767 -0.6092 -0.7633
28019SOL     OW84634   0.585   3.480   7.673 -0.4914  0.1156 -0.5140
28019SOL    HW184635   0.642   3.532   7.616 -0.6337  1.0896  0.2130
28019SOL    HW284636   0.503   3.471   7.624 -0.1951 -0.0968 -0.9715
28020SOL     OW84637   8.785   0.508   7.669 -0.0091  0.1108  0.5197
28020SOL    HW184638   8.734   0.576   7.625  1.6677  0.8447 -0.3732
28020SOL    HW284639   8.862   0.496   7.613 -1.1576 -4.0176 -0.5270
28021SOL     OW84640   4.832   8.552   7.560  0.0177 -0.4626  0.4884
28021SOL    HW184641   4.860   8.636   7.522  0.2695 -1.0970 -0.7914
28021SOL    HW284642   4.783   8.510   7.489  2.9788 -2.9780 -0.2838
28022SOL     OW84643   1.748   7.146   8.789  0.1379 -0.1214 -0.2229
28022SOL    HW184644   1.711   7.232   8.772  0.5086  0.0123 -0.3778
28022SOL    HW284645   1.672   7.088   8.798 -0.1419  0.3826  0.8318
28023SOL     OW84646   8.570   5.307   5.272  0.0915 -0.3538 -0.0770
28023SOL    HW184647   8.661   5.283   5.287 -0.0830 -2.3846 -1.8262
28023SOL    HW284648   8.521   5.261   5.340  0.1965 -1.1187 -0.5090
28024SOL     OW84649   2.718   7.734   1.702  0.1278 -0.2547  0.2735
28024SOL    HW184650   2.744   7.675   1.631  0.3755  1.8989 -1.5327
28024SOL    HW284651   2.797   7.744   1.754  1.3805  1.6518 -1.8180
28025SOL     OW84652   5.354   4.081   8.245  0.1677  0.1649  0.1449
28025SOL    HW184653   5.449   4.073   8.252  0.2093 -0.4065 -0.9092
28025SOL    HW284654   5.330   4.143   8.314  1.2067 -0.3012  0.9542
28026SOL     OW84655   5.228   2.841   4.475  0.6764  0.4482  0.5961
28026SOL    HW184656   5.134   2.846   4.492  0.9182  0.3462  2.1538
28026SOL    HW284657   5.249   2.748   4.487  0.7411  0.1631 -1.3428
28027SOL     OW84658   4.905   0.455   6.839  0.0393 -0.4875  0.6083
28027SOL    HW184659   4.842   0.384   6.829  0.0493 -0.5673  1.0626
28027SOL    HW284660   4.906   0.499   6.754 -0.1396 -0.8868  0.3956
28028SOL     OW84661   0.038   4.077   9.120  0.0860 -0.2161 -0.2976
28028SOL    HW184662  -0.058   4.086   9.122  0.1899  1.1183 -0.0858
28028SOL    HW284663   0.063   4.070   9.213  0.5132  4.5513  0.2222
28029SOL     OW84664   5.230   1.396   4.821  0.0044  0.1852  0.0467
28029SOL    HW184665   5.173   1.473   4.811  0.1165  0.1694 -0.7818
28029SOL    HW284666   5.209   1.341   4.745 -1.5633 -1.5873  1.6632
28030SOL     OW84667   9.228   8.421   9.658  0.0976  0.1202 -0.1855
28030SOL    HW184668   9.164   8.464   9.602 -0.5522  0.9097  1.0996
28030SOL    HW284669   9.311   8.465   9.639  0.5362 -1.5079 -2.5154
28031SOL     OW84670   5.096   6.490   3.969 -0.2110 -0.7347  0.1585
28031SOL    HW184671   5.107   6.578   3.932 -0.7713 -1.5038 -1.9672
28031SOL    HW284672   5.010   6.493   4.011 -0.8087 -0.6157 -1.0342
28032SOL     OW84673   9.122   9.248   0.241 -0.5720  0.0286  0.0241
28032SOL    HW184674   9.034   9.210   0.250 -0.3700 -0.2967  0.6417
28032SOL    HW284675   9.106   9.342   0.233 -0.9676 -0.0108  0.3244
28033SOL     OW84676   9.539   4.163   6.968 -0.0486  1.1331 -0.5318
28033SOL    HW184677   9.492   4.101   6.913  0.4967 -0.4587  0.7298
28033SOL    HW284678   9.473   4.198   7.027 -0.1964  1.1451 -0.7026
28034SOL     OW84679   0.796   3.034   5.226 -0.7944  0.1477  0.2977
28034SOL    HW184680   0.836   3.011   5.309  0.4488 -1.6071 -0.7042
28034SOL    HW284681   0.866   3.020   5.161 -2.4273 -1.1002 -1.3044
28035SOL     OW84682   7.266   5.409   0.184 -0.6029  0.4604  0.0766
28035SOL    HW184683   7.337   5.392   0.246 -1.0974  0.6600  0.7151
28035SOL    HW284684   7.214   5.329   0.185 -1.6213  1.0958  1.3103
28036SOL     OW84685   7.152   7.287   1.774 -0.6944 -0.6525 -0.3963
28036SOL    HW184686   7.082   7.223   1.761  0.5311 -1.8577 -1.4940
28036SOL    HW284687   7.226   7.250   1.725  1.3647 -0.4968  2.3772
28037SOL     OW84688   6.391   6.620   9.497  0.0438 -0.1070 -0.0970
28037SOL    HW184689   6.318   6.645   9.441  0.0911 -0.0435 -0.1306
28037SOL    HW284690   6.359   6.545   9.547  0.3871 -0.8930 -1.0333
28038SOL     OW84691   7.101   8.298   3.612  0.0188 -0.0645 -0.0497
28038SOL    HW184692   7.091   8.357   3.687 -0.1760  0.6357 -0.6223
28038SOL    HW284693   7.111   8.356   3.537  0.8541 -0.7682 -0.4894
28039SOL     OW84694   5.448   6.433   3.611  0.3527  0.5727  0.8345
28039SOL    HW184695   5.463   6.516   3.656  0.0194  1.6261 -0.8902
28039SOL    HW284696   5.355   6.436   3.586  0.2507 -0.4803  1.0431
28040SOL     OW84697   7.990   8.121   7.045 -0.2638 -0.3699  0.3067
28040SOL    HW184698   7.977   8.210   7.012  0.2031 -0.4757 -0.1632
28040SOL    HW284699   7.907   8.099   7.088 -2.4810 -1.7077 -4.0999
28041SOL     OW84700   0.575   1.097   9.223 -0.0511  0.0391 -0.3562
28041SOL    HW184701   0.562   1.002   9.221 -0.3313  0.0715 -0.1092
28041SOL    HW284702   0.539   1.124   9.307  3.1039 -0.0940  1.1858
28042SOL     OW84703   6.217   2.966   5.322 -0.0521 -0.0148  0.3275
28042SOL    HW184704   6.299   2.923   5.347  0.4334  0.3286 -0.5966
28042SOL    HW284705   6.160   2.956   5.398  0.4281 -1.3165  0.5522
28043SOL     OW84706   0.066   2.351   1.303 -0.1463 -0.5262  0.1329
28043SOL    HW184707   0.114   2.410   1.361  2.4042 -1.0218 -1.3089
28043SOL    HW284708   0.055   2.270   1.355  0.8011 -0.4744  0.4291
28044SOL     OW84709   8.846   8.857   6.016  0.1333 -0.0186 -0.3642
28044SOL    HW184710   8.819   8.833   5.928 -0.3743 -1.4777  0.1637
28044SOL    HW284711   8.882   8.945   6.007 -0.2373 -0.0064 -1.9550
28045SOL     OW84712   1.020   7.376   1.737  0.3225 -0.2497 -0.4424
28045SOL    HW184713   1.086   7.349   1.674  0.8759  0.7432 -0.2989
28045SOL    HW284714   1.045   7.331   1.818  1.9380  1.5421  0.1184
28046SOL     OW84715   4.538   9.025   2.542  0.3440 -0.1576  0.4365
28046SOL    HW184716   4.455   8.978   2.546  0.1899 -0.1463 -1.6419
28046SOL    HW284717   4.593   8.983   2.608 -0.4779 -1.8549  0.0828
28047SOL     OW84718   0.862   5.799   8.306 -0.1372  0.0829  0.3016
28047SOL    HW184719   0.831   5.879   8.264 -1.6647 -0.5416  0.1650
28047SOL    HW284720   0.782   5.758   8.340  0.7621 -0.7548  1.4680
28048SOL     OW84721   3.461   2.068   0.092  0.0841 -0.5414  0.4689
28048SOL    HW184722   3.496   1.993   0.140  0.6607 -0.5875 -0.0168
28048SOL    HW284723   3.382   2.093   0.140  0.5381 -0.7184  1.3164
28049SOL     OW84724   3.536   4.290   1.784 -0.4013 -0.1310 -0.1722
28049SOL    HW184725   3.483   4.221   1.745 -0.9984 -0.2314  0.7682
28049SOL    HW284726   3.618   4.289   1.736 -0.5381 -1.2626 -0.3959
28050SOL     OW84727   3.060   5.977   7.704 -0.0058 -0.4063  0.2932
28050SOL    HW184728   3.130   5.919   7.733  0.2196 -0.0522  0.4736
28050SOL    HW284729   3.045   6.036   7.779  1.4997  1.3794 -0.7295
28051SOL     OW84730   4.883   1.453   9.327  0.7321 -0.5691  0.2610
28051SOL    HW184731   4.901   1.462   9.234  2.3905  0.7048  0.6550
28051SOL    HW284732   4.920   1.532   9.367 -0.0381 -1.0174  1.9948
28052SOL     OW84733   4.469   0.777   4.886  0.0393  0.1020 -0.1564
28052SOL    HW184734   4.556   0.786   4.926  0.3166 -0.5839 -0.6040
28052SOL    HW284735   4.466   0.687   4.854 -0.2736  0.5553 -1.4628
28053SOL     OW84736   2.523   7.570   3.142 -0.0816  0.0443 -0.0604
28053SOL    HW184737   2.575   7.593   3.065 -0.8637  0.0466 -0.6065
28053SOL    HW284738   2.542   7.639   3.205 -1.7048  1.7879 -1.3505
28054SOL     OW84739   6.085   7.452   1.283 -0.0048  0.2618 -0.3109
28054SOL    HW184740   6.057   7.363   1.260 -0.6493  0.7383 -1.4558
28054SOL    HW284741   6.139   7.441   1.360 -1.2151 -0.9888  0.4050
28055SOL     OW84742   3.171   8.681   3.099  0.2033  0.2965  0.3335
28055SOL    HW184743   3.145   8.773   3.096  0.0935  0.3484  2.0878
28055SOL    HW284744   3.246   8.675   3.039 -0.8220  1.1467 -1.0930
28056SOL     OW84745   8.562   1.136   7.784  0.3929 -0.0784 -0.5068
28056SOL    HW184746   8.623   1.083   7.733  1.0077 -0.3451  0.4883
28056SOL    HW284747   8.617   1.183   7.846 -0.4716 -0.9487  0.9767
28057SOL     OW84748   8.826   4.489   6.691 -0.2300  0.1701 -0.4281
28057SOL    HW184749   8.885   4.417   6.670 -0.6295 -0.3999  0.3446
28057SOL    HW284750   8.819   4.487   6.787 -2.0348 -0.2400 -0.5321
28058SOL     OW84751   8.022   0.852   2.703  0.5764 -0.1937 -0.2265
28058SOL    HW184752   8.012   0.834   2.610 -2.5083  0.4746 -0.1459
28058SOL    HW284753   8.054   0.770   2.740  1.3508 -0.6224 -1.7869
28059SOL     OW84754   9.555   5.007   9.823  1.3440 -0.3256  0.2186
28059SOL    HW184755   9.575   5.100   9.813 -3.4308  0.8181 -0.7865
28059SOL    HW284756   9.510   5.001   9.907  0.3505 -1.4366 -0.3642
28060SOL     OW84757   2.865   6.491   3.174 -0.0503  0.0659 -0.1554
28060SOL    HW184758   2.923   6.483   3.250 -1.4368  0.1708  0.9412
28060SOL    HW284759   2.815   6.570   3.189 -2.6425 -1.5784  0.4955
28061SOL     OW84760   2.812   3.011   8.666  0.3940 -0.1754 -0.3644
28061SOL    HW184761   2.763   3.072   8.611 -0.1426 -0.1827  0.1033
28061SOL    HW284762   2.882   3.064   8.704 -0.6652  0.4229  0.8482
28062SOL     OW84763   6.766   7.794   7.907  0.2138  0.6906 -0.4637
28062SOL    HW184764   6.814   7.763   7.984 -1.0064 -0.3980 -0.1099
28062SOL    HW284765   6.718   7.870   7.938  0.6497  0.9694 -0.4663
28063SOL     OW84766   8.634   7.350   2.457  0.1531  0.1497 -0.3829
28063SOL    HW184767   8.653   7.327   2.548  2.3024  0.1550 -0.7831
28063SOL    HW284768   8.712   7.395   2.427 -1.0970  1.4371 -1.8351
28064SOL     OW84769   1.915   2.202   3.419  0.5137  0.2279 -0.1834
28064SOL    HW184770   1.985   2.137   3.428 -0.2297 -0.7792 -1.3386
28064SOL    HW284771   1.960   2.281   3.390  1.2360 -0.3093 -0.5752
28065SOL     OW84772   0.344   9.948   8.512 -0.1415  0.6534 -0.2017
28065SOL    HW184773   0.342  10.043   8.528  0.4149  0.8429 -1.1842
28065SOL    HW284774   0.437   9.927   8.510 -0.1542  0.5530 -2.4925
28066SOL     OW84775   9.083   2.082   3.030 -0.1426  0.1602 -1.1237
28066SOL    HW184776   8.994   2.094   3.064  1.4924  0.8992  3.5111
28066SOL    HW284777   9.119   2.170   3.024  1.3050 -0.2717  0.4562
28067SOL     OW84778   2.334   7.653   1.169 -0.0861  0.1630  0.8328
28067SOL    HW184779   2.325   7.580   1.108 -0.7328 -0.4459  1.6276
28067SOL    HW284780   2.255   7.648   1.224  0.0894  1.1794  1.1984
28068SOL     OW84781   0.798   9.400   8.176  0.4079 -0.0412  0.1999
28068SOL    HW184782   0.841   9.374   8.095  0.0786 -1.3007  0.3994
28068SOL    HW284783   0.711   9.361   8.170 -0.6920  2.3249 -0.1302
28069SOL     OW84784   0.839   3.214   9.802  0.0103  0.0664  0.6100
28069SOL    HW184785   0.787   3.243   9.876 -0.2356  0.4068  0.3073
28069SOL    HW284786   0.825   3.120   9.797 -2.4208  0.4417 -0.8687
28070SOL     OW84787   0.282   1.854   8.021 -0.0445 -0.7263 -0.0879
28070SOL    HW184788   0.188   1.841   8.017 -0.1163 -0.2977  0.1364
28070SOL    HW284789   0.311   1.805   8.098 -0.3635  0.6692  0.9659
28071SOL     OW84790   2.250   8.434   0.646 -0.5397 -0.3838 -0.1631
28071SOL    HW184791   2.211   8.430   0.733 -0.4510 -0.9222 -0.1461
28071SOL    HW284792   2.286   8.346   0.631  0.7058  0.0992 -0.1641
28072SOL     OW84793   0.576   5.659   3.977 -0.1902  0.3254  0.1148
28072SOL    HW184794   0.670   5.659   3.991 -0.3480 -0.3734  1.3545
28072SOL    HW284795   0.558   5.576   3.931 -0.2180  0.3896  0.0087
28073SOL     OW84796   4.252   4.333   0.326  0.0865 -0.4648  0.1744
28073SOL    HW184797   4.312   4.405   0.346 -0.6051 -0.1824  1.3274
28073SOL    HW284798   4.165   4.375   0.323 -0.1851 -1.0557 -0.3403
28074SOL     OW84799   0.011   9.555   1.446  0.1716  0.2788  0.2724
28074SOL    HW184800   0.039   9.637   1.485 -0.3838  0.3773  0.4617
28074SOL    HW284801   0.061   9.549   1.364  1.6267 -0.1134  1.1566
28075SOL     OW84802   2.575   1.285   9.139 -0.3227 -0.5532 -0.1575
28075SOL    HW184803   2.610   1.361   9.093 -2.1862  0.1637 -0.4607
28075SOL    HW284804   2.610   1.293   9.228  0.7868 -0.2441 -0.6081
28076SOL     OW84805   3.348   9.231   8.617 -0.1612 -0.2721 -0.0732
28076SOL    HW184806   3.269   9.254   8.666 -0.4586 -0.7913 -0.2993
28076SOL    HW284807   3.405   9.190   8.681 -0.0732  0.1013  0.0908
28077SOL     OW84808   6.598   7.417   9.184  0.6727 -0.6368  0.2620
28077SOL    HW184809   6.674   7.360   9.172 -0.3826 -2.0640  0.0800
28077SOL    HW284810   6.549   7.377   9.256  0.5370  0.7745  0.9780
28078SOL     OW84811   5.982   7.566   0.766  0.5364 -0.7073  0.6141
28078SOL    HW184812   5.905   7.623   0.777  0.2895 -0.9115 -0.0033
28078SOL    HW284813   5.979   7.540   0.674  2.3556  0.7231  0.0982
28079SOL     OW84814   7.424   0.518   7.973  0.2592  0.3540 -0.1952
28079SOL    HW184815   7.358   0.497   7.907 -0.2663  0.9314  0.1245
28079SOL    HW284816   7.374   0.530   8.054  0.8211  0.2621  0.1718
28080SOL     OW84817   4.315   1.577   5.265  0.1147  0.5925 -0.1405
28080SOL    HW184818   4.358   1.662   5.277  2.0503 -0.5251  1.6936
28080SOL    HW284819   4.365   1.534   5.196 -1.3142  1.1711 -1.5761
28081SOL     OW84820   5.089   6.925   9.047 -0.1785 -0.0648 -0.8200
28081SOL    HW184821   5.124   6.960   9.129 -1.7741 -1.2801  0.4637
28081SOL    HW284822   5.098   6.996   8.984  2.9535  0.2517 -0.1933
28082SOL     OW84823   6.333   2.841   2.114  0.0340 -0.1345  0.1063
28082SOL    HW184824   6.287   2.800   2.041 -1.1277  1.3830 -0.0527
28082SOL    HW284825   6.346   2.932   2.088  1.6444 -0.1054  0.8702
28083SOL     OW84826   7.315   5.957   3.118  0.1860  0.7671 -0.8752
28083SOL    HW184827   7.280   6.010   3.046  1.4458  0.4306 -1.7736
28083SOL    HW284828   7.388   6.008   3.152 -0.5486  1.0371  0.3694
28084SOL     OW84829   5.060   2.432   0.503 -0.2580  0.0619  0.4101
28084SOL    HW184830   5.098   2.486   0.434  1.0333 -0.8411  0.3740
28084SOL    HW284831   5.081   2.478   0.584  3.3729 -1.6501  0.6271
28085SOL     OW84832   4.701   5.624   5.142  0.6900  0.1945  0.1831
28085SOL    HW184833   4.622   5.588   5.101  0.1067  2.3213 -0.6669
28085SOL    HW284834   4.745   5.548   5.181 -1.9746 -1.0049  1.0528
28086SOL     OW84835   5.261   9.110   2.908  0.5345 -0.2858  0.1278
28086SOL    HW184836   5.233   9.046   2.974 -1.1194  0.0121 -0.2630
28086SOL    HW284837   5.337   9.152   2.948 -0.6020  0.1064  2.0142
28087SOL     OW84838   6.944   3.405   6.011 -0.0640 -0.0966 -0.0448
28087SOL    HW184839   6.858   3.369   6.033  0.4944 -1.1190  0.5162
28087SOL    HW284840   6.944   3.407   5.915 -1.6963  2.4031 -0.0729
28088SOL     OW84841   8.522   0.592   4.395  0.1816  0.1252 -0.3924
28088SOL    HW184842   8.613   0.586   4.421 -0.1314 -3.0438  0.3337
28088SOL    HW284843   8.478   0.635   4.468  0.9787  1.2351 -0.5491
28089SOL     OW84844   4.101   8.303   7.965 -0.1679  0.3118 -0.1386
28089SOL    HW184845   4.129   8.279   7.877 -0.4846 -0.3165 -0.0711
28089SOL    HW284846   4.119   8.226   8.018  0.6878  0.9293  0.5055
28090SOL     OW84847   7.277   7.627   4.562  0.0523  0.0942  0.1802
28090SOL    HW184848   7.324   7.577   4.496  1.0677 -0.4515  1.2923
28090SOL    HW284849   7.202   7.571   4.585 -1.4395  1.1047 -1.8239
28091SOL     OW84850   9.278   7.423   5.829  0.9267 -0.0503  0.0533
28091SOL    HW184851   9.296   7.511   5.795  2.3129 -0.1685  0.4146
28091SOL    HW284852   9.183   7.421   5.842  0.9281  1.5883  0.5475
28092SOL     OW84853   6.880   5.643   0.445  0.1799 -0.6618  0.5142
28092SOL    HW184854   6.870   5.589   0.367 -0.6566  0.1934  0.0047
28092SOL    HW284855   6.973   5.636   0.467  0.6712 -0.0970 -1.1763
28093SOL     OW84856   6.364   2.970   2.385 -0.3944 -0.0397  0.0069
28093SOL    HW184857   6.348   2.905   2.317 -0.6245 -0.7816  0.7533
28093SOL    HW284858   6.294   3.035   2.373 -0.2916 -0.0335 -0.6064
28094SOL     OW84859   9.917   3.040   5.050  0.4202  0.2455 -0.3792
28094SOL    HW184860   9.938   3.091   5.128  0.9621  1.1853 -1.1251
28094SOL    HW284861   9.984   2.972   5.046  0.4963  0.3074 -0.1413
28095SOL     OW84862   3.666   6.076   3.979  0.3995 -0.7367 -0.3720
28095SOL    HW184863   3.590   6.036   4.021  0.7646  1.0907  2.3298
28095SOL    HW284864   3.639   6.091   3.889 -1.1567 -3.2153 -0.4152
28096SOL     OW84865   7.597   6.943   7.442  0.0388  0.5916  0.0331
28096SOL    HW184866   7.683   6.971   7.411  0.4082 -0.6381 -0.0981
28096SOL    HW284867   7.544   7.023   7.440  1.0312  1.2673 -0.3488
28097SOL     OW84868   4.087   5.925   2.145  0.1949  0.3772  0.1494
28097SOL    HW184869   4.074   5.830   2.150  0.2946  0.3951  0.8516
28097SOL    HW284870   4.071   5.946   2.053 -0.4688 -0.2265  0.1152
28098SOL     OW84871   1.582   5.178   1.762 -0.1738  0.3160  0.4988
28098SOL    HW184872   1.523   5.247   1.732 -3.7460 -2.7178 -0.1852
28098SOL    HW284873   1.566   5.172   1.856  2.0793  1.9449  1.0755
28099SOL     OW84874   5.782   9.127   5.793  0.6059  0.6829  0.0444
28099SOL    HW184875   5.829   9.100   5.715 -1.9189 -1.8216 -0.7487
28099SOL    HW284876   5.763   9.220   5.779  1.2771  0.5812 -1.7168
28100SOL     OW84877   9.836   0.045   4.757 -0.4626  0.5936 -0.3227
28100SOL    HW184878   9.853   0.023   4.849 -0.7214  1.9589  0.0808
28100SOL    HW284879   9.757  -0.005   4.735  0.1089 -0.4334 -0.0896
28101SOL     OW84880   0.315   7.215   3.555 -0.2465 -0.2934 -0.1883
28101SOL    HW184881   0.369   7.136   3.559  1.2431  0.6642 -0.3946
28101SOL    HW284882   0.238   7.194   3.607  1.5188 -0.8312  2.4165
28102SOL     OW84883   0.462   4.185   9.052 -0.6779 -0.4520  0.1313
28102SOL    HW184884   0.442   4.241   8.978  0.1060 -0.0922  0.1787
28102SOL    HW284885   0.500   4.106   9.013 -1.5677 -0.8578  0.0772
28103SOL     OW84886   4.219   3.710   5.230  0.1461  0.4697 -0.3090
28103SOL    HW184887   4.202   3.763   5.152 -2.2079  0.2618 -0.0144
28103SOL    HW284888   4.152   3.738   5.293  0.5157 -0.9986  0.7923
28104SOL     OW84889   7.308   9.166   4.887 -0.0988  0.1185 -0.4383
28104SOL    HW184890   7.364   9.103   4.841  0.3109  0.9864 -1.1459
28104SOL    HW284891   7.250   9.111   4.939  0.5390 -0.8419 -0.6979
28105SOL     OW84892   1.503   2.394   0.060 -0.1320 -0.1026  0.2588
28105SOL    HW184893   1.539   2.471   0.015 -0.7945  0.5943  0.9161
28105SOL    HW284894   1.571   2.371   0.123  1.0680 -1.4312 -1.4066
28106SOL     OW84895   7.988   8.016   7.399  0.0456  0.0790  0.2584
28106SOL    HW184896   7.913   8.061   7.437  1.6356  2.7131  0.5248
28106SOL    HW284897   8.062   8.075   7.415  2.0457 -2.0219 -0.6964
28107SOL     OW84898   0.620   6.520   8.876 -0.4628 -0.7929  0.1807
28107SOL    HW184899   0.689   6.466   8.836 -2.5791 -3.2400 -0.4168
28107SOL    HW284900   0.578   6.564   8.802 -0.3105 -0.2240  0.4253
28108SOL     OW84901   7.996   9.251   4.881  0.4755 -0.1153  0.3219
28108SOL    HW184902   8.012   9.341   4.852  1.0368 -0.3965 -0.2488
28108SOL    HW284903   7.919   9.224   4.831  0.2757  0.0554  0.5298
28109SOL     OW84904   6.973   3.195   6.813  0.3142  0.6673  0.3755
28109SOL    HW184905   6.926   3.112   6.825 -0.4381  0.8138 -1.2459
28109SOL    HW284906   7.061   3.178   6.848  0.1891 -0.8392  0.0423
28110SOL     OW84907   4.783   5.907   3.787  0.3276 -0.0332 -0.4615
28110SOL    HW184908   4.796   5.949   3.872 -0.9675 -0.1490 -0.1819
28110SOL    HW284909   4.700   5.860   3.796  0.7844 -1.0847 -1.3881
28111SOL     OW84910   2.398   0.726   9.172 -0.1733 -0.4556 -0.0856
28111SOL    HW184911   2.456   0.656   9.202 -1.4759 -1.0927  1.0666
28111SOL    HW284912   2.444   0.807   9.197  0.5426 -0.9264  0.1691
28112SOL     OW84913   9.015   1.226   9.728 -0.2102  0.3183 -0.0924
28112SOL    HW184914   9.101   1.192   9.749 -0.8450 -0.4491  1.4177
28112SOL    HW284915   8.971   1.154   9.682 -0.2171  0.5425 -0.4450
28113SOL     OW84916   8.447   1.483   3.478  0.1625  0.4567  0.5236
28113SOL    HW184917   8.491   1.567   3.468  1.7143 -0.3192  0.5299
28113SOL    HW284918   8.429   1.454   3.388 -0.3698  0.7731  0.5216
28114SOL     OW84919   6.405   0.312   6.285 -0.0409 -0.7400  0.1325
28114SOL    HW184920   6.321   0.352   6.263  1.4583  2.4225 -0.3163
28114SOL    HW284921   6.440   0.284   6.200  0.3736  0.1650 -0.0071
28115SOL     OW84922   1.522   2.905   7.339  0.5922  0.2179 -0.0207
28115SOL    HW184923   1.454   2.940   7.397 -0.5108 -1.5842 -0.1413
28115SOL    HW284924   1.538   2.816   7.373  1.9576  0.1453 -0.7946
28116SOL     OW84925   2.851   8.841   3.990  0.5230  0.2220  0.4604
28116SOL    HW184926   2.841   8.751   3.960  1.7382 -0.5728  2.2897
28116SOL    HW284927   2.772   8.858   4.041 -0.1689  0.5667 -0.6873
28117SOL     OW84928   1.362   3.499   8.526  0.5051  0.0444 -0.1262
28117SOL    HW184929   1.341   3.515   8.619 -0.3015  0.3492 -0.3543
28117SOL    HW284930   1.292   3.442   8.496  1.2085 -0.7072 -0.3500
28118SOL     OW84931   7.598   9.509   4.531 -0.4916 -0.2122  0.9135
28118SOL    HW184932   7.645   9.475   4.608  1.4146  0.5652  0.1616
28118SOL    HW284933   7.557   9.590   4.562  0.5910  0.3051  1.0470
28119SOL     OW84934   1.298   5.221   2.040 -0.3600  0.1788  0.7545
28119SOL    HW184935   1.285   5.144   2.095 -0.7337 -0.0359  0.3684
28119SOL    HW284936   1.369   5.196   1.980  0.7104  0.7459  1.7404
28120SOL     OW84937   7.986   5.463   1.044  0.1006 -0.4048 -0.0436
28120SOL    HW184938   7.975   5.454   1.139 -0.2906 -2.6480 -0.2603
28120SOL    HW284939   7.918   5.525   1.018  0.8191  0.9868  1.2220
28121SOL     OW84940   7.124   9.542   9.777  1.2956  0.2186 -0.1721
28121SOL    HW184941   7.056   9.488   9.736  0.2550  2.0824 -1.0282
28121SOL    HW284942   7.119   9.519   9.870 -0.0186 -0.2008 -0.3212
28122SOL     OW84943   1.140   0.378   7.405 -0.1501 -0.2363 -0.3746
28122SOL    HW184944   1.053   0.398   7.440  1.1853  0.8872  2.6496
28122SOL    HW284945   1.168   0.459   7.362  0.2652  0.2212  0.7143
28123SOL     OW84946   9.945   4.328   2.386 -0.0109  0.1303  0.0062
28123SOL    HW184947   9.857   4.353   2.414  0.5071  0.9890  0.9299
28123SOL    HW284948   9.980   4.276   2.459  0.4612  0.3074 -0.0867
28124SOL     OW84949   4.319   0.440   7.459 -0.4234 -0.0194 -0.4228
28124SOL    HW184950   4.285   0.479   7.540  1.0125  2.0228 -0.7402
28124SOL    HW284951   4.339   0.349   7.484 -0.8359  0.3055  1.2654
28125SOL     OW84952   5.841   5.628   8.933  0.0821 -0.0159  0.2262
28125SOL    HW184953   5.898   5.551   8.944  0.6179  0.4805  1.1041
28125SOL    HW284954   5.902   5.701   8.922 -0.4267  0.2468 -1.0325
28126SOL     OW84955   9.786   9.936   2.438  0.0316  0.8046 -0.2320
28126SOL    HW184956   9.847   9.969   2.372 -0.7388 -0.2288 -1.5251
28126SOL    HW284957   9.707   9.912   2.388  0.4077 -2.6716  0.5425
28127SOL     OW84958   9.388   0.370   1.333 -0.0217 -0.3603 -0.1928
28127SOL    HW184959   9.306   0.408   1.301  0.6192  0.1110 -1.3382
28127SOL    HW284960   9.428   0.330   1.255  1.4374  0.5400  0.0575
28128SOL     OW84961   8.875   0.129   4.199  0.1143 -0.2327  0.7760
28128SOL    HW184962   8.875   0.145   4.294  3.1262  0.0932  0.8204
28128SOL    HW284963   8.928   0.050   4.188 -1.0800 -0.8869 -0.6049
28129SOL     OW84964   6.538   6.260   3.816  0.4515  0.3986 -0.4009
28129SOL    HW184965   6.567   6.223   3.900  0.2910  0.2668 -0.4025
28129SOL    HW284966   6.444   6.244   3.814  0.5110  0.0904 -0.7619
28130SOL     OW84967   9.387   1.198   9.252 -0.2839  0.1630  0.0216
28130SOL    HW184968   9.415   1.258   9.183  1.7066  0.8741  1.3665
28130SOL    HW284969   9.325   1.249   9.304 -2.0891 -0.4983 -1.3702
28131SOL     OW84970   3.263   4.275   0.137  0.1296 -1.0921 -0.6417
28131SOL    HW184971   3.254   4.215   0.211 -0.9386 -1.0535 -0.7339
28131SOL    HW284972   3.176   4.313   0.126  0.8194  0.6167 -0.4775
28132SOL     OW84973   7.588   0.705   3.209 -0.2348  0.2170  0.0325
28132SOL    HW184974   7.676   0.737   3.194  0.3791 -1.0949  0.6456
28132SOL    HW284975   7.536   0.784   3.224  0.5801  1.0817 -1.4316
28133SOL     OW84976   6.288   4.170   4.135  0.2659  0.2594  0.2696
28133SOL    HW184977   6.328   4.256   4.150  1.0040 -0.3053  1.6696
28133SOL    HW284978   6.294   4.125   4.219 -1.6774 -0.5558  0.0374
28134SOL     OW84979   1.884   9.884   8.696  0.0864  0.1440  0.5147
28134SOL    HW184980   1.953   9.843   8.645 -0.0524  0.9938 -0.4139
28134SOL    HW284981   1.879   9.974   8.661 -0.4440  0.5621  1.6105
28135SOL     OW84982   2.792   0.938   7.736 -0.0537 -0.3686  0.3561
28135SOL    HW184983   2.848   0.910   7.809  1.8893  0.0383 -0.8953
28135SOL    HW284984   2.787   1.033   7.744  2.4225  0.0205 -1.4384
28136SOL     OW84985   6.416   4.959   8.733  0.0931  1.1485  0.2305
28136SOL    HW184986   6.390   4.949   8.825  0.2152  0.5370  0.2013
28136SOL    HW284987   6.495   5.014   8.737  2.1131 -1.5520  0.8099
28137SOL     OW84988   7.295   4.639   7.940  0.1791  0.3697 -0.3671
28137SOL    HW184989   7.369   4.579   7.924  0.1742  0.4947 -0.8806
28137SOL    HW284990   7.218   4.582   7.941  0.3366  0.1392  0.8805
28138SOL     OW84991   6.587   4.053   8.864  0.5009  0.1363 -0.6124
28138SOL    HW184992   6.618   4.118   8.926  0.3980  0.2356 -0.6637
28138SOL    HW284993   6.537   4.103   8.799  2.0455  0.2687 -1.7475
28139SOL     OW84994   6.091   7.163   3.441  0.0106 -0.3448 -0.1527
28139SOL    HW184995   6.177   7.144   3.480  0.4303 -1.5517 -1.5555
28139SOL    HW284996   6.032   7.169   3.516  1.1596 -0.3987  0.7927
28140SOL     OW84997   9.433   7.404   4.986  0.1331  0.0916  0.3588
28140SOL    HW184998   9.354   7.424   4.936  0.0202  2.6403  1.4246
28140SOL    HW284999   9.462   7.488   5.021  2.9580 -0.8834  0.5861
28141SOL     OW85000   7.168   6.854   7.782 -0.1777 -0.1616  0.3319
28141SOL    HW185001   7.236   6.916   7.755 -0.1459 -1.0417 -1.8143
28141SOL    HW285002   7.201   6.768   7.755 -2.1041 -0.6184 -0.7545
28142SOL     OW85003   3.752   7.323   2.376 -0.0309  0.3757  0.1382
28142SOL    HW185004   3.722   7.346   2.464  0.0551 -0.1932  0.3222
28142SOL    HW285005   3.733   7.229   2.369  1.0320  0.1642 -0.0154
28143SOL     OW85006   3.571   7.637   1.557  0.4885  0.3496 -0.6618
28143SOL    HW185007   3.571   7.697   1.483 -1.0351  1.0797 -0.1118
28143SOL    HW285008   3.557   7.693   1.633 -1.2022 -0.7026 -0.1542
28144SOL     OW85009   6.676   2.311   5.739  0.0282 -0.2913 -0.0875
28144SOL    HW185010   6.653   2.379   5.676 -0.6026 -0.0236  0.4171
28144SOL    HW285011   6.631   2.336   5.819 -0.0217 -1.1798  0.1789
28145SOL     OW85012   3.705   4.661   5.200  0.0825 -0.0908 -0.1771
28145SOL    HW185013   3.611   4.668   5.218 -0.1211 -2.0164 -0.1990
28145SOL    HW285014   3.711   4.591   5.134  1.4462  0.9301 -1.1825
28146SOL     OW85015   2.654   9.078   5.233  0.4302  0.3818 -0.0538
28146SOL    HW185016   2.734   9.026   5.225  0.0773 -0.5269  1.7624
28146SOL    HW285017   2.590   9.018   5.272 -0.8035  1.4356 -0.3700
28147SOL     OW85018   1.082   0.098   4.688  0.0202 -0.4666 -1.3509
28147SOL    HW185019   1.101   0.162   4.619 -2.7706  1.5231 -0.4355
28147SOL    HW285020   1.005   0.050   4.656 -2.1216  1.3557  0.7688
28148SOL     OW85021   2.366   6.749   8.688  0.2748 -0.3580 -1.2012
28148SOL    HW185022   2.397   6.658   8.696  1.9346  0.2579 -0.0018
28148SOL    HW285023   2.271   6.741   8.682  0.2501 -2.1450  0.4107
28149SOL     OW85024   2.502   4.892   1.239  0.5753 -0.2680 -0.0338
28149SOL    HW185025   2.544   4.944   1.171  0.5975  0.0185  0.1992
28149SOL    HW285026   2.568   4.884   1.308  0.6545 -0.8003 -0.1656
28150SOL     OW85027   6.179  -0.024   7.222 -0.5150 -0.3995 -0.8431
28150SOL    HW185028   6.114  -0.009   7.292 -0.7113 -0.6362 -0.9730
28150SOL    HW285029   6.217   0.062   7.207  2.7545 -0.9558  2.6385
28151SOL     OW85030   5.940   6.409   7.426  0.0327  0.4020  0.0405
28151SOL    HW185031   5.947   6.313   7.423 -0.1434  0.3963 -0.2603
28151SOL    HW285032   6.028   6.439   7.450  0.1153  0.1675  0.0341
28152SOL     OW85033   5.514   3.020   3.262 -0.3717  0.1084 -0.0839
28152SOL    HW185034   5.588   3.061   3.305  0.7224 -0.7797 -1.0536
28152SOL    HW285035   5.451   3.002   3.332  1.4045 -1.4343  1.2082
28153SOL     OW85036   4.612   6.841   0.814 -0.3514  0.1780 -0.1570
28153SOL    HW185037   4.596   6.935   0.825 -1.4363 -0.0407  0.3174
28153SOL    HW285038   4.546   6.813   0.751  0.9451 -0.0041 -1.4838
28154SOL     OW85039   8.560   5.882   9.953 -0.3232 -0.3757 -0.5924
28154SOL    HW185040   8.647   5.867   9.991 -0.9435 -2.5165  0.1721
28154SOL    HW285041   8.562   5.834   9.870 -0.5116  0.2722 -0.9762
28155SOL     OW85042   8.101   2.379   2.919 -0.3926 -0.5306 -0.0800
28155SOL    HW185043   8.145   2.309   2.967 -1.0329 -0.0981  1.1835
28155SOL    HW285044   8.103   2.454   2.978 -1.2662  0.0099 -0.7054
28156SOL     OW85045   2.273   1.146   3.486 -0.6447 -0.5437 -0.1201
28156SOL    HW185046   2.353   1.197   3.502 -1.5951  0.9611  0.0324
28156SOL    HW285047   2.295   1.058   3.517  0.3517  0.2693  1.7181
28157SOL     OW85048   0.159   2.703   2.890 -0.1722  0.3791 -0.4161
28157SOL    HW185049   0.112   2.622   2.870  1.5661 -0.4331 -1.4633
28157SOL    HW285050   0.135   2.724   2.980 -3.4610  0.7241 -1.2316
28158SOL     OW85051   7.670   9.538   4.274  0.2536  0.2536  0.2186
28158SOL    HW185052   7.672   9.525   4.369  1.7542 -0.7833  0.0834
28158SOL    HW285053   7.594   9.594   4.259  0.1541  0.6805  2.0596
28159SOL     OW85054   1.561   9.054   1.157  0.3718  0.3265 -0.0524
28159SOL    HW185055   1.555   9.138   1.111 -1.2823 -0.5532 -1.5986
28159SOL    HW285056   1.645   9.017   1.127  0.2173  0.6119 -0.8816
28160SOL     OW85057   5.117   6.526   6.931  0.0971 -0.0335 -0.0691
28160SOL    HW185058   5.163   6.459   6.982  0.5139  0.1666 -0.1744
28160SOL    HW285059   5.101   6.484   6.846 -0.8878 -0.4800  0.3207
28161SOL     OW85060   1.661   8.185   8.842  0.0678  0.7682  0.3505
28161SOL    HW185061   1.612   8.210   8.920  1.4571  2.3321  0.7608
28161SOL    HW285062   1.752   8.207   8.861  0.7751 -0.7530 -0.9305
28162SOL     OW85063   6.414   8.668   0.544 -0.3050  0.0186  0.1968
28162SOL    HW185064   6.369   8.751   0.560 -0.4454  0.2892 -1.4204
28162SOL    HW285065   6.507   8.689   0.553 -0.0609  1.2903 -3.5041
28163SOL     OW85066   7.916   6.149   5.308  0.0354  0.7579 -0.0960
28163SOL    HW185067   7.989   6.181   5.362  0.1245  1.4916 -0.6321
28163SOL    HW285068   7.902   6.219   5.244 -0.3169  0.0636 -0.7849
28164SOL     OW85069   6.547   7.496   8.136  0.0245 -0.1274 -0.2217
28164SOL    HW185070   6.522   7.542   8.057  0.5118 -1.0435 -0.9256
28164SOL    HW285071   6.520   7.554   8.207  0.5189  1.1852 -1.0705
28165SOL     OW85072   6.916   1.781   5.613  0.2156 -0.0472 -0.1377
28165SOL    HW185073   6.971   1.830   5.674 -1.0365  1.4167 -0.1318
28165SOL    HW285074   6.883   1.847   5.552 -0.9316 -1.0047 -0.5963
28166SOL     OW85075   5.557   3.082   1.028  0.0382  0.2227 -0.1202
28166SOL    HW185076   5.473   3.118   0.999  0.1507  0.5512 -0.0391
28166SOL    HW285077   5.622   3.127   0.974  0.2985  1.2399  0.9981
28167SOL     OW85078   9.416   7.440   7.986  0.3339 -0.3679  0.8912
28167SOL    HW185079   9.407   7.346   7.969 -3.3923 -0.0439  0.1707
28167SOL    HW285080   9.510   7.455   7.989  1.0949 -3.8209 -0.6944
28168SOL     OW85081  -0.016   2.337   0.730  0.4218 -0.2090  0.0501
28168SOL    HW185082   0.069   2.350   0.687 -0.3482  0.8573 -1.2225
28168SOL    HW285083  -0.012   2.247   0.761  1.6854 -0.4853 -0.7804
28169SOL     OW85084   9.457   8.421   8.506  0.1235 -0.2628 -0.5215
28169SOL    HW185085   9.525   8.477   8.467  0.8078  0.1084  1.1323
28169SOL    HW285086   9.491   8.332   8.494  0.2209 -0.1678 -0.9712
28170SOL     OW85087   0.400   4.185   4.657 -0.1088  0.0349 -0.7892
28170SOL    HW185088   0.431   4.102   4.693 -0.7890  0.2857  0.4487
28170SOL    HW285089   0.405   4.173   4.562 -1.1621 -1.8039 -0.6659
28171SOL     OW85090   7.805   2.665  -0.008  0.1645  0.1264 -0.1155
28171SOL    HW185091   7.847   2.631   0.071  2.3297  2.9550  0.1214
28171SOL    HW285092   7.722   2.702   0.023 -0.1091 -0.8444  0.3608
28172SOL     OW85093   1.665   1.315   0.728  0.2289  0.2331  0.0813
28172SOL    HW185094   1.641   1.312   0.821  1.7210  3.2435  0.7019
28172SOL    HW285095   1.603   1.377   0.689 -0.5427 -1.1840 -1.0587
28173SOL     OW85096   3.415   7.742   0.803  0.2334  0.1127 -0.1668
28173SOL    HW185097   3.487   7.735   0.866  0.6238  0.8225 -0.5254
28173SOL    HW285098   3.345   7.689   0.841  0.8566 -0.3922  0.3046
28174SOL     OW85099   0.191   3.444   0.729 -0.0005 -0.1685  0.4365
28174SOL    HW185100   0.268   3.434   0.673  0.7338 -1.0204  1.5536
28174SOL    HW285101   0.211   3.393   0.807 -0.9348  1.0693  1.5433
28175SOL     OW85102   1.482   7.597   7.899  0.5399  0.9087 -0.4133
28175SOL    HW185103   1.531   7.538   7.841  0.0313 -0.9410  0.9695
28175SOL    HW285104   1.541   7.614   7.972 -0.0364  0.4892  0.1611
28176SOL     OW85105   3.064   0.164   5.255 -0.1563  0.4398  0.1168
28176SOL    HW185106   2.974   0.179   5.284 -0.9067 -1.2954 -1.1207
28176SOL    HW285107   3.076   0.224   5.182 -0.2948  0.6899  0.2977
28177SOL     OW85108   4.509   2.543   3.502 -0.0688  0.2508 -0.5382
28177SOL    HW185109   4.486   2.624   3.549 -0.2502  0.1668 -0.4829
28177SOL    HW285110   4.574   2.571   3.438 -1.5053  0.8011 -1.8137
28178SOL     OW85111   9.300   7.975   6.108 -0.4475 -0.5475  1.0133
28178SOL    HW185112   9.340   8.063   6.111 -1.0582 -0.2631  0.9097
28178SOL    HW285113   9.223   7.982   6.164 -0.0750 -1.2429  1.6358
28179SOL     OW85114   8.228   6.342   5.955  0.4384 -0.2395 -0.6080
28179SOL    HW185115   8.227   6.412   6.020 -0.7446 -0.0129 -0.8458
28179SOL    HW285116   8.190   6.267   6.000 -0.4482 -0.0628 -1.0493
28180SOL     OW85117   6.698   8.055   9.575  0.3726  0.1837  0.0391
28180SOL    HW185118   6.676   7.977   9.625  0.8222  0.1620  0.2037
28180SOL    HW285119   6.619   8.073   9.523  0.8940 -1.4930 -1.4461
28181SOL     OW85120   8.249   4.326   3.825  0.4742 -0.5057  0.1698
28181SOL    HW185121   8.212   4.249   3.782 -0.2916  0.3711 -0.8174
28181SOL    HW285122   8.272   4.385   3.753  1.0939  0.1658  0.8950
28182SOL     OW85123   9.453   8.270   1.761  0.0543  0.1964 -0.4582
28182SOL    HW185124   9.416   8.304   1.680 -0.2161  0.3991 -0.2532
28182SOL    HW285125   9.527   8.217   1.734 -0.7540 -0.7284 -0.9220
28183SOL     OW85126   8.052   3.502   4.891 -0.0156 -0.4897  0.4656
28183SOL    HW185127   8.132   3.463   4.926 -1.3762 -2.1404  1.8864
28183SOL    HW285128   8.026   3.444   4.819 -0.6305 -0.7381  0.8771
28184SOL     OW85129   6.117   2.950   0.540 -0.2383 -0.0620  0.1088
28184SOL    HW185130   6.090   3.041   0.524 -0.9713  0.0359  1.6792
28184SOL    HW285131   6.049   2.915   0.598  0.9687 -1.0615  0.9634
28185SOL     OW85132   8.011   0.203   5.575  0.5898 -0.2812 -0.2309
28185SOL    HW185133   8.102   0.210   5.606 -0.2118  1.8242  2.0402
28185SOL    HW285134   7.959   0.206   5.655 -1.5198 -2.0926 -1.4401
28186SOL     OW85135   1.376   9.696   2.161 -0.6192 -0.6802 -0.3451
28186SOL    HW185136   1.305   9.639   2.132 -1.5147 -1.7993  3.4526
28186SOL    HW285137   1.338   9.746   2.233  1.5177  1.2792 -0.4727
28187SOL     OW85138   5.999   8.572   4.626  0.8846  0.1366 -0.2885
28187SOL    HW185139   5.999   8.668   4.627  0.0052  0.1695 -0.9941
28187SOL    HW285140   5.996   8.546   4.718  0.8473  0.7967 -0.0999
28188SOL     OW85141   1.646   8.209   5.082  0.6341 -0.6954  0.2415
28188SOL    HW185142   1.676   8.118   5.079  0.8620 -0.6325  0.6267
28188SOL    HW285143   1.724   8.259   5.107  1.3914  0.0023 -3.0570
28189SOL     OW85144   0.332   7.337   4.080 -0.2314 -0.6085  0.7285
28189SOL    HW185145   0.356   7.254   4.040 -1.5239  0.2766 -2.1422
28189SOL    HW285146   0.414   7.387   4.083  0.2983 -1.4749  1.2921
28190SOL     OW85147   6.754   7.333   0.704 -0.0180 -0.4894 -0.5835
28190SOL    HW185148   6.787   7.253   0.747 -1.5169 -0.2974  1.0357
28190SOL    HW285149   6.670   7.307   0.666 -0.2749  0.1836 -0.4823
28191SOL     OW85150   3.237   0.668   5.615 -0.2250  0.0314 -0.6935
28191SOL    HW185151   3.244   0.703   5.704  0.6851  0.4624 -0.9316
28191SOL    HW285152   3.278   0.582   5.620  1.1615  0.6623 -1.0290
28192SOL     OW85153   5.841   9.553   6.356  0.4301 -0.2643 -0.5606
28192SOL    HW185154   5.768   9.510   6.310  0.2625 -0.0180 -0.5272
28192SOL    HW285155   5.878   9.484   6.411 -1.1833  0.1425  1.1406
28193SOL     OW85156   0.390   7.545   7.129 -0.1718  0.4525 -0.2821
28193SOL    HW185157   0.369   7.604   7.056 -0.9649 -1.1281 -1.4183
28193SOL    HW285158   0.321   7.479   7.125  0.1890 -0.0591  1.4909
28194SOL     OW85159   9.217   8.981   7.810  0.3892 -0.3801  0.3648
28194SOL    HW185160   9.301   8.937   7.798  0.5340  0.1436 -0.6434
28194SOL    HW285161   9.152   8.914   7.788  0.4951 -1.0768  2.0814
28195SOL     OW85162   8.510   0.308   4.423  0.3166  0.1901  0.1326
28195SOL    HW185163   8.517   0.403   4.415 -0.6512  0.1411 -1.9579
28195SOL    HW285164   8.453   0.282   4.351  0.9872 -2.0437  0.3300
28196SOL     OW85165   3.274   9.031   5.577 -0.0443  0.3859  0.2269
28196SOL    HW185166   3.277   9.122   5.546  0.4167  0.3617  0.1921
28196SOL    HW285167   3.321   9.033   5.660 -0.2653  0.2261  0.3569
28197SOL     OW85168   0.916   1.578   1.591 -0.1251 -0.3812  0.1070
28197SOL    HW185169   0.954   1.619   1.514 -1.3722  0.9713  0.1699
28197SOL    HW285170   0.865   1.504   1.556 -0.7864  0.2989 -0.3983
28198SOL     OW85171   8.846   6.476   3.811 -0.4392 -0.1414 -0.7111
28198SOL    HW185172   8.851   6.568   3.784  0.6607  0.2553  0.6957
28198SOL    HW285173   8.820   6.480   3.903  0.5026 -1.1817 -0.3781
28199SOL     OW85174   5.878   2.629   9.725  0.0259  0.3798  0.4642
28199SOL    HW185175   5.949   2.567   9.708  1.2434  1.9539 -0.5563
28199SOL    HW285176   5.878   2.641   9.819  0.1552 -0.7156  0.6166
28200SOL     OW85177   2.972   0.399   7.750 -0.3007  0.0888 -0.2489
28200SOL    HW185178   3.016   0.317   7.773  0.0763  0.2429 -0.4237
28200SOL    HW285179   2.891   0.398   7.801 -0.7569 -0.8441 -0.9425
28201SOL     OW85180   4.733   1.309   6.830 -0.5520  0.2914  0.0666
28201SOL    HW185181   4.821   1.283   6.805 -1.1187 -1.6316 -0.0351
28201SOL    HW285182   4.693   1.337   6.748 -1.1034 -2.1476 -0.5691
28202SOL     OW85183   5.305   9.707   9.645  0.7540  0.4090 -0.1037
28202SOL    HW185184   5.356   9.728   9.723  0.5594 -2.4592  0.9267
28202SOL    HW285185   5.215   9.730   9.668  0.6525 -0.6890  0.6903
28203SOL     OW85186   9.808   5.440   7.623 -0.3278  0.3013  0.1360
28203SOL    HW185187   9.722   5.465   7.589 -1.3419 -0.8449  1.7256
28203SOL    HW285188   9.830   5.360   7.575 -1.1311 -0.5569  1.1545
28204SOL     OW85189   6.022   9.793   1.927  0.4596  0.3065 -0.2259
28204SOL    HW185190   6.004   9.726   1.992  0.7781  0.5802  0.1520
28204SOL    HW285191   6.030   9.874   1.977 -2.1073  1.0470 -0.8857
28205SOL     OW85192   7.338   8.890   8.868 -0.0740 -0.2080 -0.2503
28205SOL    HW185193   7.416   8.909   8.815 -0.2422 -0.2249 -0.5013
28205SOL    HW285194   7.370   8.830   8.936  0.1061 -0.3071 -0.4224
28206SOL     OW85195   4.970   2.950   6.179  0.7411  0.4193 -0.5276
28206SOL    HW185196   4.907   2.984   6.116  1.0018  1.0962 -0.4365
28206SOL    HW285197   4.955   3.002   6.258 -0.2599 -1.0818  0.3150
28207SOL     OW85198   8.787   8.869   6.795 -0.5413 -0.5938 -0.1961
28207SOL    HW185199   8.803   8.816   6.717  0.0974  0.4615 -0.8162
28207SOL    HW285200   8.868   8.918   6.808 -0.7337 -0.5458  0.9837
28208SOL     OW85201   1.036   8.327   0.951  0.3220  0.1086  0.7906
28208SOL    HW185202   1.016   8.235   0.931  0.3577  0.4034 -0.7160
28208SOL    HW285203   1.127   8.338   0.926 -0.0751  0.8921 -0.3936
28209SOL     OW85204   0.122   4.476   0.537 -0.0721 -0.1380  0.1908
28209SOL    HW185205   0.146   4.405   0.478 -0.1059 -1.4357  1.6652
28209SOL    HW285206   0.088   4.544   0.480  3.3415  0.2426 -1.6938
28210SOL     OW85207   4.199   9.950   2.858 -0.5919  0.3664 -0.6045
28210SOL    HW185208   4.285   9.989   2.872 -1.2979  1.4349  1.0855
28210SOL    HW285209   4.167   9.991   2.778  0.6671 -0.4553 -1.5597
28211SOL     OW85210   6.066   2.363   3.305 -0.0243  0.2845 -0.1192
28211SOL    HW185211   6.105   2.414   3.376  1.4559 -0.1466 -0.5863
28211SOL    HW285212   5.975   2.395   3.299  0.0785  0.9113  1.3843
28212SOL     OW85213   4.435   5.921   4.112  0.5044  0.1345  0.7781
28212SOL    HW185214   4.403   5.938   4.023 -1.4089 -0.3063  1.3398
28212SOL    HW285215   4.504   5.855   4.100 -1.2109 -1.5954 -0.2454
28213SOL     OW85216   9.888   2.843   9.222 -0.5753 -0.0206  0.1112
28213SOL    HW185217   9.957   2.901   9.191 -1.1646  0.5157 -0.2324
28213SOL    HW285218   9.934   2.769   9.261  0.1884  0.2531 -0.2510
28214SOL     OW85219   9.010   6.241   1.718 -0.1033 -0.0573  0.6222
28214SOL    HW185220   9.055   6.159   1.736 -0.0843 -0.1625  0.1097
28214SOL    HW285221   8.959   6.223   1.639 -2.8881 -0.6684  2.4313
28215SOL     OW85222   0.164   4.371   7.025 -0.1094 -0.6285  0.3904
28215SOL    HW185223   0.135   4.432   6.957  0.3056  2.1549  2.5482
28215SOL    HW285224   0.086   4.355   7.079  0.1187 -0.8957  0.6502
28216SOL     OW85225   3.638   5.135   8.527  0.1790 -0.6261 -0.5016
28216SOL    HW185226   3.678   5.055   8.561  0.4169 -1.3220 -2.2601
28216SOL    HW285227   3.679   5.206   8.576  1.6809 -1.4709 -0.4842
28217SOL     OW85228   5.905   5.755   4.891  0.0033 -0.1455 -0.7372
28217SOL    HW185229   5.856   5.673   4.883 -0.4580 -0.0777  1.0412
28217SOL    HW285230   5.995   5.728   4.905  0.3020 -0.2846 -2.6634
28218SOL     OW85231   9.878   8.065   9.774 -0.8275 -0.5015  0.3792
28218SOL    HW185232   9.851   7.982   9.735 -0.5475 -1.2238  1.6714
28218SOL    HW285233   9.818   8.078   9.847  1.7282 -1.7988  2.9093
28219SOL     OW85234   5.488   4.347   2.674 -0.0856 -0.0025 -0.1934
28219SOL    HW185235   5.547   4.377   2.605 -0.3952 -0.0990 -0.5042
28219SOL    HW285236   5.540   4.286   2.727  0.2226  0.2519 -0.2001
28220SOL     OW85237   0.633   2.872   9.308  0.1882 -0.1244 -0.6268
28220SOL    HW185238   0.695   2.841   9.373  2.0812  0.4016 -2.1010
28220SOL    HW285239   0.556   2.816   9.319  0.7759 -0.6219  1.4176
28221SOL     OW85240   5.078   2.011   8.097  0.1353  0.2222  0.3812
28221SOL    HW185241   5.143   1.990   8.163 -0.1745 -0.6938  0.4174
28221SOL    HW285242   5.123   2.069   8.036  1.3642 -1.3110 -0.2375
28222SOL     OW85243   6.022   2.626   7.453  0.0342  0.1008  0.1651
28222SOL    HW185244   6.033   2.632   7.358  0.9553 -0.9635  0.1801
28222SOL    HW285245   5.963   2.698   7.475 -0.1374  0.4068 -1.2005
28223SOL     OW85246   7.161   5.628   4.781  0.3080  0.2178  0.6994
28223SOL    HW185247   7.153   5.538   4.813 -0.2339 -0.3081 -0.8459
28223SOL    HW285248   7.082   5.671   4.811 -1.7264 -1.0911 -2.3199
28224SOL     OW85249   6.153   0.173   8.603  0.0418 -0.2735 -0.1376
28224SOL    HW185250   6.124   0.230   8.674  1.4711 -0.9548  1.0295
28224SOL    HW285251   6.248   0.187   8.598 -0.0526  0.0057 -2.1611
28225SOL     OW85252   2.244   2.162   5.157  0.1790 -0.3004  0.7355
28225SOL    HW185253   2.240   2.228   5.227 -0.9980 -0.5903  0.9660
28225SOL    HW285254   2.261   2.213   5.078  2.7458 -0.0782  1.3368
28226SOL     OW85255   8.648   6.333   8.660 -0.0254 -0.2557 -0.3505
28226SOL    HW185256   8.636   6.403   8.725  3.3097  0.3297 -0.1955
28226SOL    HW285257   8.577   6.271   8.678 -1.6922  1.9106  1.0622
28227SOL     OW85258   4.040   4.228   3.385 -0.3548 -0.2015 -0.2650
28227SOL    HW185259   4.000   4.141   3.384  0.1815 -0.4520 -0.5645
28227SOL    HW285260   4.041   4.253   3.478  0.2436 -0.8760 -0.0840
28228SOL     OW85261   5.309   5.249   0.496 -0.5378 -0.2678 -0.6949
28228SOL    HW185262   5.328   5.193   0.420  2.1629  0.2506 -0.4908
28228SOL    HW285263   5.252   5.317   0.461 -1.3843 -1.4256 -1.6547
28229SOL     OW85264   1.503   4.666   5.490 -0.0987 -0.1931  0.1625
28229SOL    HW185265   1.422   4.679   5.539 -1.0223 -0.3255 -1.2653
28229SOL    HW285266   1.560   4.737   5.517 -1.6557  1.4429 -0.6745
28230SOL     OW85267   3.487   7.363   2.475  0.0817  0.4795  0.7687
28230SOL    HW185268   3.404   7.385   2.518 -0.2177  1.7133 -0.3735
28230SOL    HW285269   3.484   7.409   2.391  1.4047 -0.4420  0.1734
28231SOL     OW85270   7.641   0.756   7.624  0.0301  0.3217 -0.4010
28231SOL    HW185271   7.717   0.711   7.589  0.3150  1.0587 -0.7502
28231SOL    HW285272   7.616   0.819   7.556 -0.9243  0.0523 -0.3162
28232SOL     OW85273   2.869   7.197   8.503  0.4390 -0.1444  0.0420
28232SOL    HW185274   2.939   7.246   8.459 -0.1586  0.1573 -0.5859
28232SOL    HW285275   2.812   7.169   8.432 -2.7102  3.5884  0.7770
28233SOL     OW85276   4.260   2.283   6.252  0.9839 -0.3141 -0.2969
28233SOL    HW185277   4.312   2.362   6.239  0.2100  0.0361 -1.3816
28233SOL    HW285278   4.319   2.222   6.297  2.3282  0.0575 -1.5079
28234SOL     OW85279   7.027   2.148   0.630 -0.5538  0.3575  0.3025
28234SOL    HW185280   7.074   2.181   0.553  0.6966  0.7393  1.1856
28234SOL    HW285281   6.965   2.218   0.652  2.2357  2.4642  2.2963
28235SOL     OW85282   5.376   8.430   9.547  0.0634 -0.1292  0.2470
28235SOL    HW185283   5.372   8.358   9.484 -0.1332  0.5474 -0.5245
28235SOL    HW285284   5.399   8.387   9.630  0.3584 -1.0295 -0.2778
28236SOL     OW85285   0.036   3.214   2.468  0.5267 -0.2263  0.1380
28236SOL    HW185286  -0.027   3.269   2.421  1.7675 -0.8475 -2.4589
28236SOL    HW285287   0.107   3.274   2.493  1.5739 -0.4216 -2.1201
28237SOL     OW85288   6.789   6.666  -0.005  0.2076  0.7932  0.2179
28237SOL    HW185289   6.868   6.620   0.024  0.1953  1.5664  1.5848
28237SOL    HW285290   6.803   6.757   0.022 -0.3398  1.3397 -1.2410
28238SOL     OW85291   3.190   2.209   1.508 -0.2862 -0.2924 -0.1051
28238SOL    HW185292   3.128   2.139   1.485  1.8189 -2.2894 -0.0959
28238SOL    HW285293   3.194   2.207   1.603 -0.3626 -0.0071 -0.0954
28239SOL     OW85294   9.342   9.401   4.828 -0.3364 -0.3135  0.3245
28239SOL    HW185295   9.428   9.386   4.789 -0.4022  0.3967 -0.1191
28239SOL    HW285296   9.360   9.428   4.918  0.0556  1.9699 -0.3691
28240SOL     OW85297   8.468   0.653   2.125 -0.3071 -0.1039  0.3629
28240SOL    HW185298   8.536   0.718   2.110 -1.0927  0.9661  1.2933
28240SOL    HW285299   8.474   0.594   2.049  0.7462  0.7476 -0.2436
28241SOL     OW85300   7.055   6.097   0.987  0.9918 -0.2720 -0.0261
28241SOL    HW185301   7.075   6.070   1.077 -0.6007  0.6482  0.6438
28241SOL    HW285302   6.963   6.121   0.989  1.4482  1.8719 -1.3936
28242SOL     OW85303   4.345   2.847   3.694 -0.0374  0.0066  0.5494
28242SOL    HW185304   4.308   2.854   3.782  2.4396 -2.2036  1.9428
28242SOL    HW285305   4.433   2.884   3.702  0.8581 -1.7577 -0.4937
28243SOL     OW85306   4.128   0.487   9.485  0.6349 -0.1459  0.5056
28243SOL    HW185307   4.112   0.500   9.579 -0.7919  0.1722  0.2428
28243SOL    HW285308   4.122   0.574   9.447  0.4413 -0.3736  0.0115
28244SOL     OW85309   4.414   3.312   4.720 -0.5353  0.0908  0.4544
28244SOL    HW185310   4.346   3.314   4.787 -0.0374  0.9804  0.9443
28244SOL    HW285311   4.418   3.401   4.686 -0.7760 -0.3431 -0.7757
28245SOL     OW85312   0.768   5.233   2.627  0.3811  0.3602 -0.5475
28245SOL    HW185313   0.781   5.148   2.585  0.4206  0.4985 -0.8147
28245SOL    HW285314   0.734   5.290   2.558  0.7284  0.6681 -0.4687
28246SOL     OW85315   0.406   1.817   9.362  0.1206  0.3062 -0.0781
28246SOL    HW185316   0.411   1.835   9.268 -0.1058  0.2300 -0.1071
28246SOL    HW285317   0.352   1.738   9.368  1.4809 -0.6510  0.0045
28247SOL     OW85318   1.726   5.962   5.991 -0.4498 -0.3908  0.2618
28247SOL    HW185319   1.751   5.976   5.900 -0.9883  1.7303  0.3887
28247SOL    HW285320   1.809   5.950   6.038 -0.1724 -1.4861 -0.4749
28248SOL     OW85321   5.343   2.822   9.223 -0.5557  0.0801 -0.2935
28248SOL    HW185322   5.270   2.876   9.192 -1.2873  0.0684  1.2930
28248SOL    HW285323   5.344   2.836   9.318  0.0943 -1.6440 -0.0101
28249SOL     OW85324   8.907   3.101   7.600 -0.1045 -0.5003 -0.3321
28249SOL    HW185325   8.968   3.083   7.671 -0.5518  0.0598  0.2093
28249SOL    HW285326   8.902   3.197   7.596 -0.2647 -0.5263 -0.9680
28250SOL     OW85327   6.271   6.199   3.789 -0.0220 -0.1895  0.2148
28250SOL    HW185328   6.192   6.209   3.736  1.1731 -0.9217 -1.8095
28250SOL    HW285329   6.241   6.212   3.879 -1.9395  2.3168 -0.6661
28251SOL     OW85330   8.661   0.161   1.393  0.2533 -0.2536  0.3309
28251SOL    HW185331   8.612   0.144   1.313  2.4674  0.3051 -1.2230
28251SOL    HW285332   8.735   0.216   1.366  1.2824 -0.3283  2.6884
28252SOL     OW85333   2.891   3.097   0.785 -0.3369 -0.6092  0.5183
28252SOL    HW185334   2.809   3.133   0.818 -1.4693  0.4993 -3.1282
28252SOL    HW285335   2.883   3.003   0.798 -1.1243 -0.3346  2.2826
28253SOL     OW85336   9.080   0.418   9.323 -0.8973  0.0786 -0.7145
28253SOL    HW185337   9.006   0.443   9.268  0.3462 -0.0021 -2.5314
28253SOL    HW285338   9.155   0.418   9.263  1.0519  2.5043  1.5031
28254SOL     OW85339   0.114   2.678   0.248 -0.2230  0.1476  0.0109
28254SOL    HW185340   0.104   2.767   0.281 -1.0206  0.2676 -0.5261
28254SOL    HW285341   0.174   2.687   0.174  1.5841 -0.1255  1.3691
28255SOL     OW85342   4.135   8.456   0.564  0.7721  0.6594 -0.1709
28255SOL    HW185343   4.188   8.533   0.545 -0.1509  1.6430  1.0210
28255SOL    HW285344   4.182   8.383   0.524  1.8399  1.7932 -1.0513
28256SOL     OW85345   0.743   2.648   9.437 -0.7132  0.6270 -0.4514
28256SOL    HW185346   0.744   2.569   9.382 -2.7559 -0.6973  1.2510
28256SOL    HW285347   0.740   2.614   9.527 -0.7092  2.6832  0.3696
28257SOL     OW85348   4.024   0.973   1.257  0.0046  0.4288  1.0252
28257SOL    HW185349   3.942   0.950   1.212  0.7646  0.0199 -0.2013
28257SOL    HW285350   4.024   1.069   1.259 -0.8113  0.4281  1.6445
28258SOL     OW85351   2.030   7.171   2.758 -0.1353  0.2697  0.1001
28258SOL    HW185352   1.950   7.144   2.804 -0.9739 -1.3909 -2.1745
28258SOL    HW285353   2.088   7.199   2.828 -2.0042 -0.3099  2.0174
28259SOL     OW85354   3.684   2.775   5.782  0.2929 -0.0867  0.3209
28259SOL    HW185355   3.772   2.750   5.810  0.8130  0.2682 -0.9170
28259SOL    HW285356   3.698   2.843   5.716 -0.8995 -0.2624 -0.1435
28260SOL     OW85357   9.797   5.496   9.268  0.0969  0.6438 -0.2072
28260SOL    HW185358   9.769   5.565   9.328  0.6473 -0.7434  1.7821
28260SOL    HW285359   9.734   5.425   9.283  1.6088 -0.6083  0.5698
28261SOL     OW85360   8.770   2.238   9.232 -0.6267 -0.1061 -0.1005
28261SOL    HW185361   8.712   2.177   9.277 -1.1104  0.4026 -0.0292
28261SOL    HW285362   8.858   2.202   9.246 -0.8253 -0.3021  0.6928
28262SOL     OW85363   1.022   0.914   5.253 -0.3194  0.7719  0.0268
28262SOL    HW185364   1.075   0.885   5.327 -0.8662  0.7541  0.4248
28262SOL    HW285365   1.083   0.920   5.180  0.3196  1.2134  0.5792
28263SOL     OW85366   2.431   8.472   8.239  0.4837  0.0847 -0.0278
28263SOL    HW185367   2.428   8.440   8.149  0.1309  1.6577 -0.6102
28263SOL    HW285368   2.352   8.436   8.280 -0.9957  1.7586 -1.2469
28264SOL     OW85369   3.750   8.401   9.680  0.7087 -0.2749 -0.0286
28264SOL    HW185370   3.692   8.368   9.612  1.4082  1.0704 -1.3506
28264SOL    HW285371   3.692   8.442   9.744  0.1556  1.3725 -1.5089
28265SOL     OW85372   6.692   2.802   7.343 -0.1042 -0.1528 -0.3850
28265SOL    HW185373   6.613   2.842   7.380  1.1141  0.7557  1.4425
28265SOL    HW285374   6.713   2.731   7.403  1.5327  0.8908  0.3622
28266SOL     OW85375   9.975   3.787   3.156  0.8338 -0.0309 -0.5173
28266SOL    HW185376   9.914   3.738   3.211  0.8661  0.6835  0.1770
28266SOL    HW285377   9.958   3.756   3.067  2.5108 -3.0892  0.0871
28267SOL     OW85378   4.236   0.272   9.366  0.2649  0.0045  0.1459
28267SOL    HW185379   4.185   0.192   9.373  0.8905 -0.3422  0.9294
28267SOL    HW285380   4.183   0.338   9.411 -1.3793  0.6397 -2.5577
28268SOL     OW85381   1.472   9.853   9.443 -1.0889  0.7030 -0.1432
28268SOL    HW185382   1.496   9.775   9.393  1.1152 -0.0049  1.8270
28268SOL    HW285383   1.400   9.824   9.499 -1.2806  0.5155 -0.4851
28269SOL     OW85384   8.632   8.714   8.152  0.0171 -0.0132 -0.2754
28269SOL    HW185385   8.650   8.727   8.059 -0.8662  0.1896 -0.4318
28269SOL    HW285386   8.563   8.778   8.172  1.1062  0.8813  0.8431
28270SOL     OW85387   1.280   1.043   1.199  0.4661  0.3765  0.0286
28270SOL    HW185388   1.284   0.966   1.142  0.1513  0.0214  0.4769
28270SOL    HW285389   1.338   1.107   1.157  1.4481 -0.4242  0.1292
28271SOL     OW85390   1.220   7.991   4.928  0.1835  0.3517  0.2630
28271SOL    HW185391   1.181   8.068   4.970 -1.3094  0.5501 -1.3670
28271SOL    HW285392   1.299   8.024   4.886 -0.2549  0.9469 -0.1225
28272SOL     OW85393   3.823   0.475   9.000  0.3338  0.6504  0.3071
28272SOL    HW185394   3.817   0.542   8.932  0.3718  0.6701  0.3224
28272SOL    HW285395   3.847   0.395   8.954  0.1785  0.6240  0.2739
28273SOL     OW85396   7.536   5.772   5.976 -0.0733  0.1044  0.3886
28273SOL    HW185397   7.622   5.813   5.988  0.5002 -0.3806 -1.7057
28273SOL    HW285398   7.511   5.743   6.063  1.9526  0.1404  1.0273
28274SOL     OW85399   1.333   7.236   7.340 -0.4197 -0.3351 -0.3717
28274SOL    HW185400   1.319   7.152   7.296  2.8294 -0.9661 -0.4361
28274SOL    HW285401   1.416   7.226   7.386 -1.1221  2.0811  1.6457
28275SOL     OW85402   0.204   9.727   6.424  0.1014 -0.4086  0.5559
28275SOL    HW185403   0.165   9.640   6.414  1.1496 -1.0047  1.4353
28275SOL    HW285404   0.183   9.753   6.514 -0.8735  0.6133  0.0601
28276SOL     OW85405   4.894   2.890   2.603 -0.0064 -0.6698 -0.1737
28276SOL    HW185406   4.936   2.949   2.666  0.2907 -0.6082 -0.4339
28276SOL    HW285407   4.965   2.837   2.568 -0.1113 -0.4482 -0.7398
28277SOL     OW85408   0.429   1.030   2.678  0.1352  0.4962 -0.6697
28277SOL    HW185409   0.415   1.094   2.609 -1.0383  0.6033 -0.3472
28277SOL    HW285410   0.416   0.945   2.635 -1.0150  0.5734 -0.5214
28278SOL     OW85411   4.676   0.801   5.643  0.0735  0.5631 -0.1667
28278SOL    HW185412   4.748   0.767   5.696 -0.4341 -1.3093 -0.6071
28278SOL    HW285413   4.656   0.886   5.682 -0.0924 -0.6003  2.4952
28279SOL     OW85414   8.981   9.410   2.748 -0.4590  0.0557  0.0663
28279SOL    HW185415   9.033   9.480   2.708 -1.3581  0.6927  0.0071
28279SOL    HW285416   9.034   9.331   2.735 -0.4651  0.3301 -1.8885
28280SOL     OW85417   9.938   5.838   4.546  0.0369 -0.3633 -0.4857
28280SOL    HW185418   9.868   5.820   4.483 -0.2143  0.3354 -0.4129
28280SOL    HW285419  10.017   5.846   4.493 -0.0209 -0.6460 -0.6176
28281SOL     OW85420   3.053   2.283   6.495  0.2068 -0.1200  0.1181
28281SOL    HW185421   3.066   2.199   6.452 -2.6124 -0.5907 -0.0502
28281SOL    HW285422   2.958   2.289   6.506  0.2736  3.1697 -0.1082
28282SOL     OW85423   1.963   0.683   0.132  0.0286  0.2348  0.3538
28282SOL    HW185424   1.930   0.770   0.158  1.2983  0.6268  0.7475
28282SOL    HW285425   1.885   0.629   0.126 -0.6208  0.8871  2.1440
28283SOL     OW85426   4.215   5.868   1.524 -0.0802  0.1372 -0.3353
28283SOL    HW185427   4.258   5.931   1.467  0.2318  0.7092  0.5124
28283SOL    HW285428   4.263   5.874   1.607 -0.8044 -0.3383  0.1283
28284SOL     OW85429   9.734   2.621   2.692  0.1984  0.3921  0.0941
28284SOL    HW185430   9.678   2.663   2.626  1.5496  1.7575 -0.2168
28284SOL    HW285431   9.698   2.650   2.776 -1.5020 -1.3215  0.0448
28285SOL     OW85432   1.554   2.413   0.948  0.0881  0.1164 -0.8784
28285SOL    HW185433   1.550   2.483   1.013 -0.3121 -0.4896 -0.2429
28285SOL    HW285434   1.516   2.452   0.869 -0.4100  0.5164 -0.4468
28286SOL     OW85435   5.850   4.383   5.732 -0.4097  0.5420 -0.4174
28286SOL    HW185436   5.879   4.475   5.728 -0.5220  0.5452 -1.9507
28286SOL    HW285437   5.757   4.388   5.753 -0.2389  0.7381  0.3072
28287SOL     OW85438   1.230   1.761   6.828 -0.3994  0.2714 -0.2977
28287SOL    HW185439   1.309   1.809   6.853 -0.1129 -0.3572  0.0299
28287SOL    HW285440   1.252   1.722   6.743  0.6143 -2.0053  0.9247
28288SOL     OW85441   1.026   3.807   4.911 -0.1489 -0.4029  0.5499
28288SOL    HW185442   1.087   3.742   4.876 -1.1610 -0.4103 -1.3210
28288SOL    HW285443   0.941   3.762   4.910 -0.6523  0.5313  0.3948
28289SOL     OW85444   7.241   9.776   5.025 -0.2595  0.2918 -0.4459
28289SOL    HW185445   7.318   9.794   4.971  0.0950 -2.3743 -0.9841
28289SOL    HW285446   7.167   9.788   4.966 -0.0995  0.5010 -0.6090
28290SOL     OW85447   9.927   4.893   2.609 -0.0264 -0.5740  0.1991
28290SOL    HW185448   9.943   4.982   2.639  0.0578 -0.6969  0.5240
28290SOL    HW285449   9.924   4.900   2.514 -0.6024 -0.1293  0.2417
28291SOL     OW85450   8.833   2.128   4.186  0.1612  0.7576  0.0186
28291SOL    HW185451   8.888   2.111   4.262  1.3414 -0.4920 -1.0559
28291SOL    HW285452   8.842   2.050   4.132 -0.3746  1.7337 -1.5595
28292SOL     OW85453   6.067   0.424   2.024  0.4023 -0.3881  0.3804
28292SOL    HW185454   6.037   0.371   2.097  1.7054 -0.8909  0.5877
28292SOL    HW285455   6.158   0.396   2.009  0.2276 -0.1903 -1.3298
28293SOL     OW85456   8.266   7.114   6.634  0.1677 -0.2575  0.1355
28293SOL    HW185457   8.243   7.203   6.606 -2.7345 -0.4201  1.6343
28293SOL    HW285458   8.349   7.096   6.590 -0.7476  1.9482 -2.8652
28294SOL     OW85459   8.979   7.331   1.623  0.1042 -0.3633  0.7946
28294SOL    HW185460   8.940   7.387   1.690 -1.5985 -0.8754  0.3018
28294SOL    HW285461   9.066   7.311   1.655 -0.0573  0.7775  2.0281
28295SOL     OW85462   8.230   1.206   7.819  0.1734  0.7301  0.1448
28295SOL    HW185463   8.229   1.302   7.817  1.7923  0.7692  0.5416
28295SOL    HW285464   8.294   1.182   7.752  1.9248  0.0365  1.9745
28296SOL     OW85465   2.338   8.500   2.679 -0.2417 -0.0609 -0.1205
28296SOL    HW185466   2.274   8.492   2.750  0.8289 -1.2889  0.7423
28296SOL    HW285467   2.420   8.524   2.722  0.8944 -2.6712 -0.6246
28297SOL     OW85468   2.104   0.901   9.471  0.5088 -0.2999  0.0955
28297SOL    HW185469   2.168   0.905   9.543 -0.2479 -0.1438  0.7717
28297SOL    HW285470   2.078   0.992   9.457 -0.5773 -0.4996  0.7564
28298SOL     OW85471   3.852   4.080   5.993 -0.3395  0.0617  0.7954
28298SOL    HW185472   3.934   4.081   6.042  1.2008 -3.2454 -1.3122
28298SOL    HW285473   3.851   4.164   5.946  2.2158 -0.0180  0.4167
28299SOL     OW85474   0.235   5.055   4.096 -0.5423 -0.3066 -0.3034
28299SOL    HW185475   0.209   4.970   4.060 -0.2024 -0.5324 -0.0141
28299SOL    HW285476   0.152   5.096   4.121 -0.7182 -0.4927 -0.5678
28300SOL     OW85477  -0.008   1.852   2.008  0.0311  0.3695  0.1283
28300SOL    HW185478   0.083   1.857   1.979  0.0607 -0.3005  0.0806
28300SOL    HW285479  -0.007   1.786   2.078 -0.1130  1.6367  1.3645
28301SOL     OW85480   9.728   9.670   9.243 -0.3474 -0.1309  0.0059
28301SOL    HW185481   9.708   9.624   9.325  0.9925 -0.1352  0.3504
28301SOL    HW285482   9.654   9.650   9.186  0.4011 -3.2243 -0.0763
28302SOL     OW85483   3.586   0.407   3.035  0.2984  0.2903  0.1932
28302SOL    HW185484   3.640   0.485   3.049  0.4067  0.2092  0.2232
28302SOL    HW285485   3.646   0.333   3.043 -0.1798  0.0661  2.3491
28303SOL     OW85486   2.936   5.209   2.811 -0.1514 -0.4967 -0.5019
28303SOL    HW185487   3.020   5.188   2.771  0.0941  0.0734 -0.2906
28303SOL    HW285488   2.954   5.215   2.905 -0.3485  0.0004 -0.4933
28304SOL     OW85489   6.310   8.959   0.557  0.0313  0.2500 -0.1259
28304SOL    HW185490   6.264   9.005   0.628  0.0265  0.7258 -0.4281
28304SOL    HW285491   6.397   8.998   0.557  0.3837 -0.5139  0.3167
28305SOL     OW85492   6.884   4.342   9.439  0.3617  0.5831 -0.1209
28305SOL    HW185493   6.913   4.336   9.348 -0.3359 -0.9304 -0.2780
28305SOL    HW285494   6.791   4.363   9.433  0.1317 -0.3111  0.2144
28306SOL     OW85495   4.437   3.038   5.966  0.0560  0.3948 -0.1216
28306SOL    HW185496   4.360   3.006   6.013  0.7489 -0.1084  0.6969
28306SOL    HW285497   4.442   3.131   5.989  0.7344  0.0369  1.3615
28307SOL     OW85498   0.856   9.564   6.386 -0.0468 -1.0492  0.5901
28307SOL    HW185499   0.873   9.476   6.420  0.8427 -2.3999 -2.9074
28307SOL    HW285500   0.867   9.555   6.291 -1.1402  2.5997 -0.0194
28308SOL     OW85501   0.562   4.253   9.293 -0.0593 -0.3241 -0.1622
28308SOL    HW185502   0.502   4.209   9.354  1.3070 -1.1594  0.6200
28308SOL    HW285503   0.531   4.227   9.207 -0.3421 -1.4139  0.2506
28309SOL     OW85504   7.970   3.494   4.045  0.5260 -0.1257 -0.1317
28309SOL    HW185505   8.057   3.509   4.008  0.6223  1.5767  0.6703
28309SOL    HW285506   7.936   3.419   3.996  1.2576  1.0039 -2.5448
28310SOL     OW85507   3.913   9.074   0.429  0.2998  0.0376  0.3686
28310SOL    HW185508   3.973   9.134   0.385  1.6293 -0.2871  1.6545
28310SOL    HW285509   3.831   9.123   0.436  0.1251  0.2224 -2.0862
28311SOL     OW85510   5.740   0.685   5.472 -0.3170  0.7591 -0.1213
28311SOL    HW185511   5.783   0.640   5.400 -0.5979  0.3339 -0.0250
28311SOL    HW285512   5.665   0.729   5.432 -1.1648 -0.4551  0.0991
28312SOL     OW85513   9.132   8.517   0.359 -0.1516  0.7309  0.2995
28312SOL    HW185514   9.060   8.501   0.298 -0.2892  0.2437  0.5805
28312SOL    HW285515   9.209   8.525   0.304 -0.2181 -0.0472  0.0759
28313SOL     OW85516   8.111   8.791   7.847  0.3142  0.0213 -0.1375
28313SOL    HW185517   8.106   8.712   7.794  2.0502 -0.4098  0.2766
28313SOL    HW285518   8.197   8.829   7.826  0.0981  1.0408  0.6986
28314SOL     OW85519   9.617   9.636   8.652  0.4682 -0.7189  0.4445
28314SOL    HW185520   9.584   9.579   8.721  1.2833  0.7512  2.1003
28314SOL    HW285521   9.692   9.681   8.690  0.2621  0.9894 -1.0086
28315SOL     OW85522   4.236   6.598   0.222  0.3110  0.0467 -0.0621
28315SOL    HW185523   4.205   6.608   0.312  1.9270  2.7890  0.3029
28315SOL    HW285524   4.167   6.637   0.169 -1.4862 -3.1470 -0.3123
28316SOL     OW85525   8.663   4.446   5.147  0.3337  0.3520 -0.5578
28316SOL    HW185526   8.755   4.430   5.167  0.5538 -1.6419 -2.7579
28316SOL    HW285527   8.651   4.540   5.158  2.3244  0.4913  0.8341
28317SOL     OW85528   8.195   5.653   4.125 -0.1143 -0.1958  0.7460
28317SOL    HW185529   8.207   5.598   4.047  0.7383 -0.0869  0.7885
28317SOL    HW285530   8.102   5.645   4.146 -0.1230 -1.1397  0.3979
28318SOL     OW85531   2.585   6.326   7.364  0.3392  0.4395  0.4359
28318SOL    HW185532   2.490   6.336   7.366  0.2471  0.4876 -1.7923
28318SOL    HW285533   2.600   6.245   7.317  1.4213 -0.1713  1.7667
28319SOL     OW85534   8.801   3.253   5.379  0.5973  0.3815 -0.4132
28319SOL    HW185535   8.788   3.160   5.364  2.1575 -0.3916  2.3245
28319SOL    HW285536   8.729   3.296   5.332 -2.0351 -2.3821  0.7967
28320SOL     OW85537   4.702   9.930   1.648  0.7202 -0.2345  0.0677
28320SOL    HW185538   4.794   9.956   1.654  0.8655 -0.8435  0.5743
28320SOL    HW285539   4.703   9.843   1.609  0.5974 -1.4866  2.6259
28321SOL     OW85540   9.861   9.373   7.492 -0.0964  0.2021  0.0661
28321SOL    HW185541   9.935   9.433   7.494 -0.2725  0.4048  0.8081
28321SOL    HW285542   9.787   9.426   7.462 -0.1039  0.1806  0.0474
28322SOL     OW85543   7.616   0.267   5.842  0.4932  0.1115 -0.2142
28322SOL    HW185544   7.525   0.274   5.870  0.3578  2.4440 -0.9470
28322SOL    HW285545   7.610   0.236   5.752  0.4745 -0.4668 -0.0151
28323SOL     OW85546   2.432   8.560   3.094  0.0858 -0.2723 -0.0957
28323SOL    HW185547   2.470   8.605   3.019  0.4779 -0.3380  0.0581
28323SOL    HW285548   2.378   8.627   3.137  0.0415 -0.1715 -0.3051
28324SOL     OW85549   0.734   0.193   6.189  0.5092  0.9131 -0.1366
28324SOL    HW185550   0.667   0.226   6.250  0.7446  0.3925  0.4098
28324SOL    HW285551   0.688   0.127   6.137  0.9667 -0.5722  1.2841
28325SOL     OW85552   0.166   6.216   4.919  0.5814 -0.3154 -0.0673
28325SOL    HW185553   0.128   6.134   4.953  1.2048 -1.2400 -1.5079
28325SOL    HW285554   0.092   6.276   4.913  0.2575 -0.4338  1.8474
28326SOL     OW85555   7.338   5.690   3.058 -0.1954 -0.4946 -0.2905
28326SOL    HW185556   7.430   5.690   3.032 -0.1624  0.0372 -0.1823
28326SOL    HW285557   7.313   5.783   3.059 -0.5300 -0.5850  0.3782
28327SOL     OW85558   3.417  -0.002   3.518 -0.2095 -0.1889  0.2163
28327SOL    HW185559   3.508   0.018   3.497  0.4173 -1.9491  1.1278
28327SOL    HW285560   3.369   0.076   3.489  1.3970  0.2602 -1.4411
28328SOL     OW85561   3.889   9.365   7.094  0.1400 -0.3419 -0.0053
28328SOL    HW185562   3.935   9.304   7.037 -0.4704 -0.2496 -0.6101
28328SOL    HW285563   3.812   9.316   7.123  0.9198 -0.7428  1.5451
28329SOL     OW85564   0.817   0.888   2.495  0.3899 -0.0675  0.1400
28329SOL    HW185565   0.906   0.899   2.530  0.0259  1.1811  0.7134
28329SOL    HW285566   0.782   0.813   2.543  0.5207  0.5256  1.1992
28330SOL     OW85567   2.654   8.943   3.495  1.0521 -0.4001  0.3654
28330SOL    HW185568   2.742   8.956   3.532  0.4387  1.2552  1.3144
28330SOL    HW285569   2.603   9.017   3.527 -0.6486 -1.2083 -0.3673
28331SOL     OW85570   3.061   7.234   2.258  0.4211 -0.1836  0.1355
28331SOL    HW185571   3.066   7.208   2.166  0.3325 -0.6857  0.2719
28331SOL    HW285572   2.968   7.229   2.280  0.3520  0.6168  0.0606
28332SOL     OW85573   2.049   2.256   1.727  0.1642  0.0050 -0.4674
28332SOL    HW185574   1.967   2.264   1.776  1.4597  0.2913  1.8511
28332SOL    HW285575   2.110   2.314   1.774  1.9261 -0.8901 -1.5399
28333SOL     OW85576   6.217   2.331   3.035  0.0388 -0.5205  0.3512
28333SOL    HW185577   6.133   2.368   3.009  0.4465 -0.1842 -0.5739
28333SOL    HW285578   6.240   2.376   3.116  0.0087  0.4626 -0.1755
28334SOL     OW85579   2.621   3.936   4.570 -0.0530  0.8709  0.3312
28334SOL    HW185580   2.642   3.941   4.663  1.1520  0.7745  0.0732
28334SOL    HW285581   2.663   3.856   4.539  0.4333  1.4326 -0.5060
28335SOL     OW85582   8.352   8.215   1.681  0.3480 -0.3872 -0.0116
28335SOL    HW185583   8.438   8.254   1.665  0.5899 -1.2452 -0.9423
28335SOL    HW285584   8.359   8.174   1.767  1.3821 -1.7280 -0.7026
28336SOL     OW85585   0.275   4.498   2.604  0.1411 -0.2061  0.2544
28336SOL    HW185586   0.213   4.539   2.544  2.0743  0.7216 -1.2253
28336SOL    HW285587   0.304   4.569   2.661  1.2438 -0.1743 -0.3258
28337SOL     OW85588   8.746   3.624   2.280 -0.3352 -0.1228 -0.3479
28337SOL    HW185589   8.792   3.708   2.275  0.1733 -0.3397  0.5183
28337SOL    HW285590   8.679   3.629   2.212 -1.5638  1.7284  0.9108
28338SOL     OW85591   5.137   7.148   8.546  0.2182  0.0049  0.5301
28338SOL    HW185592   5.223   7.190   8.552  0.3373 -0.1357 -0.0798
28338SOL    HW285593   5.152   7.071   8.492 -0.5599  0.7279 -0.7681
28339SOL     OW85594   2.552   9.743   2.802 -0.3774 -0.1040  0.0946
28339SOL    HW185595   2.596   9.704   2.726 -0.5022  0.6698 -0.3859
28339SOL    HW285596   2.466   9.769   2.769 -0.2392  0.7205  0.3612
28340SOL     OW85597   3.737   3.380   3.186  0.0220  0.2328 -0.0280
28340SOL    HW185598   3.668   3.349   3.128  0.3651  1.7119 -1.2741
28340SOL    HW285599   3.690   3.417   3.261 -0.7161  2.7313 -1.5969
28341SOL     OW85600   0.751   0.756   7.452  0.0696  0.2739 -0.0239
28341SOL    HW185601   0.690   0.744   7.379  0.2654  0.3391 -0.2012
28341SOL    HW285602   0.703   0.808   7.516 -0.9203 -1.6787  0.9011
28342SOL     OW85603   2.477   1.454   6.682  0.4258  0.2846  0.2220
28342SOL    HW185604   2.571   1.451   6.666  0.8077  0.9512  2.0688
28342SOL    HW285605   2.461   1.387   6.749 -0.6198 -0.5294 -0.7746
28343SOL     OW85606   1.580   7.058   9.024 -0.2720 -0.0688 -0.1152
28343SOL    HW185607   1.559   7.141   9.066  0.6940 -0.2473  0.7771
28343SOL    HW285608   1.563   7.072   8.931  0.6548  1.3958 -0.0903
28344SOL     OW85609   5.584   8.236   9.021 -0.0637  0.1567  0.1310
28344SOL    HW185610   5.660   8.237   9.079 -0.2567  1.0186  0.3701
28344SOL    HW285611   5.619   8.204   8.937  0.2886 -0.7215  0.5974
28345SOL     OW85612   2.412   1.544   4.629  0.3587  0.3902  0.4299
28345SOL    HW185613   2.450   1.625   4.595  0.3161  0.4851  0.6068
28345SOL    HW285614   2.402   1.488   4.552  2.0162 -0.1235  0.5643
28346SOL     OW85615   0.045   4.233   1.961 -0.3774 -0.2673 -0.3622
28346SOL    HW185616   0.111   4.195   2.020 -0.2610 -1.5316 -1.2612
28346SOL    HW285617  -0.007   4.290   2.017  0.0270 -1.0522  0.8645
28347SOL     OW85618   7.557   6.613   3.165 -0.2096  0.3925  0.2041
28347SOL    HW185619   7.647   6.606   3.195 -0.4425  1.1365  1.1109
28347SOL    HW285620   7.512   6.540   3.208 -0.1047  0.1945 -0.0198
28348SOL     OW85621   5.976   2.567   4.775  0.0313  0.3942  0.5999
28348SOL    HW185622   5.925   2.489   4.794 -1.1886  0.6525 -1.3977
28348SOL    HW285623   5.939   2.634   4.832 -0.4062  0.0511  0.7226
28349SOL     OW85624   0.752   7.144   9.336 -0.5753 -0.4786  0.0622
28349SOL    HW185625   0.731   7.152   9.429  0.0449  0.0296  0.1633
28349SOL    HW285626   0.829   7.199   9.324 -0.8600 -0.2520 -0.8248
28350SOL     OW85627   0.328   8.752   1.794  0.4482 -0.1744  0.5662
28350SOL    HW185628   0.409   8.736   1.746  0.4563 -0.9544  0.8293
28350SOL    HW285629   0.310   8.845   1.780  0.7954 -0.2413 -0.4095
28351SOL     OW85630   3.600   5.828   9.838 -0.0600  0.0786  0.1136
28351SOL    HW185631   3.605   5.748   9.786  0.0212  0.4895 -0.5181
28351SOL    HW285632   3.692   5.851   9.856 -0.0011  0.9071 -1.0903
28352SOL     OW85633   4.420   8.019   1.383  0.2688 -0.5265 -0.9170
28352SOL    HW185634   4.373   8.019   1.467  1.2798 -1.3909 -0.3230
28352SOL    HW285635   4.508   7.987   1.405  1.0814  0.8486 -2.0442
28353SOL     OW85636   2.441   6.756   4.605 -0.3639 -0.1864  0.3653
28353SOL    HW185637   2.432   6.820   4.675 -0.1911 -0.6978  0.8593
28353SOL    HW285638   2.494   6.686   4.642  3.3942  1.3742 -1.5227
28354SOL     OW85639   7.561   0.496   3.037 -0.4420  0.5075 -0.2532
28354SOL    HW185640   7.480   0.453   3.067  0.2984 -0.9711 -0.2645
28354SOL    HW285641   7.591   0.547   3.112  0.8178 -2.2993  1.3152
28355SOL     OW85642   6.826   6.372   2.558 -0.6985  0.4494 -0.3288
28355SOL    HW185643   6.894   6.401   2.497 -0.0109  0.9635  0.6606
28355SOL    HW285644   6.796   6.452   2.600 -1.0240  0.0818  0.1512
28356SOL     OW85645   8.491   2.334   5.529 -0.3045 -0.2694  0.0989
28356SOL    HW185646   8.520   2.382   5.452  0.3238  0.9485  1.0580
28356SOL    HW285647   8.399   2.360   5.540 -0.7582 -1.3537 -0.8744
28357SOL     OW85648   0.136   1.893   4.723 -0.5691 -0.1363 -0.0548
28357SOL    HW185649   0.044   1.894   4.749 -0.7339 -1.5987 -0.4954
28357SOL    HW285650   0.150   1.978   4.682 -2.0600 -0.3448 -1.0738
28358SOL     OW85651   1.535   9.454   1.489 -0.3224  0.1207 -0.3660
28358SOL    HW185652   1.470   9.517   1.459 -0.4657  0.5191  0.7468
28358SOL    HW285653   1.485   9.392   1.543  0.1176  0.0924  0.0129
28359SOL     OW85654   1.102   2.668   0.479 -0.1993 -0.7325 -0.7346
28359SOL    HW185655   1.149   2.694   0.558  0.4228  0.6336 -1.5124
28359SOL    HW285656   1.063   2.583   0.500  1.5017 -1.2717  0.3887
28360SOL     OW85657   2.420   7.161   0.286 -0.2403  0.1021  0.7621
28360SOL    HW185658   2.495   7.209   0.250 -0.7842  2.4892  2.5938
28360SOL    HW285659   2.435   7.158   0.380 -3.0632  2.0199  1.4190
28361SOL     OW85660   9.214   7.821   6.908  0.0500 -0.5200 -0.3396
28361SOL    HW185661   9.186   7.811   6.999  3.1734  0.1849  0.8349
28361SOL    HW285662   9.252   7.909   6.905 -0.2520 -0.4209 -2.4233
28362SOL     OW85663   9.715   7.349   9.661 -0.2768  0.5729  0.7243
28362SOL    HW185664   9.774   7.284   9.700 -3.1889 -3.2183 -0.5636
28362SOL    HW285665   9.758   7.375   9.580  0.0991 -1.4877  0.2049
28363SOL     OW85666   1.905   8.142   1.749 -0.2869  0.3904  0.8575
28363SOL    HW185667   1.881   8.107   1.664 -0.7304 -0.5601  1.3615
28363SOL    HW285668   1.991   8.105   1.768 -0.7812 -0.5039  1.4158
28364SOL     OW85669   7.994   6.576   0.415  0.1879 -0.3661  0.0531
28364SOL    HW185670   8.066   6.578   0.353 -0.7497  1.2014 -1.0796
28364SOL    HW285671   7.927   6.522   0.373  0.0672 -0.4463  0.3415
28365SOL     OW85672   5.508   2.197   9.837 -0.2129  0.8327  0.0730
28365SOL    HW185673   5.554   2.190   9.921  0.4774  0.4270 -0.3335
28365SOL    HW285674   5.576   2.188   9.771 -1.0306 -1.4181 -0.5637
28366SOL     OW85675   0.213   7.132   7.611 -0.4627  0.1156 -0.0309
28366SOL    HW185676   0.234   7.047   7.650  0.4845 -0.4211 -1.6282
28366SOL    HW285677   0.138   7.114   7.554  0.7610 -0.0563 -1.6531
28367SOL     OW85678   4.407   4.103   0.383  0.2787 -0.3664 -0.1690
28367SOL    HW185679   4.416   4.189   0.343 -0.1915  0.7211  1.9462
28367SOL    HW285680   4.315   4.099   0.412  0.2404 -1.6636 -0.4075
28368SOL     OW85681   0.008   2.258   0.079  0.3656  0.3818  0.7775
28368SOL    HW185682  -0.023   2.291   0.163 -1.3229 -0.6736  0.6087
28368SOL    HW285683   0.034   2.168   0.096 -0.7759 -0.1097  0.0287
28369SOL     OW85684   1.224   8.087   3.441 -0.1724  0.1893  0.3645
28369SOL    HW185685   1.248   8.174   3.472  1.3120  0.8044 -2.1736
28369SOL    HW285686   1.129   8.089   3.434 -0.2780  1.0852  1.7107
28370SOL     OW85687   5.981   6.848   8.253 -0.1825 -0.1641 -0.0252
28370SOL    HW185688   6.000   6.896   8.172  0.4872 -0.6064 -0.1383
28370SOL    HW285689   6.050   6.875   8.313 -1.9271  1.9513  1.2246
28371SOL     OW85690   0.467   2.244   5.070  0.1732 -0.1964 -0.7788
28371SOL    HW185691   0.538   2.183   5.052  1.2231  1.2351 -1.7016
28371SOL    HW285692   0.501   2.301   5.139 -0.9178 -0.8016  0.3047
28372SOL     OW85693   0.138   9.614   1.142  0.2784  0.6073 -0.6750
28372SOL    HW185694   0.054   9.653   1.163 -1.1069 -2.7041  0.5583
28372SOL    HW285695   0.135   9.600   1.048 -0.6356  0.3952 -0.6233
28373SOL     OW85696   3.265   7.654   3.332 -0.1033 -0.0320  0.6414
28373SOL    HW185697   3.299   7.668   3.421  2.0153 -0.4939 -0.0358
28373SOL    HW285698   3.216   7.572   3.337 -0.6760  0.3528  1.5407
28374SOL     OW85699   3.912   5.399   0.703 -0.0652 -0.1661  0.3153
28374SOL    HW185700   3.989   5.365   0.657  0.2616  0.7840  0.1271
28374SOL    HW285701   3.914   5.354   0.788 -0.0685 -1.1351 -0.1847
28375SOL     OW85702   6.860   4.276   3.204  0.3043 -0.2276  0.1975
28375SOL    HW185703   6.850   4.362   3.243  0.0968  0.3240 -1.0394
28375SOL    HW285704   6.772   4.238   3.205  0.4598 -0.5839  1.0727
28376SOL     OW85705   5.147   6.428   0.834 -0.5427 -0.4597 -0.1856
28376SOL    HW185706   5.126   6.475   0.753  0.1447  0.4435  0.1483
28376SOL    HW285707   5.126   6.489   0.904  1.1819 -0.2751  0.2321
28377SOL     OW85708   1.798   7.604   9.493  0.4183 -0.4540 -1.0936
28377SOL    HW185709   1.733   7.635   9.556  1.3780 -0.4450 -0.0824
28377SOL    HW285710   1.823   7.682   9.443  0.7890 -0.1435 -0.4326
28378SOL     OW85711   2.307   5.926   2.378  0.0906  0.5053 -0.1812
28378SOL    HW185712   2.291   5.911   2.471  2.0731 -1.5327 -0.1017
28378SOL    HW285713   2.234   5.883   2.334  1.1710 -2.0456  0.3684
28379SOL     OW85714   1.854   5.853   8.101  0.5598 -0.0971 -0.1129
28379SOL    HW185715   1.925   5.796   8.131 -0.5385 -0.0354  3.0035
28379SOL    HW285716   1.885   5.942   8.120 -0.9561 -0.1333  3.2166
28380SOL     OW85717   6.091   3.931   2.767  0.1036  0.1493 -0.6029
28380SOL    HW185718   6.111   3.854   2.819  0.0162 -0.4468 -1.4285
28380SOL    HW285719   6.160   3.934   2.700  2.4124  2.9661  1.6348
28381SOL     OW85720   5.327   2.852   3.926 -0.2886  0.6193 -0.5125
28381SOL    HW185721   5.315   2.843   4.021  2.6633  1.7249  0.0792
28381SOL    HW285722   5.241   2.833   3.889 -1.3396 -0.7090  2.3096
28382SOL     OW85723   4.914   3.658   0.731  0.3202  0.5241 -0.1505
28382SOL    HW185724   4.855   3.614   0.792  1.9045 -0.8621  0.4508
28382SOL    HW285725   4.864   3.733   0.699 -0.6202  1.2186  2.6993
28383SOL     OW85726   9.714   7.043   1.264  0.1202  0.1660 -0.3697
28383SOL    HW185727   9.682   7.121   1.309  0.7908 -0.0377  0.4882
28383SOL    HW285728   9.687   7.055   1.173 -1.2367  0.6095  0.0625
28384SOL     OW85729   9.430   8.258   6.185 -0.1184 -0.2774 -0.3317
28384SOL    HW185730   9.350   8.278   6.233 -1.0639 -2.5127 -0.8630
28384SOL    HW285731   9.495   8.239   6.253 -1.5212 -3.7269  0.2701
28385SOL     OW85732   3.909   3.231   7.487  0.0424  0.4860 -0.2038
28385SOL    HW185733   3.959   3.244   7.407 -2.0808  2.4413 -1.3185
28385SOL    HW285734   3.890   3.137   7.488  1.4215  0.1619 -1.1253
28386SOL     OW85735   3.791   5.310   4.861 -0.6611 -0.1352 -0.6996
28386SOL    HW185736   3.884   5.334   4.869 -0.6555 -0.3404 -0.0654
28386SOL    HW285737   3.744   5.392   4.874 -0.5415  0.2022 -2.2573
28387SOL     OW85738   4.157   2.559   9.905 -0.2188  0.3917 -0.7273
28387SOL    HW185739   4.180   2.467   9.893 -0.2248 -0.1797  2.6598
28387SOL    HW285740   4.240   2.602   9.925 -0.7050  0.0946  2.4051
28388SOL     OW85741   9.617   7.701   7.455 -1.3213  0.0864 -0.0401
28388SOL    HW185742   9.568   7.703   7.537 -3.3950 -1.7713 -1.1431
28388SOL    HW285743   9.620   7.609   7.431  0.1538  0.4774 -1.5663
28389SOL     OW85744   7.342   1.708   6.451  0.3227  0.4398 -0.4907
28389SOL    HW185745   7.295   1.790   6.438 -1.2986 -0.6151 -1.6835
28389SOL    HW285746   7.305   1.648   6.386  1.0746 -1.4010  0.6765
28390SOL     OW85747   4.438   1.904   7.843  0.4241  0.3297  0.0906
28390SOL    HW185748   4.468   1.923   7.931  0.3888 -2.5750  0.8401
28390SOL    HW285749   4.342   1.910   7.847  0.4848  2.9308 -0.5570
28391SOL     OW85750   6.467   6.569   1.942 -0.2185  0.1496  0.3027
28391SOL    HW185751   6.471   6.481   1.905 -0.9331 -0.4066  1.5108
28391SOL    HW285752   6.378   6.598   1.926 -0.7285 -0.3302  2.0211
28392SOL     OW85753   2.449   1.576   1.357  0.4428 -0.6776 -0.1104
28392SOL    HW185754   2.388   1.575   1.283  0.0529 -0.2061  0.1945
28392SOL    HW285755   2.479   1.485   1.365  0.6549 -0.6894 -0.9743
28393SOL     OW85756   0.610   4.683   0.245 -0.8599  0.2414 -0.4414
28393SOL    HW185757   0.624   4.631   0.324  1.0741  2.5559  0.8409
28393SOL    HW285758   0.682   4.658   0.187  0.7800  2.1421  0.6367
28394SOL     OW85759   6.983   3.949   9.359  0.2173 -0.3772 -0.4378
28394SOL    HW185760   6.973   3.957   9.454  0.3240 -1.8097 -0.2925
28394SOL    HW285761   6.895   3.936   9.326  0.0503  1.1163 -0.6739
28395SOL     OW85762   2.782   3.665   9.409  0.1142 -0.5683 -0.0015
28395SOL    HW185763   2.854   3.693   9.465  0.0526  1.4271 -0.8249
28395SOL    HW285764   2.707   3.717   9.439  0.0019  0.2830 -1.6317
28396SOL     OW85765   9.071   4.138   2.572  0.4496 -0.4396  0.4294
28396SOL    HW185766   8.988   4.138   2.525  0.8400  0.0470 -0.2984
28396SOL    HW285767   9.137   4.148   2.503  1.1025 -0.6771  1.0038
28397SOL     OW85768   0.888   2.055   4.417  0.2977  0.7422  0.3887
28397SOL    HW185769   0.921   2.107   4.490  0.6732 -0.1039  0.8431
28397SOL    HW285770   0.964   2.005   4.387  0.4173  1.8426 -1.2951
28398SOL     OW85771   0.627   4.955   1.092 -0.1083  0.0384 -0.1004
28398SOL    HW185772   0.549   4.915   1.054 -0.1508  0.9470 -1.0142
28398SOL    HW285773   0.697   4.892   1.076 -0.6295 -0.7664  0.6928
28399SOL     OW85774   8.821   2.874   2.266  0.3989 -0.0166 -0.2145
28399SOL    HW185775   8.742   2.881   2.320 -0.1841 -3.1130 -0.4719
28399SOL    HW285776   8.798   2.915   2.183 -0.7367 -0.3151 -0.0570
28400SOL     OW85777   1.942   2.046   2.181  0.1485 -0.0407 -0.8503
28400SOL    HW185778   1.984   2.125   2.215 -0.9506 -0.1186  0.7807
28400SOL    HW285779   1.973   2.040   2.090  0.2700  2.2446 -1.0247
28401SOL     OW85780   7.324   1.269   8.449 -0.0217 -0.0058 -0.3341
28401SOL    HW185781   7.376   1.190   8.440  2.3578  1.2091  1.6216
28401SOL    HW285782   7.240   1.239   8.482 -0.1111 -1.8841 -2.0633
28402SOL     OW85783   4.264   0.190   5.224  0.4878 -0.3137 -0.0695
28402SOL    HW185784   4.341   0.233   5.260 -0.0003 -0.0963  0.7353
28402SOL    HW285785   4.298   0.111   5.181  1.3339  0.6264 -1.1673
28403SOL     OW85786   6.845   1.542   1.782 -0.0655 -0.1312  0.9400
28403SOL    HW185787   6.777   1.475   1.791  1.1710 -1.7759 -0.9556
28403SOL    HW285788   6.922   1.504   1.825  0.7304 -0.0925 -0.4002
28404SOL     OW85789   9.506   5.194   8.281 -0.1328 -0.7301  0.0551
28404SOL    HW185790   9.578   5.131   8.273  1.0959  0.8136 -3.1225
28404SOL    HW285791   9.547   5.272   8.317 -1.3781 -1.2408  2.8028
28405SOL     OW85792   5.435   8.380   9.189 -0.2982  0.6101 -0.5071
28405SOL    HW185793   5.366   8.433   9.148 -1.5214  0.0959  0.7920
28405SOL    HW285794   5.482   8.341   9.116 -1.7624  0.5249 -1.4472
28406SOL     OW85795   2.920   4.929   3.200 -0.4376  0.1694  0.7180
28406SOL    HW185796   2.935   4.962   3.289 -1.3973  0.1011  0.9218
28406SOL    HW285797   2.976   4.853   3.192  0.1961  0.5979  1.0085
28407SOL     OW85798   7.322   2.409   7.559 -0.2327  0.5878 -0.1605
28407SOL    HW185799   7.244   2.380   7.607 -0.0063 -0.6608 -0.5237
28407SOL    HW285800   7.391   2.347   7.584  0.3778  1.0462 -0.6558
28408SOL     OW85801   0.107   6.981   0.704  0.1488 -1.0246  0.2031
28408SOL    HW185802   0.083   7.051   0.764  0.3649 -0.9653  0.2202
28408SOL    HW285803   0.095   6.901   0.755 -0.5291 -1.0267  0.0407
28409SOL     OW85804   6.145   5.447   3.302  0.2136 -0.2856  0.3012
28409SOL    HW185805   6.080   5.446   3.373  1.5436  2.6049  1.7652
28409SOL    HW285806   6.101   5.492   3.230 -0.1548 -0.4273  0.4354
28410SOL     OW85807   0.915   0.316   7.594 -0.3343 -0.1991 -0.9714
28410SOL    HW185808   0.901   0.277   7.680  0.9940 -0.7685 -0.9890
28410SOL    HW285809   0.875   0.254   7.533  0.7105 -0.9577 -0.9107
28411SOL     OW85810   8.481   4.859   4.937  0.3831 -0.4876 -0.7463
28411SOL    HW185811   8.538   4.868   4.861 -0.9270  0.8585 -1.6463
28411SOL    HW285812   8.393   4.851   4.900 -0.1117 -1.6768  0.6069
28412SOL     OW85813   4.213   1.537   2.050 -0.2740  0.0722  0.5935
28412SOL    HW185814   4.126   1.506   2.027 -1.1074  1.4522  1.6976
28412SOL    HW285815   4.221   1.519   2.144  0.5600  0.1339  0.5419
28413SOL     OW85816   2.426   3.306   9.223  0.0664  0.2983 -0.1913
28413SOL    HW185817   2.483   3.375   9.189 -0.9107  0.9509 -0.5471
28413SOL    HW285818   2.355   3.354   9.266  0.1723 -0.5032  0.9081
28414SOL     OW85819   2.975   7.624   1.253 -0.5179  0.1261 -0.3117
28414SOL    HW185820   2.974   7.534   1.222 -0.2136  0.3585 -1.0261
28414SOL    HW285821   3.067   7.641   1.275 -1.1284 -1.1544  4.2173
28415SOL     OW85822   5.584   3.360   8.224 -0.3161 -0.2331  0.0349
28415SOL    HW185823   5.653   3.319   8.172 -1.4691 -1.2481 -0.7750
28415SOL    HW285824   5.592   3.454   8.205 -0.9944 -0.5971 -2.4551
28416SOL     OW85825   4.110   0.318   8.021  0.0289  0.1800 -0.3044
28416SOL    HW185826   4.103   0.338   8.114 -2.5151  0.2758 -0.4650
28416SOL    HW285827   4.062   0.236   8.010  1.0825 -0.3224 -1.4011
28417SOL     OW85828   5.265   1.533   1.380 -0.1222  0.6446  0.4507
28417SOL    HW185829   5.263   1.515   1.474 -1.5984  2.0210  0.7264
28417SOL    HW285830   5.316   1.614   1.372  0.5673  0.1767 -0.0279
28418SOL     OW85831   3.682   9.499   6.796  0.9725 -0.5185 -0.3020
28418SOL    HW185832   3.588   9.485   6.809  1.3848 -2.8084  0.7040
28418SOL    HW285833   3.717   9.412   6.775  2.9404  0.1883 -0.1905
28419SOL     OW85834   2.740   0.428   6.335  0.7539  0.2938 -0.4351
28419SOL    HW185835   2.737   0.519   6.365 -1.7703 -0.4266  1.9801
28419SOL    HW285836   2.728   0.433   6.240  0.1310  2.4603 -0.2857
28420SOL     OW85837   9.390   9.276   9.729  0.0117 -0.2381 -0.6925
28420SOL    HW185838   9.316   9.216   9.723 -0.2903  0.2818 -3.4676
28420SOL    HW285839   9.440   9.245   9.804 -1.0705 -2.8552 -0.9499
28421SOL     OW85840   2.010   6.752   4.182 -0.0081 -0.0002  0.4146
28421SOL    HW185841   2.097   6.783   4.156 -0.2908  1.3033  0.9428
28421SOL    HW285842   1.967   6.731   4.099 -0.1328  1.9988 -0.0681
28422SOL     OW85843   8.615   2.508   5.699  0.2451  0.0204 -0.2968
28422SOL    HW185844   8.566   2.441   5.652 -0.5506  0.4177 -0.0599
28422SOL    HW285845   8.697   2.516   5.651 -0.7357  0.7710 -1.9512
28423SOL     OW85846   9.662   9.286   3.412  0.7107 -0.0487 -0.0174
28423SOL    HW185847   9.635   9.316   3.499  0.8703  1.3383 -0.4207
28423SOL    HW285848   9.614   9.342   3.351  0.6361 -0.9811 -0.8262
28424SOL     OW85849   0.377   6.034   7.562 -0.0295  0.3127 -0.4728
28424SOL    HW185850   0.298   6.061   7.515 -0.8997 -1.0393  0.1629
28424SOL    HW285851   0.409   5.958   7.513 -0.1126 -0.2059  0.2718
28425SOL     OW85852   1.509   2.527   7.693 -0.0679 -0.1588 -0.1341
28425SOL    HW185853   1.450   2.575   7.750  0.4814 -0.1061  0.4034
28425SOL    HW285854   1.593   2.573   7.701 -0.1853  0.3980 -1.6820
28426SOL     OW85855   5.082   5.645   4.835 -0.6410 -0.3314  0.1479
28426SOL    HW185856   5.136   5.680   4.907 -0.4481 -0.7740  0.2264
28426SOL    HW285857   5.101   5.551   4.836  0.6585 -0.1452 -1.5410
28427SOL     OW85858   9.893   6.801   2.122 -0.5683 -0.3067 -0.3971
28427SOL    HW185859   9.947   6.764   2.052 -2.0813  0.2287 -1.9105
28427SOL    HW285860   9.851   6.725   2.163 -0.3165 -0.5671 -0.6179
28428SOL     OW85861   2.256   3.610   8.082 -0.7308  0.4917  0.3094
28428SOL    HW185862   2.293   3.663   8.152 -2.2197  1.1843  0.6006
28428SOL    HW285863   2.163   3.629   8.083 -0.8636  0.1755 -1.5701
28429SOL     OW85864   7.672   8.530   5.176  0.3325  0.4137 -0.2967
28429SOL    HW185865   7.635   8.443   5.163  1.0606 -0.1678  1.1850
28429SOL    HW285866   7.628   8.585   5.112 -0.7560 -0.8691 -0.7017
28430SOL     OW85867   8.310   8.546   2.390 -0.5133 -0.1376  0.8493
28430SOL    HW185868   8.374   8.500   2.335 -0.2547 -0.7366  1.6272
28430SOL    HW285869   8.229   8.544   2.339 -0.1938 -0.3641  0.3379
28431SOL     OW85870   7.005   2.720   5.604 -0.5177  0.3991 -0.2325
28431SOL    HW185871   7.022   2.788   5.670  0.4968  0.8529 -0.9416
28431SOL    HW285872   6.942   2.761   5.545 -1.1940  0.1019  0.2683
28432SOL     OW85873   2.022   1.642   8.510  0.7705 -0.2432  0.1013
28432SOL    HW185874   1.958   1.704   8.545  2.0051  1.2646 -0.1635
28432SOL    HW285875   2.107   1.683   8.528  1.5558 -0.6472 -2.3011
28433SOL     OW85876   2.831   5.955   4.599 -0.0197  0.0865 -0.2533
28433SOL    HW185877   2.807   5.863   4.587  0.2791 -0.1956  1.1931
28433SOL    HW285878   2.924   5.953   4.623  0.2526  0.8461 -1.1908
28434SOL     OW85879   6.954   0.788   6.623 -0.0720 -0.2481  0.3003
28434SOL    HW185880   6.872   0.744   6.645 -1.1100  2.1521  1.5809
28434SOL    HW285881   6.947   0.806   6.529 -1.2177  0.3146  0.4869
28435SOL     OW85882   5.007   2.091   3.482  0.0287  0.0787 -0.2115
28435SOL    HW185883   5.050   2.071   3.565 -1.1702  0.1449  0.4503
28435SOL    HW285884   5.078   2.088   3.417  1.4459  2.2758  1.0829
28436SOL     OW85885   7.780   5.576   2.117  0.4197  0.3323 -0.2622
28436SOL    HW185886   7.746   5.525   2.190  2.1494 -0.6587 -0.0897
28436SOL    HW285887   7.712   5.571   2.050 -0.5852  0.0577  0.7604
28437SOL     OW85888   2.212   7.766   0.085 -0.0440 -0.5580 -0.4540
28437SOL    HW185889   2.303   7.783   0.058  0.0649  1.1275  0.8206
28437SOL    HW285890   2.211   7.673   0.108  1.5164 -0.5002 -0.0068
28438SOL     OW85891   9.624   3.895   6.966  0.3840  0.0990  0.2886
28438SOL    HW185892   9.594   3.857   6.883  1.1021 -0.6003  0.3267
28438SOL    HW285893   9.637   3.988   6.947 -2.4951  0.6138  0.4835
28439SOL     OW85894   9.769   4.921   2.028  0.2872 -0.2384 -0.0833
28439SOL    HW185895   9.808   5.008   2.030  1.4560 -0.7100 -0.8775
28439SOL    HW285896   9.680   4.935   1.996  0.7623  0.5865 -1.1000
28440SOL     OW85897   4.743   7.351   7.204 -0.8288  0.0221  0.6409
28440SOL    HW185898   4.694   7.418   7.155 -0.0307 -0.3111 -0.6342
28440SOL    HW285899   4.727   7.270   7.157  2.3024  0.1529 -0.9092
28441SOL     OW85900   6.026   7.970   2.452  0.8855  0.3350 -0.2688
28441SOL    HW185901   5.947   8.022   2.438  0.5162 -0.5321 -1.5717
28441SOL    HW285902   5.995   7.887   2.488  1.2947  0.3158  0.0532
28442SOL     OW85903   6.069   1.640   4.156 -0.0540 -0.4141  0.2854
28442SOL    HW185904   6.040   1.651   4.247 -0.3179  2.3025 -0.0513
28442SOL    HW285905   6.157   1.604   4.164  0.1758  0.3731  1.6465
28443SOL     OW85906   6.942   2.652   1.936  0.3752 -0.5675 -0.5606
28443SOL    HW185907   7.023   2.655   1.885  0.7622 -0.3532  0.0565
28443SOL    HW285908   6.933   2.560   1.962  0.4577 -0.5799 -0.5771
28444SOL     OW85909   3.362   2.561   8.787  0.1838 -0.4202 -0.1581
28444SOL    HW185910   3.289   2.591   8.842 -0.6043 -1.9198 -0.3535
28444SOL    HW285911   3.430   2.538   8.850  0.0410 -0.1939  0.0845
28445SOL     OW85912   4.660   0.955   5.017  0.4210 -0.5832 -0.2857
28445SOL    HW185913   4.720   1.019   5.056 -0.8795  1.1081 -0.9365
28445SOL    HW285914   4.589   0.947   5.081 -2.1012  2.7642 -2.3251
28446SOL     OW85915   2.426   6.689   5.988  0.3422  0.0465 -0.1444
28446SOL    HW185916   2.374   6.633   5.930 -0.2127  1.9404 -1.5570
28446SOL    HW285917   2.511   6.695   5.945  0.7718 -0.5762  0.5879
28447SOL     OW85918   8.277   5.924   0.042  0.0565 -0.0233 -0.1128
28447SOL    HW185919   8.251   6.009   0.007  0.8935 -0.6672 -2.4702
28447SOL    HW285920   8.372   5.921   0.030  0.5386 -0.1227  2.8192
28448SOL     OW85921   9.241   7.725   9.847  0.1134 -0.0194  0.2395
28448SOL    HW185922   9.277   7.636   9.846  0.0750 -0.0372 -0.2989
28448SOL    HW285923   9.160   7.718   9.897  1.0996  0.1256  1.9196
28449SOL     OW85924   7.153   1.187   0.067 -0.2042  0.0451 -0.0248
28449SOL    HW185925   7.228   1.190   0.008 -0.8047  1.8294 -0.7782
28449SOL    HW285926   7.170   1.256   0.132 -1.1861  0.5012 -0.2333
28450SOL     OW85927   4.672   7.256   0.313  0.4906  0.6001 -0.4133
28450SOL    HW185928   4.599   7.238   0.254  0.0034  0.1671  0.3152
28450SOL    HW285929   4.632   7.260   0.400  1.5042 -0.7916  0.1382
28451SOL     OW85930   4.159   8.040   4.114  0.1483  0.4613 -0.3738
28451SOL    HW185931   4.233   7.995   4.156 -0.1703 -0.3686 -0.6843
28451SOL    HW285932   4.099   8.060   4.185 -0.7404 -1.6004 -0.4622
28452SOL     OW85933   0.450   5.390   2.862 -0.4040 -0.4712  0.3791
28452SOL    HW185934   0.385   5.453   2.831  1.2998  2.2366  1.9871
28452SOL    HW285935   0.431   5.379   2.955 -0.3539 -2.0024  0.2353
28453SOL     OW85936   7.139   4.673   7.472 -0.4619 -0.2180  0.4097
28453SOL    HW185937   7.194   4.749   7.452  0.5380 -0.9120  0.4571
28453SOL    HW285938   7.051   4.699   7.445  0.0019  0.6682 -0.2864
28454SOL     OW85939   1.514   3.720   4.916  0.9939 -0.4255  0.0272
28454SOL    HW185940   1.467   3.691   4.993  0.8442 -0.7440 -0.1841
28454SOL    HW285941   1.446   3.734   4.850  0.8517  1.9283  0.5674
28455SOL     OW85942   3.841   2.481   6.225 -0.5814 -0.8919 -0.1013
28455SOL    HW185943   3.811   2.474   6.135  0.5818 -0.2367 -0.5720
28455SOL    HW285944   3.767   2.517   6.273 -1.0015 -0.6427 -0.9276
28456SOL     OW85945   9.478   3.966   9.924  0.0281  0.1784  0.2829
28456SOL    HW185946   9.419   3.974   9.849  2.3124 -1.0593 -1.7926
28456SOL    HW285947   9.533   3.890   9.903  2.5828  1.4404  1.8758
28457SOL     OW85948   2.942   0.543   4.889  0.3642 -0.3155  0.5611
28457SOL    HW185949   2.992   0.466   4.916  0.3573 -0.5846 -0.1727
28457SOL    HW285950   2.911   0.522   4.801  4.0809  2.2351 -1.6664
28458SOL     OW85951   4.188   5.692   7.269  0.0013 -0.4562  0.7450
28458SOL    HW185952   4.195   5.631   7.195  0.1155  0.6228 -0.1524
28458SOL    HW285953   4.247   5.764   7.247 -2.5200  1.5772  0.2033
28459SOL     OW85954   8.709   1.989   6.334 -0.1960 -0.0830  0.5791
28459SOL    HW185955   8.695   1.926   6.404 -1.2868  1.2724  1.6509
28459SOL    HW285956   8.768   1.945   6.273 -1.8884 -2.6042  0.6244
28460SOL     OW85957   3.337   2.908   0.346 -0.0101  0.0626 -0.5874
28460SOL    HW185958   3.299   2.983   0.301  0.8746  1.3417  0.7004
28460SOL    HW285959   3.430   2.910   0.322  0.3641  0.4414  0.8259
28461SOL     OW85960   1.804   9.865   5.689  0.1166 -0.2853 -0.3569
28461SOL    HW185961   1.769   9.919   5.618  0.4391  1.0791  0.4896
28461SOL    HW285962   1.809   9.924   5.764  1.0943 -1.3356  0.4353
28462SOL     OW85963   6.549   1.572   9.765  0.3735 -0.4312  0.2890
28462SOL    HW185964   6.525   1.573   9.857  1.4273 -0.1571  0.5818
28462SOL    HW285965   6.481   1.520   9.722 -0.4666 -0.0386  1.1159
28463SOL     OW85966   7.475   9.724   9.950  0.7937 -0.7576 -0.0534
28463SOL    HW185967   7.507   9.634   9.948  1.7745 -0.4171 -1.4464
28463SOL    HW285968   7.504   9.761   9.867 -0.7610  0.4587 -0.0832
28464SOL     OW85969   9.141   0.560   9.886  0.3221  0.2713  0.3403
28464SOL    HW185970   9.098   0.559   9.971  0.5590  0.4286  0.4632
28464SOL    HW285971   9.132   0.650   9.855  1.2374  0.5090  0.7199
28465SOL     OW85972   2.493   5.829   4.973 -0.9534 -0.2093 -0.3853
28465SOL    HW185973   2.441   5.904   4.945 -0.6062  0.4217  0.6152
28465SOL    HW285974   2.518   5.850   5.063  0.6992 -0.6801 -0.7130
28466SOL     OW85975   1.235   7.392   9.367 -0.0203 -0.1274  0.3233
28466SOL    HW185976   1.143   7.411   9.387 -0.1830 -0.6830  0.1181
28466SOL    HW285977   1.234   7.302   9.333  0.3835  0.4304 -1.2148
28467SOL     OW85978   3.642   7.942   9.925 -0.1850 -0.1163  0.3611
28467SOL    HW185979   3.574   7.974   9.985 -1.3755 -0.9679 -0.4981
28467SOL    HW285980   3.652   8.013   9.861  0.1995  0.2680  0.8326
28468SOL     OW85981   7.890   4.273   0.161  0.4729 -0.1035  0.0674
28468SOL    HW185982   7.890   4.345   0.098  0.4805 -0.1533  0.0105
28468SOL    HW285983   7.886   4.316   0.246 -1.6020 -0.0605 -0.0103
28469SOL     OW85984   8.973   3.589   9.693 -0.3408  0.1993 -0.0799
28469SOL    HW185985   8.945   3.624   9.778  0.6792  2.1071 -0.4874
28469SOL    HW285986   9.045   3.530   9.715  1.7752  2.7198  0.2982
28470SOL     OW85987   8.006   2.518   7.685  0.1097 -0.0761 -0.6616
28470SOL    HW185988   7.913   2.526   7.663  0.2980 -0.2643 -1.5734
28470SOL    HW285989   8.013   2.553   7.774 -0.7878  0.1722 -0.6788
28471SOL     OW85990   3.278   5.428   8.480  0.3806 -0.4619 -0.3236
28471SOL    HW185991   3.311   5.341   8.459  0.0759 -0.4207 -0.9963
28471SOL    HW285992   3.344   5.487   8.444  0.0048 -0.3949 -0.9069
28472SOL     OW85993   8.470   3.948   1.538  0.2562 -0.1329  0.6836
28472SOL    HW185994   8.427   3.897   1.607 -2.0218 -0.4308 -0.8293
28472SOL    HW285995   8.520   3.883   1.488  0.6866 -0.1666  1.1493
28473SOL     OW85996   6.379   5.873   3.636 -0.1496  0.0804  0.6680
28473SOL    HW185997   6.467   5.900   3.662  0.2882  0.2422 -0.8755
28473SOL    HW285998   6.338   5.954   3.604  0.0512 -0.4483 -0.9982
28474SOL     OW85999   5.016   6.516   0.593  0.1733 -0.6317  0.0296
28474SOL    HW186000   5.044   6.566   0.516 -0.3073 -0.0764  0.2107
28474SOL    HW286001   4.926   6.489   0.574  0.3168 -1.1600  0.0720
28475SOL     OW86002   0.901   7.232   7.510  0.0077  0.4759 -0.0701
28475SOL    HW186003   0.989   7.227   7.547 -0.0900 -0.1441  0.0947
28475SOL    HW286004   0.846   7.266   7.580  0.1949  1.3185 -0.3237
28476SOL     OW86005   1.776   2.734   7.030  0.1295 -0.5989 -0.2727
28476SOL    HW186006   1.756   2.650   6.989 -0.7298 -1.2608  1.4189
28476SOL    HW286007   1.712   2.795   6.993 -1.5549 -1.4907  1.0181
28477SOL     OW86008   5.251   4.975   4.906  0.0331  0.4133 -0.3794
28477SOL    HW186009   5.272   4.888   4.939  2.1213  0.4989 -1.3143
28477SOL    HW286010   5.284   5.035   4.973  0.6607  0.5016 -0.7544
28478SOL     OW86011   9.240   0.882   4.655  0.0992  0.2210 -0.0556
28478SOL    HW186012   9.317   0.929   4.623  0.4991  0.8140  1.6698
28478SOL    HW286013   9.172   0.948   4.664  0.3059  0.2885  1.2424
28479SOL     OW86014   7.622   9.415   0.624 -0.0738 -0.1301 -0.0665
28479SOL    HW186015   7.687   9.405   0.555  1.0212  0.5484  0.8308
28479SOL    HW286016   7.564   9.339   0.614  2.3422 -2.2146  0.6668
28480SOL     OW86017   3.122   6.981   2.647  0.0628  0.0185  0.3233
28480SOL    HW186018   3.156   7.067   2.622  2.1527 -0.4653  1.1966
28480SOL    HW286019   3.134   6.978   2.742  0.0858 -1.2558  0.2916
28481SOL     OW86020   4.857   4.134   7.661 -0.8522  0.2879  0.1422
28481SOL    HW186021   4.764   4.127   7.683 -0.9032 -0.2291 -0.2113
28481SOL    HW286022   4.904   4.109   7.740 -1.0271 -2.1113 -0.4461
28482SOL     OW86023   5.464   1.686   4.355  0.0763  0.0258 -0.3243
28482SOL    HW186024   5.439   1.594   4.347 -2.5202  0.5714  0.5166
28482SOL    HW286025   5.484   1.713   4.265 -1.8850 -0.6849 -1.0333
28483SOL     OW86026   2.460   2.714   2.654 -0.0459 -0.1037 -0.3510
28483SOL    HW186027   2.450   2.702   2.560 -0.9915  1.3346 -0.4658
28483SOL    HW286028   2.552   2.696   2.671  0.7161  1.9083 -1.9608
28484SOL     OW86029   7.383   2.274   9.226 -0.4333  0.3868 -0.3043
28484SOL    HW186030   7.287   2.267   9.231 -0.4034 -1.6949 -1.3375
28484SOL    HW286031   7.400   2.293   9.134  0.1872 -2.0488 -0.7552
28485SOL     OW86032   8.997   5.547   5.106  0.5300  0.6372  0.5183
28485SOL    HW186033   9.052   5.470   5.096 -0.1143 -0.2569  3.1372
28485SOL    HW286034   9.040   5.598   5.175  0.0338  1.7721  0.0062
28486SOL     OW86035   6.965   9.634   9.499  0.0993 -0.3440  0.1727
28486SOL    HW186036   6.967   9.642   9.594  0.4576 -0.0363  0.1392
28486SOL    HW286037   6.997   9.545   9.482  0.5617 -0.2089  0.3150
28487SOL     OW86038  -0.013   4.091   3.611 -0.4063 -0.1251  0.3173
28487SOL    HW186039   0.000   4.098   3.705 -1.4226 -0.1083  0.4727
28487SOL    HW286040   0.060   4.138   3.572 -0.5796  0.8329  1.1261
28488SOL     OW86041   5.317   0.852   0.603 -0.2235  0.2835 -0.1702
28488SOL    HW186042   5.224   0.832   0.590 -0.0907  0.4766 -1.6124
28488SOL    HW286043   5.318   0.932   0.656 -0.9665  1.7476 -2.2500
28489SOL     OW86044   5.898   4.140   5.290 -0.4746  0.1255 -0.5872
28489SOL    HW186045   5.934   4.070   5.344  0.3479  1.7042  0.9982
28489SOL    HW286046   5.805   4.143   5.314 -0.4032 -0.0794 -0.2739
28490SOL     OW86047   9.094   1.274   3.890 -0.1527 -0.7292 -0.1229
28490SOL    HW186048   9.112   1.227   3.971  0.6823  1.1184  0.8368
28490SOL    HW286049   9.181   1.293   3.853 -0.4765 -0.3834 -0.7287
28491SOL     OW86050   6.235   3.611   5.979 -0.0220  0.3956  0.1958
28491SOL    HW186051   6.218   3.626   5.886  0.3898  0.5443  0.1426
28491SOL    HW286052   6.210   3.694   6.021  1.5982  1.0235 -0.0163
28492SOL     OW86053   7.868   7.183   9.881 -0.6075  0.0420 -0.0630
28492SOL    HW186054   7.834   7.205   9.967  0.1093  0.9068  0.0180
28492SOL    HW286055   7.939   7.121   9.898 -0.6061  0.0464 -0.0540
28493SOL     OW86056   5.168   4.555   7.562  0.3917 -0.0420 -0.1098
28493SOL    HW186057   5.116   4.485   7.523 -1.7931 -0.1166  2.5632
28493SOL    HW286058   5.176   4.620   7.493 -0.0989 -1.6635 -1.7579
28494SOL     OW86059   6.819   0.332   6.159  0.4496  0.3109  0.6809
28494SOL    HW186060   6.903   0.292   6.140  0.0800 -0.1106 -0.0913
28494SOL    HW286061   6.781   0.353   6.074 -0.5012 -0.0824  0.9859
28495SOL     OW86062   0.551   6.320   6.368 -0.6041 -0.1580  0.2685
28495SOL    HW186063   0.632   6.309   6.417  0.5158 -2.6055 -1.9065
28495SOL    HW286064   0.575   6.374   6.292 -1.6214  1.0658  0.7611
28496SOL     OW86065   0.642   8.869   8.459 -0.0946  0.7660  0.0876
28496SOL    HW186066   0.596   8.848   8.540 -0.6194 -0.4830 -0.5020
28496SOL    HW286067   0.647   8.786   8.412  2.9858  0.7499  0.2142
28497SOL     OW86068   4.869   8.433   6.153 -0.0584 -0.1774 -0.6069
28497SOL    HW186069   4.843   8.346   6.185 -0.2396  0.3433  0.7708
28497SOL    HW286070   4.866   8.426   6.058 -0.0559 -1.6810 -0.5220
28498SOL     OW86071   7.185   2.304   1.670 -1.0281  0.4058  0.1806
28498SOL    HW186072   7.233   2.235   1.623  0.0921  0.4087  1.2872
28498SOL    HW286073   7.174   2.270   1.758  1.9586  2.6675  1.5781
28499SOL     OW86074   5.666   1.583   2.221 -0.7638 -0.0260  0.2071
28499SOL    HW186075   5.726   1.549   2.155 -1.3941 -0.0989 -0.3405
28499SOL    HW286076   5.647   1.508   2.278 -0.1647  0.0551  0.5238
28500SOL     OW86077   6.179   3.149   3.189 -0.1843 -0.4186  0.0255
28500SOL    HW186078   6.124   3.221   3.220  1.2625  0.2569  1.1480
28500SOL    HW286079   6.201   3.172   3.099 -0.2931  0.1975  0.1548
28501SOL     OW86080   7.535   9.552   7.038  0.0641 -0.3699  0.1282
28501SOL    HW186081   7.455   9.598   7.065  1.0658  2.2944 -1.0127
28501SOL    HW286082   7.512   9.511   6.955 -0.5676 -1.0547  0.6362
28502SOL     OW86083   5.188   3.254   7.521  0.2358 -0.0513 -0.2303
28502SOL    HW186084   5.226   3.301   7.447  1.3762 -0.0881  0.3109
28502SOL    HW286085   5.253   3.186   7.543 -1.1973 -1.6611 -0.7600
28503SOL     OW86086   8.472   8.739   4.217  0.2557 -0.1069 -0.2132
28503SOL    HW186087   8.422   8.731   4.135  0.8460  1.1333 -0.7183
28503SOL    HW286088   8.563   8.728   4.190  0.3816 -0.7315  0.4506
28504SOL     OW86089   3.521   5.842   5.664 -0.2333 -0.0535  0.1289
28504SOL    HW186090   3.456   5.774   5.650  0.7661 -1.4788  1.9548
28504SOL    HW286091   3.476   5.908   5.716 -0.4850 -0.5504  0.5441
28505SOL     OW86092   2.231   7.285   9.255 -0.1514  0.6388 -0.5506
28505SOL    HW186093   2.212   7.227   9.182  1.2020 -1.7488  0.8534
28505SOL    HW286094   2.308   7.335   9.228 -1.1160  1.5820 -1.6391
28506SOL     OW86095   6.338   1.614   9.508 -0.4039 -0.6693 -0.2284
28506SOL    HW186096   6.344   1.560   9.429 -2.2279 -0.7684 -0.3275
28506SOL    HW286097   6.332   1.551   9.580 -2.3181 -0.6444 -0.3268
28507SOL     OW86098   8.718   1.962   8.682  0.5104 -0.2159  0.7315
28507SOL    HW186099   8.762   2.003   8.608 -0.3382 -2.4789 -1.1750
28507SOL    HW286100   8.630   1.941   8.649  0.2274 -1.6439  2.2294
28508SOL     OW86101   9.763   2.264   5.479 -0.2603  0.2518  0.1880
28508SOL    HW186102   9.711   2.342   5.459  0.3778  0.5393 -0.3986
28508SOL    HW286103   9.727   2.231   5.561 -0.4310  1.2558  0.5225
28509SOL     OW86104   9.063   6.547   1.471 -0.1638  0.4269 -0.5457
28509SOL    HW186105   9.138   6.548   1.411  1.0260 -1.5705  0.7686
28509SOL    HW286106   9.070   6.629   1.520  0.7711  0.5788 -0.9129
28510SOL     OW86107   7.303   3.679   7.611  0.4218 -0.0559  0.2001
28510SOL    HW186108   7.356   3.758   7.599  0.1650  0.0623 -0.1789
28510SOL    HW286109   7.216   3.704   7.581  0.4153 -0.5868 -0.2307
28511SOL     OW86110   7.201   0.682   7.979 -0.4206  0.2728  0.4124
28511SOL    HW186111   7.140   0.639   7.919 -1.7093  1.2743  0.9711
28511SOL    HW286112   7.273   0.711   7.923 -1.6327  1.2679 -0.6774
28512SOL     OW86113   3.953   7.710   3.465 -0.1294 -0.1855  0.0778
28512SOL    HW186114   3.953   7.796   3.424 -0.0510 -0.1680  0.1136
28512SOL    HW286115   3.989   7.651   3.398 -1.6447 -0.4688 -0.5187
28513SOL     OW86116   2.605   1.461   7.366  0.1731 -0.1828 -0.2037
28513SOL    HW186117   2.630   1.376   7.402 -1.3999 -0.4829  0.2257
28513SOL    HW286118   2.534   1.492   7.422  0.8808  1.5578 -0.1923
28514SOL     OW86119   9.422   6.730   9.518 -0.2653  0.5813 -0.3970
28514SOL    HW186120   9.385   6.739   9.430 -0.6455  0.8913 -0.2086
28514SOL    HW286121   9.385   6.804   9.567  0.1922  0.5918 -0.0629
28515SOL     OW86122   8.593   1.046   7.463  0.5295  0.3370  0.2033
28515SOL    HW186123   8.640   0.998   7.394  1.1978  0.9087  0.2454
28515SOL    HW286124   8.595   0.987   7.538  0.9281  0.2291  0.1119
28516SOL     OW86125   1.690   9.414   7.741 -0.4391  0.4869  0.2376
28516SOL    HW186126   1.660   9.470   7.668  1.2755  1.7834  0.4580
28516SOL    HW286127   1.660   9.460   7.819  1.5434  1.5235  0.4422
28517SOL     OW86128   0.934   0.315   3.692 -0.1193 -0.1030 -0.2255
28517SOL    HW186129   0.971   0.321   3.604  0.4802 -1.0851 -0.0555
28517SOL    HW286130   1.003   0.350   3.749 -0.6491  0.8746 -0.1694
28518SOL     OW86131   4.396   9.823   9.861  0.2867  0.1222  0.2904
28518SOL    HW186132   4.359   9.800   9.946 -1.1342 -0.0609 -0.3507
28518SOL    HW286133   4.457   9.895   9.880  0.6393 -0.4871  1.5589
28519SOL     OW86134   9.023   2.055   7.748  0.0204  0.0154 -0.3195
28519SOL    HW186135   9.039   1.963   7.728  1.6754 -0.0499  1.0298
28519SOL    HW286136   9.070   2.103   7.679  1.0933 -0.1914  0.2386
28520SOL     OW86137   6.053   1.515   5.657  0.9703  0.2083  0.1652
28520SOL    HW186138   6.118   1.525   5.727 -1.2794  3.0248  2.1118
28520SOL    HW286139   6.075   1.585   5.594  0.9909 -0.1511 -0.2331
28521SOL     OW86140   8.007   5.389   7.723  0.3289  0.6104 -0.0207
28521SOL    HW186141   7.926   5.363   7.766 -0.1445  2.4390  0.2762
28521SOL    HW286142   7.981   5.422   7.638  0.8899  0.2601 -0.3383
28522SOL     OW86143   5.117   0.243   3.759  0.4385  0.0375 -0.3454
28522SOL    HW186144   5.062   0.284   3.825  0.1867 -2.8257  1.4185
28522SOL    HW286145   5.056   0.209   3.694  0.3418 -0.4398 -0.0136
28523SOL     OW86146   4.271   7.917   5.179 -0.1148 -0.2669  0.4133
28523SOL    HW186147   4.203   7.902   5.113  1.4187 -1.3384 -0.9897
28523SOL    HW286148   4.307   8.003   5.157  0.1181 -0.4421  0.1055
28524SOL     OW86149   7.532   2.748   9.724 -0.0502  0.1053  0.1148
28524SOL    HW186150   7.473   2.771   9.796 -0.5204  1.0812 -0.5624
28524SOL    HW286151   7.615   2.788   9.748 -0.0692  0.0052  0.3517
28525SOL     OW86152   4.698   7.681   8.777 -0.3599  0.3102  0.1257
28525SOL    HW186153   4.605   7.699   8.793 -0.6724 -0.5527 -0.6759
28525SOL    HW286154   4.731   7.648   8.861 -0.8041  0.4815  0.3718
28526SOL     OW86155   6.609   2.527   5.587 -0.2799 -0.1338  0.5504
28526SOL    HW186156   6.534   2.584   5.604  0.1875  0.4898  0.5378
28526SOL    HW286157   6.636   2.549   5.498  1.7521  1.8004  1.5618
28527SOL     OW86158   7.268   7.705   6.103  0.0443  0.1017  0.6895
28527SOL    HW186159   7.283   7.619   6.065 -0.3848 -0.4417  1.7254
28527SOL    HW286160   7.198   7.743   6.050  1.4735  0.5810 -0.9335
28528SOL     OW86161   8.235   1.456   5.831 -0.4929  0.6144 -0.1353
28528SOL    HW186162   8.205   1.366   5.841 -0.4967  0.6236 -0.0640
28528SOL    HW286163   8.329   1.452   5.850 -0.4699  0.6041 -0.2525
28529SOL     OW86164   2.496   8.334   5.485  0.6149  0.2844  0.0595
28529SOL    HW186165   2.470   8.341   5.393  0.0035  0.3443  0.2346
28529SOL    HW286166   2.445   8.260   5.518 -3.0281  3.1647  1.6363
28530SOL     OW86167   2.234   0.613   5.031 -0.0365  0.0772  0.3385
28530SOL    HW186168   2.230   0.520   5.009  0.1371 -0.3740  2.0857
28530SOL    HW286169   2.267   0.655   4.951 -2.2275 -1.0379 -1.2636
28531SOL     OW86170   5.876   6.321   0.604 -0.5472  0.1693 -0.1116
28531SOL    HW186171   5.941   6.347   0.538 -0.2171 -0.3795 -0.0083
28531SOL    HW286172   5.792   6.324   0.558 -0.2446 -0.9476 -0.7838
28532SOL     OW86173   8.915   9.882   2.675 -0.0528 -0.2583 -0.0311
28532SOL    HW186174   8.835   9.853   2.630 -0.1040 -0.1285 -0.0238
28532SOL    HW286175   8.972   9.805   2.673  0.0933 -0.1352 -0.6536
28533SOL     OW86176   5.489   1.646   4.908  0.5069 -0.2510 -0.1572
28533SOL    HW186177   5.555   1.692   4.856  1.0422 -0.7536  0.0556
28533SOL    HW286178   5.476   1.563   4.862 -0.1093 -0.0834 -0.2907
28534SOL     OW86179   3.136   0.283   9.880 -0.7737  0.0768 -0.0835
28534SOL    HW186180   3.176   0.226   9.946 -0.8392  0.9915  0.7667
28534SOL    HW286181   3.162   0.371   9.906 -1.3709  0.5037 -0.9026
28535SOL     OW86182   2.618   7.949   0.376  0.1851 -0.1452 -0.2044
28535SOL    HW186183   2.554   7.888   0.341 -0.9731  0.6715  0.4157
28535SOL    HW286184   2.590   8.035   0.345  1.4044  0.1682 -0.5134
28536SOL     OW86185   8.429   6.427   1.213 -0.0431 -0.7554 -0.0846
28536SOL    HW186186   8.443   6.391   1.300 -2.5383  0.5363  0.9378
28536SOL    HW286187   8.501   6.489   1.201  0.2160 -0.7983  1.1246
28537SOL     OW86188   7.554   1.866   4.920 -0.3290 -0.6168  0.8042
28537SOL    HW186189   7.628   1.853   4.980 -0.3457  1.1019  1.2289
28537SOL    HW286190   7.590   1.845   4.834 -0.1645 -2.6074  1.3129
28538SOL     OW86191   1.568   9.374   8.286  0.0025 -0.4308  0.1345
28538SOL    HW186192   1.598   9.283   8.278  1.4810  0.0051  0.3539
28538SOL    HW286193   1.474   9.367   8.302  0.1860 -1.9513  0.7433
28539SOL     OW86194   0.501   9.919   1.083 -0.5828  0.2896 -0.0459
28539SOL    HW186195   0.417   9.914   1.038 -0.3528 -1.8602 -0.3664
28539SOL    HW286196   0.527  10.011   1.076 -2.7300  0.9348 -0.2129
28540SOL     OW86197   7.529   6.947   9.606 -0.0536 -0.5817  0.0470
28540SOL    HW186198   7.607   6.955   9.661  0.1147 -1.7359 -0.0048
28540SOL    HW286199   7.456   6.954   9.667  0.1148 -0.9916  0.2958
28541SOL     OW86200   5.636   7.453   4.906  0.3005 -0.3765 -0.3729
28541SOL    HW186201   5.630   7.442   4.811 -0.3264 -2.2362 -0.1636
28541SOL    HW286202   5.662   7.366   4.938 -1.7600 -0.4458  1.3200
28542SOL     OW86203   7.585   5.274   5.187 -0.2848  0.0786  0.0856
28542SOL    HW186204   7.561   5.367   5.190 -0.2967  0.0703  0.2664
28542SOL    HW286205   7.553   5.238   5.270  1.1953  0.2785  0.7786
28543SOL     OW86206   1.003   5.834   6.048  0.3983  0.4597 -0.5171
28543SOL    HW186207   0.923   5.788   6.073 -0.6664  1.5509 -1.7784
28543SOL    HW286208   1.048   5.774   5.988 -0.3628  0.5650 -1.1946
28544SOL     OW86209   7.320   6.248   7.519  0.1398  0.0939 -0.0111
28544SOL    HW186210   7.249   6.249   7.584 -0.7023  0.8189 -0.9095
28544SOL    HW286211   7.396   6.280   7.566 -0.8351  2.2090  0.2473
28545SOL     OW86212   2.121   2.048   8.707  0.3476  0.3339 -0.7113
28545SOL    HW186213   2.051   2.113   8.705  1.8302  1.9912 -1.0651
28545SOL    HW286214   2.126   2.021   8.798  1.6189  2.9459  0.0646
28546SOL     OW86215   4.312   5.665   1.984  1.0978 -0.0384 -0.5610
28546SOL    HW186216   4.250   5.624   2.044  0.6480 -0.5315 -1.3544
28546SOL    HW286217   4.386   5.605   1.980  0.5376 -0.6879 -1.5453
28547SOL     OW86218   8.459   7.601   0.077 -0.4683 -0.1183  0.0313
28547SOL    HW186219   8.431   7.562   0.160 -1.0360  1.1750  0.4770
28547SOL    HW286220   8.532   7.658   0.101  1.1756 -1.7669 -0.7984
28548SOL     OW86221   5.491   0.581   6.687 -0.1004 -0.0873 -0.6406
28548SOL    HW186222   5.544   0.648   6.731 -2.2531  1.0868  0.3014
28548SOL    HW286223   5.511   0.500   6.734  1.7128  0.0527 -1.0900
28549SOL     OW86224   4.404   4.696   8.906  0.0320  0.2708 -0.3629
28549SOL    HW186225   4.325   4.658   8.945 -0.2941  0.4645 -0.8316
28549SOL    HW286226   4.396   4.790   8.923 -1.4547  0.7725 -3.1355
28550SOL     OW86227   4.285   6.374   8.282  0.2294  0.1832  0.1894
28550SOL    HW186228   4.208   6.372   8.339 -0.1765  1.1115 -0.3053
28550SOL    HW286229   4.325   6.288   8.293 -2.2381 -1.3006 -1.3688
28551SOL     OW86230   2.952   9.542   2.473 -0.6631 -0.6779  0.4329
28551SOL    HW186231   2.894   9.482   2.520 -2.1807  0.3310 -0.0824
28551SOL    HW286232   2.994   9.593   2.542 -0.4749 -1.3246  0.8104
28552SOL     OW86233   6.841   8.216   7.517 -0.0108 -0.0282  0.1815
28552SOL    HW186234   6.862   8.126   7.492  1.2580  0.5239 -0.8480
28552SOL    HW286235   6.818   8.211   7.610  1.9947 -1.1399  0.6592
28553SOL     OW86236   4.434   8.546   4.922 -0.3146  0.4375  0.9094
28553SOL    HW186237   4.497   8.474   4.924  0.0789  0.5704 -2.0574
28553SOL    HW286238   4.486   8.624   4.939  0.0176  0.3654  0.2682
28554SOL     OW86239   2.075   2.961   9.760  0.3846  0.3819 -0.2347
28554SOL    HW186240   2.153   2.969   9.815  1.1239  1.2811 -1.3626
28554SOL    HW286241   2.094   3.016   9.683 -1.7804  1.4537 -0.0722
28555SOL     OW86242   8.587   2.160   4.333 -0.8936 -0.1346 -0.0771
28555SOL    HW186243   8.674   2.159   4.292 -0.7161  0.6908  0.2465
28555SOL    HW286244   8.601   2.205   4.416 -1.7477  0.5961 -0.3146
28556SOL     OW86245   4.224   4.817   0.783  0.0462  0.4962 -0.0546
28556SOL    HW186246   4.301   4.873   0.793  0.6293 -0.3533  0.2761
28556SOL    HW286247   4.256   4.738   0.740 -0.8049  0.4724 -0.6753
28557SOL     OW86248   1.725   2.145   8.896 -0.4065 -0.1729  0.2547
28557SOL    HW186249   1.669   2.102   8.961 -0.1857 -0.7165  0.0919
28557SOL    HW286250   1.681   2.129   8.812 -2.2254  2.8973  0.4501
28558SOL     OW86251   8.456   7.514   0.918  0.1545  0.4109  0.1757
28558SOL    HW186252   8.521   7.579   0.892  0.0928  0.2205 -0.4810
28558SOL    HW286253   8.473   7.439   0.860 -0.8630  0.4871 -0.2348
28559SOL     OW86254   7.772   0.916   4.477  0.2686  0.3919  0.0107
28559SOL    HW186255   7.779   0.933   4.383 -0.6042  1.2328  0.0854
28559SOL    HW286256   7.862   0.917   4.508  0.5851 -0.1310 -0.8494
28560SOL     OW86257   2.872   6.149   1.781  0.3423 -0.0536 -0.7608
28560SOL    HW186258   2.933   6.146   1.706  1.1742  0.1590 -0.1047
28560SOL    HW286259   2.928   6.162   1.857 -0.4647 -0.7008 -0.0402
28561SOL     OW86260   9.546   4.595   5.091  0.4207 -0.2570  0.2816
28561SOL    HW186261   9.460   4.591   5.132  0.8885 -1.3694  1.2038
28561SOL    HW286262   9.598   4.652   5.148  0.2767  0.5276 -0.3486
28562SOL     OW86263   5.579   7.782   4.156 -0.2270 -0.0373  0.3791
28562SOL    HW186264   5.494   7.750   4.187 -1.3025  0.3727 -1.9141
28562SOL    HW286265   5.633   7.704   4.147 -1.2456 -0.6644 -0.5884
28563SOL     OW86266   7.325   2.221   4.211  0.2067  0.0695  0.2857
28563SOL    HW186267   7.285   2.308   4.207 -0.1187 -0.0586  0.6181
28563SOL    HW286268   7.411   2.236   4.251  0.0988  0.2202  0.4641
28564SOL     OW86269   8.696   4.703   5.127 -0.0104  0.2875 -0.1540
28564SOL    HW186270   8.752   4.752   5.187  0.4428  1.8199 -1.7335
28564SOL    HW286271   8.721   4.735   5.040 -0.2005 -2.2894 -1.2300
28565SOL     OW86272   7.880   7.350   3.676  0.1672  0.0607 -0.2711
28565SOL    HW186273   7.925   7.397   3.746  1.1357 -1.0194 -0.1317
28565SOL    HW286274   7.790   7.340   3.708  0.4589  0.0768  0.5727
28566SOL     OW86275   2.087   1.731   0.964  0.2912 -0.8514  0.6843
28566SOL    HW186276   2.015   1.770   1.014 -0.8661  1.0669 -2.2112
28566SOL    HW286277   2.139   1.805   0.934  0.5386 -1.7904 -1.4156
28567SOL     OW86278   2.332   8.804   9.759  0.2007  0.0952 -0.2802
28567SOL    HW186279   2.330   8.899   9.749 -0.3201  0.1232  0.0164
28567SOL    HW286280   2.303   8.770   9.674  1.4124  0.1649 -0.7371
28568SOL     OW86281   9.527   4.175   7.318 -0.2618 -0.2083  0.1028
28568SOL    HW186282   9.522   4.083   7.341 -1.8626 -0.2536 -0.3415
28568SOL    HW286283   9.475   4.183   7.238  0.4525  0.9518 -0.2728
28569SOL     OW86284   2.993   3.792   2.941 -0.0263 -0.2592  0.1420
28569SOL    HW186285   2.969   3.719   2.999 -2.7068  1.2496  1.0947
28569SOL    HW286286   2.945   3.867   2.976  2.0425  1.8333 -1.2484
28570SOL     OW86287   2.077   5.849   6.813  0.4132 -0.5764 -0.1787
28570SOL    HW186288   2.140   5.804   6.869 -0.9030 -2.5301 -0.1361
28570SOL    HW286289   2.061   5.932   6.857  2.1795 -0.4577  0.3195
28571SOL     OW86290   3.065   1.788   5.947  0.1783  0.7921  0.3426
28571SOL    HW186291   3.067   1.693   5.948 -0.9943  0.6417 -2.3587
28571SOL    HW286292   3.156   1.815   5.937  0.3219 -0.2105 -1.4418
28572SOL     OW86293   1.278   0.276   7.698 -0.6969 -0.0846 -0.1928
28572SOL    HW186294   1.287   0.191   7.741  1.8758 -0.2592 -0.8680
28572SOL    HW286295   1.264   0.255   7.605 -1.9951  0.2718 -0.0983
28573SOL     OW86296   7.725   0.621   2.128 -0.4117 -0.0065 -0.1976
28573SOL    HW186297   7.736   0.614   2.033 -1.7110  2.5044 -0.6413
28573SOL    HW286298   7.679   0.541   2.153 -0.1178 -0.6819 -1.6886
28574SOL     OW86299   3.807   4.211   7.047 -0.6345  0.8190  0.4237
28574SOL    HW186300   3.791   4.299   7.011  1.6575  1.9766  1.9714
28574SOL    HW286301   3.842   4.161   6.973 -0.5451  1.6786 -0.1392
28575SOL     OW86302   8.478   7.922   3.529 -0.3167  0.2439 -0.0016
28575SOL    HW186303   8.431   7.895   3.449 -0.2700  0.4234 -0.0899
28575SOL    HW286304   8.568   7.937   3.500 -0.6658  2.0277 -0.2848
28576SOL     OW86305   7.142   2.536   1.536  0.1484 -0.4195 -0.1584
28576SOL    HW186306   7.170   2.466   1.594 -0.6939 -0.9168 -0.3477
28576SOL    HW286307   7.142   2.614   1.591  1.8166 -0.4017 -0.1241
28577SOL     OW86308   3.480   2.150   8.145  0.2503 -0.6409  0.0964
28577SOL    HW186309   3.500   2.215   8.212 -0.5208 -0.2214 -0.0775
28577SOL    HW286310   3.419   2.193   8.086 -1.1494 -1.8441  0.5769
28578SOL     OW86311   2.477   0.033   6.380 -0.2639 -0.6661 -0.2787
28578SOL    HW186312   2.495  -0.060   6.373 -1.7319 -1.1002  1.1744
28578SOL    HW286313   2.418   0.041   6.455  1.6941  1.6979  1.1471
28579SOL     OW86314   9.582   4.903   6.978  0.7244 -0.4228 -0.1529
28579SOL    HW186315   9.497   4.866   7.003  0.1340  1.5300  1.0391
28579SOL    HW286316   9.594   4.877   6.887 -0.6152 -1.6827 -0.0120
28580SOL     OW86317   0.936   2.044   1.198 -0.4265 -0.0733  0.3348
28580SOL    HW186318   1.008   1.999   1.241  0.3768 -0.1012 -0.9968
28580SOL    HW286319   0.976   2.089   1.124 -1.4717  1.4820  0.6598
28581SOL     OW86320   9.639   4.359   2.987 -0.1147  0.3194 -0.6407
28581SOL    HW186321   9.565   4.318   3.032  0.9617  0.8322  1.7600
28581SOL    HW286322   9.638   4.450   3.016  1.6430  0.2560 -0.2728
28582SOL     OW86323   4.765   3.836   4.777  0.0771  0.7831  0.0927
28582SOL    HW186324   4.685   3.812   4.824 -0.3077  1.0689 -0.4092
28582SOL    HW286325   4.818   3.881   4.843 -0.5561  1.3924  0.2028
28583SOL     OW86326   6.532   7.265   5.173  0.1997 -0.2150 -0.3849
28583SOL    HW186327   6.519   7.357   5.195  1.3619 -0.3306  0.8847
28583SOL    HW286328   6.627   7.253   5.171  0.0692 -1.3723 -0.5743
28584SOL     OW86329   4.041   2.008   6.450 -0.1664  0.0338  0.6233
28584SOL    HW186330   3.946   2.020   6.442 -0.0722  1.6684  1.5040
28584SOL    HW286331   4.057   2.008   6.545  0.9425  2.3598  0.5122
28585SOL     OW86332   5.763   3.692   7.156 -0.1615  0.1803 -0.5242
28585SOL    HW186333   5.837   3.681   7.096 -0.4458  0.0034 -0.8427
28585SOL    HW286334   5.688   3.708   7.099 -0.5653 -0.6749 -0.2591
28586SOL     OW86335   5.785   1.283   2.897 -0.5200 -0.2172 -0.6178
28586SOL    HW186336   5.775   1.371   2.932 -0.6860 -0.2027 -0.7061
28586SOL    HW286337   5.786   1.227   2.975  0.5972 -0.0512 -0.4870
28587SOL     OW86338   9.073   5.499   5.424  0.2201  0.4539  0.0644
28587SOL    HW186339   9.114   5.426   5.470 -0.1680  1.2867  1.8383
28587SOL    HW286340   9.140   5.530   5.363  0.7562 -0.7061  0.0432
28588SOL     OW86341   8.270   7.105   2.665 -0.4075  0.3919 -0.1507
28588SOL    HW186342   8.202   7.160   2.703  0.1545  0.6227  0.5279
28588SOL    HW286343   8.229   7.019   2.655 -0.2795  0.0384  1.9426
28589SOL     OW86344   4.779   4.562   6.675  0.6007 -0.6088 -0.0316
28589SOL    HW186345   4.836   4.500   6.630  0.0446 -1.8496  0.9262
28589SOL    HW286346   4.830   4.593   6.749  0.7291 -0.2222 -0.2788
28590SOL     OW86347   0.429   8.028   9.327 -0.6348 -0.0842  0.1317
28590SOL    HW186348   0.333   8.026   9.322 -0.7120 -0.2298  1.3572
28590SOL    HW286349   0.457   8.057   9.240 -1.8274  0.8168  0.0225
28591SOL     OW86350   8.719   1.000   9.269 -0.0119  0.0593  0.1819
28591SOL    HW186351   8.797   0.976   9.219  1.1469 -1.5066  2.5587
28591SOL    HW286352   8.745   1.078   9.317 -0.1616 -0.0316  0.4117
28592SOL     OW86353   0.587   0.497   1.041  0.0293  0.0070  0.6863
28592SOL    HW186354   0.527   0.572   1.040  0.9006  0.7960 -2.1517
28592SOL    HW286355   0.674   0.535   1.027  0.6638 -1.4257  0.5816
28593SOL     OW86356   9.095   4.471   7.726 -0.2195  0.6166  0.1542
28593SOL    HW186357   9.162   4.523   7.769 -1.2015  1.0668  1.1944
28593SOL    HW286358   9.040   4.535   7.681  0.6516  0.1755 -1.6403
28594SOL     OW86359   9.284   6.480   9.497  0.0524 -0.2091  0.3448
28594SOL    HW186360   9.320   6.567   9.513 -1.2400  0.5097 -0.4525
28594SOL    HW286361   9.356   6.430   9.459  0.2648  1.1531 -1.1430
28595SOL     OW86362   3.834   7.434   7.751 -0.2465  0.4372 -0.1487
28595SOL    HW186363   3.892   7.420   7.676  0.6799  1.1915  0.4014
28595SOL    HW286364   3.846   7.356   7.805 -0.0736  0.3945 -0.2459
28596SOL     OW86365   9.337   6.166   4.672 -0.2633  0.1757 -0.3392
28596SOL    HW186366   9.414   6.183   4.726 -0.6767  1.4945 -0.1281
28596SOL    HW286367   9.265   6.161   4.734 -0.5605  0.4194 -0.6645
28597SOL     OW86368   4.187   7.446   2.084 -0.0519 -0.2255 -0.2084
28597SOL    HW186369   4.124   7.408   2.145  0.8015 -2.6021 -0.6993
28597SOL    HW286370   4.249   7.494   2.138  0.3390 -1.7724  0.7460
28598SOL     OW86371   9.220   4.828   4.196 -0.8348  0.0823  0.1844
28598SOL    HW186372   9.245   4.879   4.273 -0.4687 -0.5381  0.4895
28598SOL    HW286373   9.217   4.737   4.228 -1.5920 -0.0785 -0.3102
28599SOL     OW86374   2.887   4.339   8.169  0.4810 -0.0403  0.0979
28599SOL    HW186375   2.952   4.278   8.205 -1.4717 -2.0370  0.4836
28599SOL    HW286376   2.831   4.361   8.243  0.1911  0.9653 -0.3999
28600SOL     OW86377   7.232   6.958   0.070  0.1468  0.4276 -0.2122
28600SOL    HW186378   7.244   6.999   0.155  2.3890 -2.0138  0.7797
28600SOL    HW286379   7.230   6.864   0.088 -0.3188 -0.1434 -2.7613
28601SOL     OW86380   0.837   3.756   0.080  0.0595 -0.4591  0.4812
28601SOL    HW186381   0.751   3.782   0.112 -1.0233 -0.9227 -1.8516
28601SOL    HW286382   0.838   3.660   0.087  0.4708 -0.4495  0.6313
28602SOL     OW86383   0.232   0.557   8.795 -0.1225 -0.1623  0.2668
28602SOL    HW186384   0.289   0.553   8.872  0.4470 -0.0980 -0.1453
28602SOL    HW286385   0.288   0.589   8.725 -0.5135 -0.6806 -0.2957
28603SOL     OW86386   3.506   2.884   1.400 -0.6987 -0.0279  0.3052
28603SOL    HW186387   3.516   2.979   1.404 -0.5036  0.0770 -1.6067
28603SOL    HW286388   3.569   2.850   1.463  0.3145  1.0791 -0.0865
28604SOL     OW86389   5.552   0.026   0.152  0.1553  0.3733 -0.0894
28604SOL    HW186390   5.635  -0.021   0.163 -0.4765 -0.9098 -0.6724
28604SOL    HW286391   5.543   0.077   0.233  0.6650 -0.8235  0.7429
28605SOL     OW86392   6.165   3.518   7.525  0.6214 -0.1473 -0.4201
28605SOL    HW186393   6.168   3.456   7.453  0.0960  1.5335 -1.9745
28605SOL    HW286394   6.136   3.600   7.485  0.1437  0.8197  1.7406
28606SOL     OW86395   4.845   1.712   4.632  0.8096  0.2251  0.0512
28606SOL    HW186396   4.940   1.705   4.642  1.3042  2.9177 -1.6887
28606SOL    HW286397   4.810   1.653   4.699  3.6583 -1.3236  0.3670
28607SOL     OW86398   4.008   1.337   5.966 -0.4162  0.2601 -0.2017
28607SOL    HW186399   3.924   1.344   6.012 -1.3201  0.2202 -1.7694
28607SOL    HW286400   4.003   1.404   5.897 -0.0148 -1.0892 -1.5894
28608SOL     OW86401   1.510   9.607   5.038 -0.0077 -0.3731 -0.4517
28608SOL    HW186402   1.467   9.595   5.122  1.3911 -0.2925  0.3105
28608SOL    HW286403   1.445   9.579   4.973  0.2811 -4.5587  0.7711
28609SOL     OW86404   6.812   8.428   6.939 -0.7612 -0.0789  0.7419
28609SOL    HW186405   6.808   8.439   6.844 -0.9926 -1.7253  0.5248
28609SOL    HW286406   6.881   8.363   6.953 -1.9476 -1.2166  1.5420
28610SOL     OW86407   4.552   6.490   9.527 -0.2460 -0.4372  0.2615
28610SOL    HW186408   4.544   6.585   9.526 -0.2369 -0.4356 -0.5193
28610SOL    HW286409   4.647   6.474   9.527 -0.2478 -0.4457  0.5414
28611SOL     OW86410   4.599   1.777   1.868 -0.0719 -0.4918 -0.3322
28611SOL    HW186411   4.674   1.791   1.926 -0.5390  2.0895 -0.2087
28611SOL    HW286412   4.524   1.772   1.927 -0.4826  1.6048 -0.5723
28612SOL     OW86413   3.229   8.378   2.356  0.7694  0.0047  0.1612
28612SOL    HW186414   3.248   8.405   2.446 -0.0211  0.0507  0.3205
28612SOL    HW286415   3.134   8.365   2.354  0.5651  1.3968 -1.0328
28613SOL     OW86416   6.005   9.249   9.137  0.6141 -0.2237 -0.0077
28613SOL    HW186417   5.985   9.315   9.071 -1.2024  0.1155  0.8381
28613SOL    HW286418   6.085   9.207   9.104 -0.6725 -0.6621 -2.8364
28614SOL     OW86419   6.739   2.817   7.080  0.1758  0.2127  0.1849
28614SOL    HW186420   6.722   2.802   7.173  1.5581 -0.0892  0.4111
28614SOL    HW286421   6.658   2.791   7.036 -0.2860 -0.2051  1.2505
28615SOL     OW86422   3.159   6.439   4.095 -0.2119  0.4904 -0.1211
28615SOL    HW186423   3.167   6.527   4.132  0.7031  0.1402  0.5546
28615SOL    HW286424   3.187   6.381   4.166  0.8123 -0.2468 -1.1040
28616SOL     OW86425   2.083   3.353   8.818  0.1824 -0.3040 -0.3769
28616SOL    HW186426   2.014   3.287   8.818 -1.4135  1.2729  0.7792
28616SOL    HW286427   2.061   3.412   8.746  0.4885  0.0392 -0.1983
28617SOL     OW86428   5.037   0.941   6.814  0.1977 -0.4745  0.0588
28617SOL    HW186429   5.070   0.991   6.740 -0.2991 -0.0549  0.1132
28617SOL    HW286430   4.958   0.899   6.781 -0.3102  0.1209  0.4793
28618SOL     OW86431   0.705   9.203   4.007  0.4024 -0.3083 -0.0992
28618SOL    HW186432   0.674   9.289   4.034 -1.1596 -0.1055 -2.2778
28618SOL    HW286433   0.799   9.214   3.992  0.9354  0.0811  2.8379
28619SOL     OW86434   8.992   7.151   6.824  0.5269 -0.3038  0.2975
28619SOL    HW186435   8.946   7.068   6.831  0.8420 -0.5436 -0.3736
28619SOL    HW286436   9.048   7.154   6.901 -0.3085 -0.1873  0.9140
28620SOL     OW86437   8.149   7.760   2.886 -0.7621  0.3503  0.2842
28620SOL    HW186438   8.164   7.797   2.799 -0.7508  0.3160  0.2716
28620SOL    HW286439   8.154   7.665   2.873  0.9848  0.3590  0.6177
28621SOL     OW86440   1.704   2.240   9.383 -0.5911  0.4374  0.7837
28621SOL    HW186441   1.656   2.188   9.319 -0.0243 -1.5338  1.8764
28621SOL    HW286442   1.745   2.176   9.441  0.6919  2.0996  1.8381
28622SOL     OW86443   2.664   9.154   0.777  0.0621  0.5296  0.2876
28622SOL    HW186444   2.716   9.206   0.838 -0.5104  0.1048  1.1649
28622SOL    HW286445   2.620   9.088   0.832  0.1821 -0.4053 -0.6906
28623SOL     OW86446   8.297   2.283   8.487  0.2397 -0.1817  0.6419
28623SOL    HW186447   8.256   2.211   8.536 -0.7922  0.6198  0.9936
28623SOL    HW286448   8.250   2.284   8.404 -0.8913  1.0907  1.2573
28624SOL     OW86449   0.845   1.253   6.210  0.3502 -0.9445  0.0874
28624SOL    HW186450   0.888   1.244   6.125 -0.0710 -0.5922 -0.1651
28624SOL    HW286451   0.838   1.163   6.243  2.5011 -0.9358  0.7663
28625SOL     OW86452   9.446   2.962   7.628  0.5012  0.8118  0.0147
28625SOL    HW186453   9.436   2.888   7.567  3.6010 -0.6396  1.0641
28625SOL    HW286454   9.371   2.955   7.687  0.8905 -1.8239  0.3166
28626SOL     OW86455   1.464   8.992   3.493  0.1138 -0.3083  0.1801
28626SOL    HW186456   1.488   9.049   3.566 -1.4281 -1.5588  1.7519
28626SOL    HW286457   1.388   9.034   3.453  0.7182  0.1723 -0.4951
28627SOL     OW86458   6.739   2.310   1.873  0.5981 -0.9368 -0.2702
28627SOL    HW186459   6.703   2.265   1.797 -1.2485  0.2181 -0.1524
28627SOL    HW286460   6.664   2.353   1.913  1.9421  0.5921  0.7527
28628SOL     OW86461   5.586   0.258   9.508  0.4786 -0.7264 -0.0003
28628SOL    HW186462   5.618   0.275   9.597 -1.4309  4.0384  0.0668
28628SOL    HW286463   5.538   0.175   9.516 -0.6539  0.0778  3.8007
28629SOL     OW86464   2.560   0.328   3.486 -0.1710  0.2492  0.1846
28629SOL    HW186465   2.586   0.251   3.536  0.0781  0.0798 -0.2014
28629SOL    HW286466   2.465   0.329   3.490 -0.1383  0.9554  1.7369
28630SOL     OW86467   0.842   2.135   9.255  0.1108 -0.3362  0.0932
28630SOL    HW186468   0.925   2.128   9.208  0.1432  0.0440  0.0892
28630SOL    HW286469   0.841   2.225   9.289 -0.5111 -0.1808 -0.3143
28631SOL     OW86470   9.160   3.104   9.890  0.4977  0.3977  0.2425
28631SOL    HW186471   9.163   3.187   9.843  0.5905  1.5624  2.2015
28631SOL    HW286472   9.067   3.085   9.899  0.4764 -0.8279 -1.9887
28632SOL     OW86473   2.156   2.083   3.201 -0.0879 -0.0412 -1.1886
28632SOL    HW186474   2.101   2.004   3.202  1.9201 -1.5100 -0.6568
28632SOL    HW286475   2.094   2.155   3.185 -2.1918 -1.5484 -0.3423
28633SOL     OW86476   3.475   4.794   2.179 -0.2739  0.5469  0.1272
28633SOL    HW186477   3.545   4.729   2.186 -1.6426 -1.4147 -2.3790
28633SOL    HW286478   3.438   4.800   2.267  1.8534  0.2673  1.0803
28634SOL     OW86479   8.569   1.696   3.796 -0.2224 -0.9812 -0.6920
28634SOL    HW186480   8.525   1.781   3.800  0.7721 -0.4328 -0.9428
28634SOL    HW286481   8.662   1.717   3.802  0.0386 -2.0661 -0.6747
28635SOL     OW86482   1.186   9.536   5.773  0.1455 -0.3424 -0.3728
28635SOL    HW186483   1.151   9.605   5.716  2.3534  0.3639 -0.9790
28635SOL    HW286484   1.184   9.457   5.718 -2.7409 -0.9385  0.4480
28636SOL     OW86485   9.146   2.986   5.960 -0.3741 -0.0854 -0.3562
28636SOL    HW186486   9.058   3.004   5.993  0.0563  1.3912  0.0438
28636SOL    HW286487   9.201   3.052   6.001  1.1432 -1.6801  0.3035
28637SOL     OW86488   5.923   9.055   9.322  0.4045  0.1647 -0.1768
28637SOL    HW186489   5.967   9.106   9.253 -1.1851  2.1328  0.1918
28637SOL    HW286490   5.982   9.061   9.397  0.4213  1.1368 -0.2621
28638SOL     OW86491   1.329   2.952   0.312 -0.2530 -0.6691 -0.3120
28638SOL    HW186492   1.353   2.860   0.304 -1.0044 -0.8763 -0.2876
28638SOL    HW286493   1.258   2.952   0.377  1.3125  0.2055  1.4808
28639SOL     OW86494   7.503   7.039   7.115 -0.0462 -0.1441  0.4200
28639SOL    HW186495   7.415   7.006   7.135  0.1772  0.1547  2.0042
28639SOL    HW286496   7.487   7.125   7.076 -0.4829 -0.5538 -0.3409
28640SOL     OW86497   1.688   4.448   1.099  0.1137  0.1097  0.3267
28640SOL    HW186498   1.626   4.518   1.077 -0.0320 -0.5262 -1.3953
28640SOL    HW286499   1.715   4.468   1.189 -0.4857  1.9543  0.1431
28641SOL     OW86500   1.310   3.363   5.430 -0.8097 -0.0754  0.0184
28641SOL    HW186501   1.214   3.359   5.434 -0.9986  1.9407 -1.1637
28641SOL    HW286502   1.334   3.289   5.374 -1.6299 -0.8178  0.6105
28642SOL     OW86503   1.225   0.956   5.657  0.7039  0.0100 -0.2383
28642SOL    HW186504   1.191   1.037   5.620 -0.1626 -0.6938 -1.0510
28642SOL    HW286505   1.180   0.887   5.608  1.2886 -0.9584  0.5506
28643SOL     OW86506   9.081   4.641   4.873  0.5322  0.4300  0.5362
28643SOL    HW186507   9.097   4.568   4.812 -0.0953 -0.7353  1.7188
28643SOL    HW286508   9.112   4.718   4.826  4.9161 -0.9662  0.7121
28644SOL     OW86509   6.124   0.687   4.148  0.4150 -0.1216 -0.0766
28644SOL    HW186510   6.063   0.679   4.074 -0.5393  1.4013  0.5124
28644SOL    HW286511   6.110   0.608   4.199 -0.5000 -0.1544 -0.3684
28645SOL     OW86512   3.967   0.502   1.530 -0.5218  0.3559 -0.0622
28645SOL    HW186513   4.056   0.474   1.551 -0.7617  0.5055  1.2610
28645SOL    HW286514   3.957   0.481   1.437  0.2693 -1.3506  0.1823
28646SOL     OW86515   2.444   1.796   1.990  0.7697 -0.2329 -0.0587
28646SOL    HW186516   2.395   1.715   1.977 -0.3666  0.4710 -0.3475
28646SOL    HW286517   2.388   1.864   1.953  1.2640  0.8172  1.0410
28647SOL     OW86518   7.773   5.524   8.316  0.1355  0.3086  0.2005
28647SOL    HW186519   7.822   5.506   8.236  0.1649  0.9643  0.0725
28647SOL    HW286520   7.784   5.445   8.369  1.1566  0.3775  0.0952
28648SOL     OW86521   5.140   1.864   0.582 -0.5003 -0.0725  0.6991
28648SOL    HW186522   5.073   1.867   0.651  1.4180  1.1605  2.6527
28648SOL    HW286523   5.148   1.955   0.553  0.3426 -0.1915  0.5361
28649SOL     OW86524   9.974   2.217   3.733  0.3516  0.2468 -0.1194
28649SOL    HW186525   9.901   2.186   3.679  1.0906 -0.2738 -0.8358
28649SOL    HW286526  10.053   2.186   3.688  1.0000 -0.1281  1.2149
28650SOL     OW86527   8.672   5.436   9.950  0.4602 -0.0370 -0.0469
28650SOL    HW186528   8.706   5.525   9.959  0.5872  0.0124 -0.9828
28650SOL    HW286529   8.676   5.418   9.856 -0.1584 -0.7964  0.0652
28651SOL     OW86530   5.795   3.127   3.047  0.1714  0.2313  0.8564
28651SOL    HW186531   5.849   3.069   3.100  0.0906  0.2310  0.9387
28651SOL    HW286532   5.854   3.162   2.980  0.5527  1.0994  1.6270
28652SOL     OW86533   8.873   8.471   2.510 -0.1857  0.4998  0.7668
28652SOL    HW186534   8.842   8.466   2.419  0.7056 -1.4552  0.5317
28652SOL    HW286535   8.807   8.424   2.560  0.0930  0.2802  0.9256
28653SOL     OW86536   0.677   0.535   2.001  0.2695  0.4590 -0.3701
28653SOL    HW186537   0.662   0.628   2.021  1.3258  0.5088  0.2385
28653SOL    HW286538   0.729   0.536   1.921 -0.3612  0.3535 -0.7962
28654SOL     OW86539   6.811   2.244   5.331 -0.0242  0.5001  0.1344
28654SOL    HW186540   6.811   2.317   5.393  1.1318  0.1695  0.5673
28654SOL    HW286541   6.746   2.267   5.266  1.3620  2.6494 -0.5885
28655SOL     OW86542   2.313   6.785   7.821  0.1481 -0.6455 -0.1202
28655SOL    HW186543   2.220   6.795   7.801 -0.5910 -1.6288  2.3494
28655SOL    HW286544   2.325   6.690   7.829  1.0961 -0.4793  0.5683
28656SOL     OW86545   8.953   0.994   9.917  0.0734 -0.1763 -0.0588
28656SOL    HW186546   9.024   0.942   9.880 -0.1649 -0.4599 -0.1163
28656SOL    HW286547   8.879   0.983   9.857  0.0299  0.2595 -0.0959
28657SOL     OW86548   5.771   0.046   2.116 -0.4086 -0.2118  0.5403
28657SOL    HW186549   5.862   0.041   2.086  0.0371 -0.9615  1.9660
28657SOL    HW286550   5.738   0.127   2.076  0.6208 -0.3505 -0.6600
28658SOL     OW86551   4.900   0.019   2.257  0.1421  0.3218 -0.2043
28658SOL    HW186552   4.904   0.099   2.308 -1.4746  1.6192 -1.9863
28658SOL    HW286553   4.972   0.026   2.195 -1.2120  1.4244 -1.7058
28659SOL     OW86554   5.990   1.553   2.995 -0.1910 -0.1689  0.3127
28659SOL    HW186555   5.972   1.570   3.087 -1.8228 -2.2390  0.4442
28659SOL    HW286556   6.078   1.516   2.994 -0.2632 -0.3678  1.0602
28660SOL     OW86557   5.857   4.873   6.088 -0.2558 -0.7954  0.2402
28660SOL    HW186558   5.849   4.968   6.088 -1.3161 -0.8670 -0.2182
28660SOL    HW286559   5.909   4.853   6.165  2.4743  0.3136 -1.1922
28661SOL     OW86560   4.177   2.200   7.993  0.6770  0.4025  0.1145
28661SOL    HW186561   4.165   2.262   7.921 -0.6380  1.7676  1.4144
28661SOL    HW286562   4.191   2.256   8.070  1.4097 -0.9850  1.0354
28662SOL     OW86563   4.303   6.220   3.539 -0.1241  0.9365  0.4057
28662SOL    HW186564   4.321   6.188   3.628  0.0817  1.0853  0.4179
28662SOL    HW286565   4.208   6.215   3.531 -0.1291  0.7485  0.5701
28663SOL     OW86566   5.155   8.413   6.456  0.0643 -0.0415  0.2782
28663SOL    HW186567   5.239   8.378   6.423  0.0939  0.3232 -0.0453
28663SOL    HW286568   5.165   8.508   6.450 -0.5521 -0.0038 -0.2184
28664SOL     OW86569   8.122   5.361   9.713 -0.0548  0.0509 -0.1120
28664SOL    HW186570   8.096   5.416   9.787  0.9323 -0.8621  0.9579
28664SOL    HW286571   8.071   5.394   9.640  0.1196  2.0378  0.5980
28665SOL     OW86572   1.708   8.154   1.244 -0.1196 -0.0891  0.4231
28665SOL    HW186573   1.766   8.173   1.171  0.1375 -0.4142  0.5394
28665SOL    HW286574   1.684   8.239   1.279 -0.4781  0.0833 -0.2235
28666SOL     OW86575   3.737   9.044   6.191 -0.4497 -0.2451 -0.3335
28666SOL    HW186576   3.694   8.965   6.161 -0.9376 -1.3422  2.8046
28666SOL    HW286577   3.668   9.093   6.237  0.5455  0.3278  0.6186
28667SOL     OW86578   7.059   6.965   5.887 -0.1242 -0.4508  0.3004
28667SOL    HW186579   7.141   6.949   5.933  0.1271 -1.0506 -0.3441
28667SOL    HW286580   7.078   7.038   5.828 -0.1505 -0.3714  0.3893
28668SOL     OW86581   0.785   0.999   0.660 -0.5160  0.5961 -0.1530
28668SOL    HW186582   0.880   1.012   0.669 -0.0219 -1.2853 -1.9531
28668SOL    HW286583   0.759   1.060   0.591 -0.6306  1.0570  0.2878
28669SOL     OW86584   3.563   1.757   8.433  0.4260 -0.1220 -0.1373
28669SOL    HW186585   3.569   1.799   8.519  0.0264 -0.7468  0.2024
28669SOL    HW286586   3.480   1.788   8.396  1.0664  0.9471 -0.7472
28670SOL     OW86587   3.674   0.398   1.227  0.3451  0.1006 -0.0751
28670SOL    HW186588   3.642   0.484   1.255 -1.3188 -0.1969 -0.9411
28670SOL    HW286589   3.598   0.356   1.186  0.5461 -2.5574  1.9944
28671SOL     OW86590   2.095   2.663   4.486  0.0695 -0.1613 -0.0032
28671SOL    HW186591   2.124   2.582   4.444  1.4106  0.6423 -0.7242
28671SOL    HW286592   2.066   2.637   4.573 -0.5800 -1.5519 -0.6092
28672SOL     OW86593   2.292   2.390   2.230  0.8183 -0.0591 -0.8390
28672SOL    HW186594   2.254   2.306   2.253  1.1264  0.3381  1.3184
28672SOL    HW286595   2.222   2.437   2.184 -0.8888  0.1002  1.7363
28673SOL     OW86596   4.672   0.130   4.678  0.1765 -0.0849  0.0757
28673SOL    HW186597   4.598   0.155   4.734  1.1829  0.5897  1.1559
28673SOL    HW286598   4.720   0.064   4.729 -0.2133 -1.2637 -1.0447
28674SOL     OW86599   5.112   0.748   4.437 -0.4801  0.8119  0.4107
28674SOL    HW186600   5.019   0.766   4.452 -0.4427  2.2219 -0.8040
28674SOL    HW286601   5.130   0.786   4.351  1.1749  0.3728  0.5349
28675SOL     OW86602   5.903   1.356   2.240 -0.0552 -0.5643 -0.0245
28675SOL    HW186603   5.949   1.436   2.266 -0.1074 -0.5109 -0.0999
28675SOL    HW286604   5.940   1.333   2.155 -2.1147  1.0225 -1.4546
28676SOL     OW86605   5.120   0.915   1.469  0.2071 -0.3882  0.2684
28676SOL    HW186606   5.135   1.006   1.495 -1.7024  0.2127 -0.5103
28676SOL    HW286607   5.046   0.887   1.525 -1.4584 -0.3020 -1.7738
28677SOL     OW86608   2.766   7.953   7.197 -0.0457 -0.1530 -0.2670
28677SOL    HW186609   2.717   8.005   7.260 -0.3247  0.4187 -0.9477
28677SOL    HW286610   2.855   7.989   7.200 -0.1497  0.1195 -0.4717
28678SOL     OW86611   2.175   8.844   8.230  0.2440  0.0877 -0.4508
28678SOL    HW186612   2.261   8.853   8.273 -0.4410  0.6942  0.8660
28678SOL    HW286613   2.176   8.756   8.193  0.4815 -0.9472  1.8075
28679SOL     OW86614   0.273   0.554   1.612 -0.0932  0.6653  0.3164
28679SOL    HW186615   0.343   0.607   1.574 -0.4169  1.0208  0.2118
28679SOL    HW286616   0.198   0.613   1.617 -0.8476 -0.1397 -1.0319
28680SOL     OW86617   2.649   3.828   8.342 -0.7599  0.5509 -0.2059
28680SOL    HW186618   2.679   3.766   8.409 -0.2916  1.2559  0.2478
28680SOL    HW286619   2.693   3.799   8.262  1.2084  1.5671  0.4412
28681SOL     OW86620   1.351   8.313   1.876  0.6085  0.5851  0.1640
28681SOL    HW186621   1.378   8.243   1.936 -0.3749 -0.1596 -0.2426
28681SOL    HW286622   1.287   8.364   1.925 -0.5935 -0.3366 -0.3989
28682SOL     OW86623   1.598   9.923   3.087  0.2532 -0.2456 -0.4095
28682SOL    HW186624   1.597   9.827   3.085  0.0298 -0.2642  0.2967
28682SOL    HW286625   1.512   9.947   3.123  0.6177  0.1961  0.1892
28683SOL     OW86626   1.018   9.564   0.855  0.6350 -0.0269 -0.0446
28683SOL    HW186627   1.101   9.595   0.889  2.8065 -4.3937 -0.6914
28683SOL    HW286628   1.013   9.601   0.767  1.7155  0.5081  0.1041
28684SOL     OW86629   0.879   6.737   4.078  0.0366 -0.1301 -0.2976
28684SOL    HW186630   0.889   6.811   4.138 -0.1470 -0.4632  0.1458
28684SOL    HW286631   0.806   6.687   4.113  1.0090 -1.2509  0.1709
28685SOL     OW86632   2.124   0.361   4.253  0.4222  0.8849 -0.0365
28685SOL    HW186633   2.124   0.278   4.301  0.9285  1.2618  0.6181
28685SOL    HW286634   2.165   0.339   4.169  1.2096  0.6128  0.4057
28686SOL     OW86635   6.267   0.759   1.228 -0.7120 -0.2902  0.1570
28686SOL    HW186636   6.320   0.680   1.220  1.8963  1.2350  1.1483
28686SOL    HW286637   6.183   0.736   1.189  0.6621 -2.8422 -1.5501
28687SOL     OW86638   3.565   8.850   5.619 -0.5668  0.2130  0.2743
28687SOL    HW186639   3.488   8.819   5.667 -0.5442  2.2670  1.7586
28687SOL    HW286640   3.611   8.770   5.594 -1.4289 -1.0017  2.2999
28688SOL     OW86641   4.712   5.167   5.094  0.0313 -0.1289  0.7490
28688SOL    HW186642   4.648   5.099   5.117 -0.5216  0.4094  0.8383
28688SOL    HW286643   4.762   5.130   5.022 -2.6195  0.6793 -1.6896
28689SOL     OW86644   8.015   6.610   8.515 -0.4529  0.0535 -0.0417
28689SOL    HW186645   7.964   6.537   8.480 -0.8496  0.2718  0.0828
28689SOL    HW286646   8.064   6.571   8.587 -0.2687 -0.2060 -0.2996
28690SOL     OW86647   8.149   3.761   8.880 -0.2083 -0.1897  0.3847
28690SOL    HW186648   8.059   3.735   8.861 -0.0575 -0.4955  0.0804
28690SOL    HW286649   8.164   3.734   8.970 -0.1699 -0.8405  0.1854
28691SOL     OW86650   9.236   1.785   4.168  0.3496  0.0644  0.5966
28691SOL    HW186651   9.305   1.752   4.226  0.0661 -2.4666 -0.4040
28691SOL    HW286652   9.157   1.784   4.222  0.1689 -1.8742  0.3460
28692SOL     OW86653   9.707   0.638   0.714 -0.5994  0.0455 -0.6993
28692SOL    HW186654   9.678   0.574   0.780 -0.8532  1.5575  0.7219
28692SOL    HW286655   9.631   0.694   0.700  0.3822  1.6436  0.1023
28693SOL     OW86656   9.059   5.146   8.055  0.2430  0.3415 -0.2443
28693SOL    HW186657   9.049   5.185   7.968  0.4669  0.5151 -0.1908
28693SOL    HW286658   9.152   5.155   8.075  0.0321  1.1293  0.4014
28694SOL     OW86659   0.818   4.136   5.955 -0.1918  0.0409  1.0741
28694SOL    HW186660   0.723   4.126   5.969 -0.0248 -0.6439  1.7581
28694SOL    HW286661   0.840   4.068   5.892 -0.3276  0.8864  0.0853
28695SOL     OW86662   0.926   5.578   9.875  0.1759  0.2271  0.3672
28695SOL    HW186663   0.947   5.664   9.910  1.0977 -0.1362  0.7390
28695SOL    HW286664   0.854   5.546   9.930  0.9326  0.0834  1.2940
28696SOL     OW86665   0.927   1.776   0.256 -0.1259  0.3549 -0.1053
28696SOL    HW186666   0.898   1.822   0.336 -1.5747 -0.5528 -0.0677
28696SOL    HW286667   0.974   1.700   0.287  2.5845  1.8942 -0.1687
28697SOL     OW86668   8.429   3.936   3.572  0.0527  0.0900 -0.0705
28697SOL    HW186669   8.400   3.932   3.663  0.5352 -1.6447  0.0507
28697SOL    HW286670   8.351   3.913   3.521  0.0562 -0.0108 -0.0308
28698SOL     OW86671   1.648   5.865   2.433 -0.3571  0.5829 -0.0494
28698SOL    HW186672   1.620   5.940   2.485  1.0645  0.3764  1.0606
28698SOL    HW286673   1.677   5.800   2.497 -0.2598 -0.3807 -1.0390
28699SOL     OW86674   1.318   2.507   0.234  0.0731 -0.3825 -0.6924
28699SOL    HW186675   1.256   2.463   0.292 -0.9610  0.1760 -1.3577
28699SOL    HW286676   1.321   2.453   0.155  1.3479 -1.0471 -0.2286
28700SOL     OW86677   6.703   2.525   3.944  0.1277  0.0831  0.2621
28700SOL    HW186678   6.725   2.556   4.032 -1.1998 -2.9853  1.8492
28700SOL    HW286679   6.633   2.584   3.915  0.6091  1.1802  1.2294
28701SOL     OW86680   4.086   8.497   9.091 -0.2800 -0.1327 -0.0104
28701SOL    HW186681   4.051   8.573   9.045  0.5869 -0.0748 -0.5964
28701SOL    HW286682   4.135   8.535   9.165  1.2905 -0.0113 -1.0617
28702SOL     OW86683   4.503   7.074   7.183 -0.7515  0.0321 -0.1038
28702SOL    HW186684   4.443   7.098   7.113 -2.0001 -1.1850  0.5063
28702SOL    HW286685   4.486   6.981   7.199  0.5106 -0.0628  0.8443
28703SOL     OW86686   9.271   8.258   8.390 -0.7375  0.3368  0.7638
28703SOL    HW186687   9.268   8.284   8.298 -0.3005 -0.3313  0.5492
28703SOL    HW286688   9.328   8.323   8.431  0.2862 -0.2032  0.2512
28704SOL     OW86689   8.149   4.547   2.320  0.1205  0.0885  0.6439
28704SOL    HW186690   8.198   4.594   2.387  0.1138  0.1541  0.6035
28704SOL    HW286691   8.215   4.518   2.258  0.0078  1.1814 -0.0275
28705SOL     OW86692   8.615   9.368   6.636 -0.6326 -0.2356 -0.0877
28705SOL    HW186693   8.552   9.391   6.567 -1.5484 -2.0723  0.0918
28705SOL    HW286694   8.685   9.322   6.590  0.1695  0.9984 -0.1517
28706SOL     OW86695   5.684   7.747   6.519  0.1710 -0.0009  0.4718
28706SOL    HW186696   5.714   7.693   6.592 -0.6791 -0.8574  0.2116
28706SOL    HW286697   5.665   7.832   6.559 -0.1973 -0.4321  1.2508
28707SOL     OW86698   5.168   1.978   7.028  0.2832 -0.6225 -0.2384
28707SOL    HW186699   5.234   1.936   7.083 -0.5750  0.9532  2.1786
28707SOL    HW286700   5.088   1.974   7.080 -0.6558  0.7345 -1.4932
28708SOL     OW86701   2.735   7.349   6.376 -0.0735 -0.2352  0.1516
28708SOL    HW186702   2.651   7.386   6.347  0.4572  0.9744  0.0978
28708SOL    HW286703   2.715   7.308   6.460 -1.0967 -1.5884 -0.7141
28709SOL     OW86704   7.980   1.423   9.784 -0.4237  0.4027  0.3278
28709SOL    HW186705   8.020   1.509   9.772  1.3231 -0.4553 -0.3257
28709SOL    HW286706   7.929   1.409   9.704 -1.7372  1.3194  0.9742
28710SOL     OW86707   0.961   0.805   2.252 -0.0091  0.3754  0.1577
28710SOL    HW186708   0.904   0.832   2.323 -1.7701  1.5867 -1.6195
28710SOL    HW286709   0.950   0.710   2.247 -1.5178  0.5318  0.1605
28711SOL     OW86710   5.496   4.566   1.144  0.4413 -0.0594 -0.2106
28711SOL    HW186711   5.523   4.603   1.060  2.4000  0.0773  0.4359
28711SOL    HW286712   5.463   4.640   1.194 -3.0794 -0.4940 -1.6389
28712SOL     OW86713   8.095   2.135   9.892 -0.1695 -0.5450  0.1328
28712SOL    HW186714   8.053   2.158   9.809 -0.5022  0.0177  0.4483
28712SOL    HW286715   8.189   2.141   9.873 -0.2097 -2.0653 -0.6443
28713SOL     OW86716   7.237   2.908   8.458  0.8060 -0.3734  0.0620
28713SOL    HW186717   7.194   2.947   8.382  1.0071  0.4642  0.3671
28713SOL    HW286718   7.306   2.854   8.422  1.1591  0.3402 -0.3401
28714SOL     OW86719   8.371   2.642   0.103  0.0432 -0.2903 -0.2647
28714SOL    HW186720   8.386   2.704   0.031 -0.8034  0.3790  0.1293
28714SOL    HW286721   8.334   2.565   0.060 -1.0589  0.3459 -0.4791
28715SOL     OW86722   3.463   8.878   7.563  0.4809  0.2506  0.3156
28715SOL    HW186723   3.517   8.957   7.549 -0.4785  0.8749  0.0458
28715SOL    HW286724   3.422   8.862   7.477 -1.2638  0.9337  0.9785
28716SOL     OW86725   2.061   6.954   9.606 -0.0233 -0.0341  0.1761
28716SOL    HW186726   1.970   6.923   9.613  0.8892 -3.7643 -1.9550
28716SOL    HW286727   2.111   6.891   9.658  1.6641 -0.2422 -1.6044
28717SOL     OW86728   8.046   9.617   8.393  0.0915 -0.1290 -0.2043
28717SOL    HW186729   7.960   9.645   8.362  0.6353  0.2060 -1.4778
28717SOL    HW286730   8.104   9.627   8.317  1.3525  0.0846  0.7462
28718SOL     OW86731   4.927   3.573   3.371 -0.1749  0.1203  1.0059
28718SOL    HW186732   4.975   3.493   3.349 -0.7702  0.1022 -0.2910
28718SOL    HW286733   4.975   3.643   3.326 -1.9276 -0.0277 -1.3047
28719SOL     OW86734   9.710   8.316   7.413  0.0100  0.2954 -0.6260
28719SOL    HW186735   9.787   8.265   7.390  1.8225 -0.1865  5.0357
28719SOL    HW286736   9.742   8.406   7.424 -0.1810  0.1774  1.3510
28720SOL     OW86737   5.897   0.772   3.330 -0.1241 -0.1957 -0.1837
28720SOL    HW186738   5.803   0.785   3.323 -0.2790 -0.5863  0.9906
28720SOL    HW286739   5.921   0.732   3.246 -1.2986 -1.6718  0.1339
28721SOL     OW86740   8.127   9.113   1.134 -0.0266  0.0096 -0.2687
28721SOL    HW186741   8.220   9.134   1.125  0.2345  0.2093  2.2129
28721SOL    HW286742   8.083   9.198   1.129 -0.1371 -0.1056 -1.6638
28722SOL     OW86743   7.012   4.175   1.632 -0.0247  0.0529 -0.6388
28722SOL    HW186744   7.063   4.130   1.564 -0.0848 -0.2978 -0.4539
28722SOL    HW286745   6.995   4.262   1.595 -2.5507 -1.0342 -2.3559
28723SOL     OW86746   0.611   7.968   9.110  0.1094  0.0076  0.3707
28723SOL    HW186747   0.538   7.939   9.055  0.1903  1.1085 -0.3453
28723SOL    HW286748   0.595   7.926   9.195 -1.8703  0.9464  0.5072
28724SOL     OW86749   7.124   9.721   5.269  0.5266 -0.1955  0.3238
28724SOL    HW186750   7.182   9.713   5.192 -0.0659  3.0370 -0.6147
28724SOL    HW286751   7.041   9.685   5.239  0.7908 -0.6086  0.0683
28725SOL     OW86752   6.550   9.383   9.377 -0.3176 -0.0069 -0.0968
28725SOL    HW186753   6.492   9.459   9.380  0.4887  0.6315 -0.3093
28725SOL    HW286754   6.573   9.367   9.469  1.5752  1.6540 -0.2152
28726SOL     OW86755   1.525   6.864   6.218 -0.0778 -0.4431  0.3222
28726SOL    HW186756   1.597   6.804   6.238  1.2703  0.6282 -0.9964
28726SOL    HW286757   1.495   6.836   6.131 -0.2192  0.0466  0.2106
28727SOL     OW86758   5.021   1.795   5.109 -0.3739  0.5920  0.1054
28727SOL    HW186759   5.074   1.724   5.073  0.1956  1.7040 -1.3529
28727SOL    HW286760   5.083   1.852   5.154 -0.7074  0.6105  0.5512
28728SOL     OW86761   8.340   3.863   9.287  0.1959 -0.1416  0.3060
28728SOL    HW186762   8.430   3.874   9.258  0.8364 -1.6694  1.5746
28728SOL    HW286763   8.305   3.952   9.291  1.9455  0.5736  0.6755
28729SOL     OW86764   1.020   1.869   2.912  0.2521  0.2663 -0.5474
28729SOL    HW186765   1.047   1.961   2.914  2.4042 -0.2230 -2.1636
28729SOL    HW286766   1.079   1.825   2.974 -0.3133 -0.1222 -0.2744
28730SOL     OW86767   8.232   8.535   1.985  0.0129  0.3508  0.0305
28730SOL    HW186768   8.186   8.499   1.909  1.1032  0.6485 -0.8047
28730SOL    HW286769   8.323   8.543   1.955  0.1880  1.8305  0.8868
28731SOL     OW86770   4.746   8.730   1.912 -0.1434  0.3919 -0.5999
28731SOL    HW186771   4.696   8.794   1.963 -1.4874  0.0283 -1.4204
28731SOL    HW286772   4.725   8.646   1.952  0.3586  0.2987 -0.5253
28732SOL     OW86773   7.667   7.673   3.325  0.3647  0.6117  0.2381
28732SOL    HW186774   7.601   7.691   3.258 -0.0255  0.3196  0.5377
28732SOL    HW286775   7.731   7.743   3.315  1.3176 -0.4653 -1.6855
28733SOL     OW86776   8.294   6.073   3.619 -0.2368  0.2472 -0.3342
28733SOL    HW186777   8.299   5.996   3.562  0.1799  0.9773 -1.3017
28733SOL    HW286778   8.310   6.147   3.561 -2.9476  1.2889  0.1056
28734SOL     OW86779   0.370   6.423   4.932 -0.4114 -0.0725 -0.4334
28734SOL    HW186780   0.346   6.332   4.915  2.0938 -0.6030 -1.4423
28734SOL    HW286781   0.286   6.470   4.930 -1.6409 -2.1612 -0.9984
28735SOL     OW86782   7.395   6.648   8.538  0.5345 -0.1284 -0.0793
28735SOL    HW186783   7.316   6.669   8.587  0.6762  0.1761  0.0178
28735SOL    HW286784   7.467   6.686   8.589  0.4526  3.4757 -2.3001
28736SOL     OW86785   4.455   0.944   5.211 -0.3737  0.1880 -0.0696
28736SOL    HW186786   4.445   0.887   5.287  1.4077  0.1149  0.1660
28736SOL    HW286787   4.371   0.939   5.165 -0.2836 -2.6477 -0.0770
28737SOL     OW86788   7.251   4.347   8.862 -0.6057 -0.5202 -0.1221
28737SOL    HW186789   7.211   4.285   8.923 -2.4791 -0.0898 -0.8357
28737SOL    HW286790   7.315   4.296   8.813  0.1025 -1.1322  1.3861
28738SOL     OW86791   5.044   1.976   7.278  0.0481 -0.3362 -0.0454
28738SOL    HW186792   5.013   1.969   7.368  0.5879  0.6697  0.2362
28738SOL    HW286793   5.123   1.921   7.277  2.3103  2.6235  1.2153
28739SOL     OW86794   8.187   7.183   3.060  0.1259 -0.2402  0.1405
28739SOL    HW186795   8.156   7.236   2.987  1.2753  0.7361  0.3398
28739SOL    HW286796   8.246   7.240   3.109  0.4385 -1.3077  1.0643
28740SOL     OW86797   7.789   8.310   4.253  0.1732  0.3894  0.4861
28740SOL    HW186798   7.783   8.399   4.218 -0.6946  0.6714  1.3120
28740SOL    HW286799   7.716   8.263   4.214  0.0732  0.3040  0.7680
28741SOL     OW86800   9.602   8.228   4.537  0.2012  0.6610  0.1396
28741SOL    HW186801   9.623   8.199   4.626 -1.4537 -1.1330  0.0217
28741SOL    HW286802   9.525   8.283   4.547  0.1592  0.6582 -0.1615
28742SOL     OW86803   3.943   6.262   6.133 -0.0308 -0.0683 -0.2863
28742SOL    HW186804   3.898   6.325   6.076 -1.7647 -2.2534 -1.4857
28742SOL    HW286805   4.006   6.219   6.075  1.2495  0.6249  0.5607
28743SOL     OW86806   6.006   4.157   8.968 -0.3909  0.7810 -0.6118
28743SOL    HW186807   5.957   4.236   8.989 -1.0579 -0.1413  1.5365
28743SOL    HW286808   5.939   4.089   8.956  0.2462  0.1395 -0.6274
28744SOL     OW86809   0.714   5.273   2.897  0.0694 -0.3268  0.0088
28744SOL    HW186810   0.742   5.270   2.805  1.2857 -1.0647  0.3746
28744SOL    HW286811   0.621   5.293   2.893  0.5837  2.3281 -1.3066
28745SOL     OW86812   0.664   5.946   1.492 -0.2713 -0.1085  0.0788
28745SOL    HW186813   0.737   5.979   1.544  0.9245 -0.0022 -1.5927
28745SOL    HW286814   0.636   6.020   1.439 -2.4202  0.1929  1.5049
28746SOL     OW86815   9.205   8.017   4.340  0.6938 -0.2006  0.4067
28746SOL    HW186816   9.237   8.059   4.261 -1.6392 -0.1742 -0.6061
28746SOL    HW286817   9.254   7.934   4.345  1.4177  0.1485 -0.6052
28747SOL     OW86818   7.350   4.077   7.606  0.1760 -0.2700  0.0541
28747SOL    HW186819   7.425   4.018   7.599  0.6460  0.4866 -2.1362
28747SOL    HW286820   7.275   4.024   7.579 -0.1340 -1.0278  2.2491
28748SOL     OW86821   3.044   1.998   6.423 -0.6237  0.9555  0.1888
28748SOL    HW186822   3.041   1.945   6.344 -2.5561  0.8293  0.3217
28748SOL    HW286823   3.027   1.937   6.495  0.3892  1.1968  0.6589
28749SOL     OW86824   5.937   8.091   6.167  0.1449  0.5819 -0.4359
28749SOL    HW186825   5.919   7.997   6.181 -1.0766  0.7074 -0.9768
28749SOL    HW286826   5.963   8.097   6.075 -1.3167  0.9457 -0.8538
28750SOL     OW86827   8.218   5.193   4.186 -0.4006  1.2124  0.3445
28750SOL    HW186828   8.255   5.274   4.221 -2.1411  1.4072  1.8202
28750SOL    HW286829   8.124   5.208   4.183 -0.5374  0.5201 -2.7861
28751SOL     OW86830   4.025   3.513   7.822  0.1138  0.1987 -0.3684
28751SOL    HW186831   4.074   3.589   7.790 -0.6536  0.6480 -0.4995
28751SOL    HW286832   3.946   3.549   7.860 -0.3407 -0.5530 -0.5765
28752SOL     OW86833   4.598   8.937   0.066  0.1597  0.3676 -0.4442
28752SOL    HW186834   4.670   8.887   0.104 -0.4327  0.4405  0.8341
28752SOL    HW286835   4.520   8.884   0.084 -0.3047  1.0763 -0.3244
28753SOL     OW86836   0.735   9.496   4.397  0.4153 -0.1781  0.2787
28753SOL    HW186837   0.828   9.477   4.393  0.5203  0.5809 -2.3275
28753SOL    HW286838   0.717   9.509   4.491  3.2616  1.4280  0.7116
28754SOL     OW86839   1.587   5.680   6.627 -0.0656 -0.4794  0.1201
28754SOL    HW186840   1.520   5.734   6.587 -0.2801 -1.1593 -0.4584
28754SOL    HW286841   1.554   5.591   6.620  0.6540 -0.7708  0.3008
28755SOL     OW86842   5.795   1.824   0.151  0.5915 -0.1890  0.1926
28755SOL    HW186843   5.791   1.856   0.241  1.0651 -0.1903  0.2161
28755SOL    HW286844   5.887   1.805   0.136  0.2228 -2.5377  0.5328
28756SOL     OW86845   6.473   8.532   0.850 -0.1940  0.3143 -0.1843
28756SOL    HW186846   6.442   8.615   0.884  0.2066  0.3484  0.1026
28756SOL    HW286847   6.495   8.550   0.758  1.7063  1.0155  0.3679
28757SOL     OW86848   2.687   6.927   5.317 -0.4427 -0.6542 -0.1875
28757SOL    HW186849   2.696   7.007   5.266  2.4564 -1.9298 -1.9554
28757SOL    HW286850   2.776   6.906   5.345 -1.2600 -2.7229  1.1492
28758SOL     OW86851   7.538   3.277   5.035  0.3229 -0.0413  0.3985
28758SOL    HW186852   7.518   3.276   4.941 -0.2363 -1.7275  0.5096
28758SOL    HW286853   7.542   3.370   5.057  1.6293  0.4198 -1.5240
28759SOL     OW86854   6.330   4.411   0.464  0.5055 -0.4898  0.4214
28759SOL    HW186855   6.379   4.488   0.494  1.8912 -1.2425  0.1234
28759SOL    HW286856   6.336   4.349   0.537  1.2388 -1.1407 -0.1907
28760SOL     OW86857   7.772   7.257   0.810 -0.2871  0.6663  0.4249
28760SOL    HW186858   7.867   7.256   0.798 -0.3464  0.5225 -0.0407
28760SOL    HW286859   7.736   7.260   0.722 -0.7284 -0.3885  0.5486
28761SOL     OW86860   9.308   4.196   7.141 -0.1782  0.5165  0.4554
28761SOL    HW186861   9.249   4.198   7.216 -0.7557 -1.4626  0.1049
28761SOL    HW286862   9.252   4.174   7.067  1.0768 -2.9233  0.3423
28762SOL     OW86863   0.241   8.302   1.124 -0.5833 -0.4242  0.3601
28762SOL    HW186864   0.162   8.289   1.176 -0.8709 -1.5202 -0.3229
28762SOL    HW286865   0.276   8.386   1.154 -2.0389  0.1116  0.6368
28763SOL     OW86866   0.838   7.431   4.639 -0.4480  0.2432  0.5150
28763SOL    HW186867   0.842   7.515   4.594  2.7643 -0.4584 -0.7773
28763SOL    HW286868   0.756   7.391   4.609  0.4246  0.7987 -2.9627
28764SOL     OW86869   3.172   8.554   9.829 -0.0057  0.2671  0.0940
28764SOL    HW186870   3.113   8.592   9.894 -1.6744 -0.0000 -1.2213
28764SOL    HW286871   3.224   8.629   9.799  0.5757  0.4529  1.4572
28765SOL     OW86872   2.352   9.801   0.500 -0.1606  0.0297 -0.0238
28765SOL    HW186873   2.427   9.854   0.527 -0.3597 -0.8014  2.4004
28765SOL    HW286874   2.312   9.772   0.582 -2.1793 -0.9084 -1.2612
28766SOL     OW86875   8.726   8.332   0.829  0.2793  0.1015  0.2299
28766SOL    HW186876   8.659   8.288   0.882 -1.3218 -1.2404 -2.6745
28766SOL    HW286877   8.809   8.299   0.863 -0.7853 -3.7339 -0.4258
28767SOL     OW86878   2.948   2.718   2.543  0.0196 -0.0840  0.2767
28767SOL    HW186879   2.956   2.631   2.582 -1.6067  0.6841  2.5335
28767SOL    HW286880   2.930   2.776   2.617  0.6686  2.1471 -1.1986
28768SOL     OW86881   9.666   8.600   8.427 -1.2366  0.1351 -0.1305
28768SOL    HW186882   9.752   8.599   8.385 -0.9282  1.1299  0.4292
28768SOL    HW286883   9.616   8.664   8.378 -1.3123  0.3221  0.1890
28769SOL     OW86884   1.386   5.470   2.214 -0.2206 -0.1259  0.4231
28769SOL    HW186885   1.343   5.398   2.167  2.6459 -1.7061 -0.0156
28769SOL    HW286886   1.369   5.547   2.160 -0.9672 -1.0110 -0.6618
28770SOL     OW86887   7.737   4.193   5.091 -0.1648  0.1887  0.1305
28770SOL    HW186888   7.789   4.151   5.160 -0.4754  0.6047  0.6316
28770SOL    HW286889   7.716   4.279   5.127  1.2993  1.1903 -1.2542
28771SOL     OW86890   8.419   6.882   5.297  0.0899 -0.1303  0.3728
28771SOL    HW186891   8.429   6.860   5.205 -0.7601  0.4698  0.1279
28771SOL    HW286892   8.466   6.812   5.343  0.0970 -0.7089 -0.4877
28772SOL     OW86893   5.655   0.144   5.499  0.2106  0.4307 -0.0447
28772SOL    HW186894   5.610   0.059   5.506  1.5265 -0.1768  2.0070
28772SOL    HW286895   5.618   0.184   5.421 -1.2831 -1.5481 -0.4429
28773SOL     OW86896   6.167   0.943   4.191  0.1549 -0.3217  0.1126
28773SOL    HW186897   6.164   0.849   4.174 -1.1388  0.0048 -1.8762
28773SOL    HW286898   6.075   0.971   4.188  0.5493  1.0823  0.0996
28774SOL     OW86899   3.626   5.457   7.348 -0.4320  0.0092  0.4119
28774SOL    HW186900   3.680   5.428   7.275  1.2975  1.8245  0.8917
28774SOL    HW286901   3.546   5.405   7.341  0.6229 -1.4711 -1.4025
28775SOL     OW86902   2.634   1.177   8.335 -0.0778  0.5713  0.0947
28775SOL    HW186903   2.696   1.204   8.402  1.9345 -1.7919 -0.6425
28775SOL    HW286904   2.688   1.166   8.256 -1.6531 -0.4636 -0.8948
28776SOL     OW86905   5.846   7.271   0.528  0.1226  0.1387 -1.0558
28776SOL    HW186906   5.793   7.230   0.460 -1.6290  0.1467  0.2538
28776SOL    HW286907   5.877   7.198   0.581 -0.0445  0.2544 -0.7967
28777SOL     OW86908   6.202   8.148   4.468 -0.3306  0.4062  0.4122
28777SOL    HW186909   6.156   8.232   4.472 -0.8051  0.1693 -0.0174
28777SOL    HW286910   6.168   8.098   4.542 -0.5195  0.3581  0.2942
28778SOL     OW86911   7.719   2.186   1.065  0.6032  0.0831  0.4322
28778SOL    HW186912   7.742   2.171   1.157 -1.8773 -1.8686  0.8447
28778SOL    HW286913   7.713   2.098   1.028  0.3302  0.7941 -1.2923
28779SOL     OW86914   7.070   4.278   4.241 -0.3846  0.4057  0.3843
28779SOL    HW186915   7.081   4.220   4.165 -0.3660  0.0247  0.6740
28779SOL    HW286916   7.159   4.298   4.269 -0.3848  0.9300  0.0198
28780SOL     OW86917   8.827   2.840   8.792  0.0968  0.7302  0.4986
28780SOL    HW186918   8.828   2.835   8.887 -1.5487  0.3943  0.5285
28780SOL    HW286919   8.750   2.789   8.766  0.7098  0.5213 -1.0351
28781SOL     OW86920   8.164   0.099   5.926  0.6303  0.3510  0.0097
28781SOL    HW186921   8.199   0.116   5.839 -0.8396 -0.2036 -0.7295
28781SOL    HW286922   8.081   0.147   5.928  0.1607 -0.4660  0.7236
28782SOL     OW86923   7.187   9.036   3.971  1.0669 -0.1294  0.1133
28782SOL    HW186924   7.177   8.975   3.898 -1.1824  1.3054 -0.8925
28782SOL    HW286925   7.252   9.100   3.941  1.6496 -0.6518  0.2260
28783SOL     OW86926   7.265   0.248   0.910 -0.2895 -0.0981  0.0440
28783SOL    HW186927   7.203   0.179   0.931 -0.8519  0.6009  0.7096
28783SOL    HW286928   7.227   0.294   0.835 -0.3169 -0.0034  0.1152
28784SOL     OW86929   0.277   7.149   4.772 -0.3370  0.0851  0.0196
28784SOL    HW186930   0.197   7.106   4.802  0.0443 -1.4195 -1.0270
28784SOL    HW286931   0.248   7.205   4.700 -0.7018  1.0030  0.8463
28785SOL     OW86932   8.859   4.794   1.924 -0.1434 -0.4187 -0.0763
28785SOL    HW186933   8.927   4.824   1.864 -0.5279 -0.3527 -0.4859
28785SOL    HW286934   8.813   4.726   1.876  0.8157 -1.8025  0.9068
28786SOL     OW86935   9.729   2.169   7.603 -0.2308  0.0432  0.6773
28786SOL    HW186936   9.684   2.253   7.595 -1.1149 -0.5543 -1.2302
28786SOL    HW286937   9.789   2.167   7.529 -1.6409 -1.7875 -0.4951
28787SOL     OW86938   4.054   9.848   6.400  0.1622 -0.2772 -0.2640
28787SOL    HW186939   4.063   9.942   6.389  0.1652 -0.3888 -1.2652
28787SOL    HW286940   4.097   9.829   6.484  0.9032  0.4861 -0.4719
28788SOL     OW86941   9.502   9.596   7.612  0.3970 -0.1308  0.1088
28788SOL    HW186942   9.486   9.651   7.535 -1.3403 -1.2698 -0.3947
28788SOL    HW286943   9.551   9.521   7.578 -0.2994 -0.5945  0.1152
28789SOL     OW86944   8.221   6.178   9.853  0.1066  0.1222  0.0432
28789SOL    HW186945   8.128   6.198   9.845 -0.1831 -1.4417 -0.9155
28789SOL    HW286946   8.248   6.150   9.765  0.7182 -2.3611  0.9285
28790SOL     OW86947   5.296   1.334   9.402 -0.0513 -0.3274  0.3762
28790SOL    HW186948   5.379   1.295   9.431 -0.3393 -0.0736  1.5982
28790SOL    HW286949   5.232   1.303   9.466 -0.7031  0.3294  0.0463
28791SOL     OW86950   7.119   7.902   3.338 -0.3005 -0.2385 -0.2573
28791SOL    HW186951   7.056   7.955   3.386  1.3554  1.1288  0.5115
28791SOL    HW286952   7.155   7.961   3.272  2.2016 -0.0205  1.1569
28792SOL     OW86953   3.287   5.956   5.826  0.0085  0.4351 -0.1782
28792SOL    HW186954   3.281   5.869   5.867  2.2870  0.0430 -0.5723
28792SOL    HW286955   3.271   6.017   5.898  1.1086 -0.2934  0.7139
28793SOL     OW86956   3.376   6.817   8.442  0.3150  0.3513  0.5443
28793SOL    HW186957   3.296   6.776   8.474 -0.9857  2.6920  0.4629
28793SOL    HW286958   3.417   6.749   8.388 -1.1900 -1.1660  1.2061
28794SOL     OW86959   3.842   2.750   4.389 -1.0164 -0.2121 -0.1109
28794SOL    HW186960   3.915   2.776   4.334 -0.4881 -0.6238  0.3821
28794SOL    HW286961   3.817   2.663   4.357 -1.4270  0.0113 -0.4096
28795SOL     OW86962   1.217   8.151   8.824  0.1683 -0.6290  0.6024
28795SOL    HW186963   1.275   8.196   8.763  0.6462 -0.9302  0.8272
28795SOL    HW286964   1.158   8.220   8.856 -0.0401 -0.4531 -0.1314
28796SOL     OW86965   1.416   4.620   6.419 -0.2732  0.0711 -0.1328
28796SOL    HW186966   1.437   4.701   6.466 -0.6735  0.9199 -1.3714
28796SOL    HW286967   1.322   4.609   6.432  0.1512 -1.6252  2.1591
28797SOL     OW86968   8.164   0.680   8.256  0.0317  0.5603  0.2370
28797SOL    HW186969   8.137   0.749   8.195  1.3614  0.0699 -0.9557
28797SOL    HW286970   8.096   0.614   8.250  0.5230  0.1504 -1.3709
28798SOL     OW86971   2.197   9.816   9.345 -0.1612 -0.2749  0.0231
28798SOL    HW186972   2.141   9.784   9.416 -0.1419  0.2874  0.2907
28798SOL    HW286973   2.138   9.829   9.272 -0.2705 -0.3295  0.1010
28799SOL     OW86974   0.089   2.640   1.769 -0.0918 -0.0153  0.0818
28799SOL    HW186975   0.104   2.734   1.758 -0.1805  0.0198  0.2615
28799SOL    HW286976   0.002   2.634   1.807 -0.2521 -0.1905 -0.3109
28800SOL     OW86977   5.893   6.942   0.644 -0.4886 -0.1309  0.4029
28800SOL    HW186978   5.853   6.890   0.575 -2.5251  0.8292  0.7970
28800SOL    HW286979   5.946   6.880   0.693  0.8157 -0.8810 -1.8167
28801SOL     OW86980   7.906   9.920   8.978 -0.0314 -0.5133  0.3465
28801SOL    HW186981   7.904   9.877   8.892 -0.5778 -1.7886  0.9725
28801SOL    HW286982   7.949  10.004   8.962  0.3584 -0.9602 -1.0684
28802SOL     OW86983   7.721   2.584   1.445  0.0777 -0.7235 -0.6215
28802SOL    HW186984   7.815   2.563   1.442  0.0887 -0.6776 -0.5964
28802SOL    HW286985   7.688   2.554   1.360 -0.0214 -1.3740 -0.3506
28803SOL     OW86986   9.630   9.073   8.395  0.0284 -0.2382 -0.0211
28803SOL    HW186987   9.567   9.013   8.355  0.7159 -1.3876  0.5489
28803SOL    HW286988   9.610   9.158   8.357 -1.2732 -0.7405 -0.5277
28804SOL     OW86989   3.287   5.446   0.901  0.0394 -0.5225 -0.2068
28804SOL    HW186990   3.348   5.420   0.831 -0.3215 -2.0462 -0.0071
28804SOL    HW286991   3.240   5.365   0.922 -2.6416  0.7542 -0.9198
28805SOL     OW86992   5.375   4.102   7.447  0.3697  0.3388 -0.5563
28805SOL    HW186993   5.342   4.020   7.411 -1.2171  0.5592  0.2989
28805SOL    HW286994   5.301   4.138   7.496  1.4340  1.6507  0.1544
28806SOL     OW86995   0.248   6.091   6.487 -0.4676  0.2517 -0.2982
28806SOL    HW186996   0.235   6.171   6.436  0.0655  2.0754  2.2003
28806SOL    HW286997   0.335   6.102   6.526 -0.8799 -0.9676  1.0294
28807SOL     OW86998   4.446   2.618   7.100 -0.5525 -0.4260  0.3399
28807SOL    HW186999   4.407   2.674   7.033 -2.7608 -0.0486  1.8425
28807SOL    HW287000   4.512   2.673   7.142 -1.1340  0.3101  0.3179
28808SOL     OW87001   6.351   8.262   3.014  0.5351 -0.1765 -0.1970
28808SOL    HW187002   6.279   8.216   3.056 -1.1409  0.5967 -2.0352
28808SOL    HW287003   6.423   8.259   3.077 -1.1929 -0.7271  1.8412
28809SOL     OW87004   1.586   0.417   4.655  0.3036 -0.6786  0.1909
28809SOL    HW187005   1.637   0.344   4.620  1.7167  0.2007  0.2997
28809SOL    HW287006   1.553   0.386   4.739  2.1168 -0.7480  0.9237
28810SOL     OW87007   6.600   3.808   1.173 -0.1911 -0.5509  0.2277
28810SOL    HW187008   6.591   3.722   1.213 -0.8233 -0.8697 -0.5743
28810SOL    HW287009   6.520   3.820   1.122 -0.1639  0.5599  0.4113
28811SOL     OW87010   0.471   9.745   0.436 -0.0794 -0.1435 -0.1757
28811SOL    HW187011   0.467   9.650   0.442  0.5918 -0.1339  0.4864
28811SOL    HW287012   0.524   9.772   0.511 -0.8360  0.8026  0.0463
28812SOL     OW87013   0.094   5.311   3.912 -0.2794  0.7454 -0.1447
28812SOL    HW187014   0.064   5.245   3.973  1.8765  1.1900  1.5304
28812SOL    HW287015   0.072   5.276   3.825  0.7224 -2.1622  0.6576
28813SOL     OW87016   9.672   8.648   4.660 -0.1853 -0.1698  0.7644
28813SOL    HW187017   9.685   8.623   4.752 -1.2554  0.7601  1.1817
28813SOL    HW287018   9.717   8.732   4.651  3.2316 -1.9191 -0.5888
28814SOL     OW87019   0.068   5.108   0.680  0.1846  0.4996  0.5346
28814SOL    HW187020   0.130   5.048   0.721  0.1301  1.2751  1.8165
28814SOL    HW287021   0.122   5.165   0.625  0.5803  0.9204  1.3401
28815SOL     OW87022   8.001   5.488   8.730  0.2677 -0.2863 -0.7042
28815SOL    HW187023   8.048   5.568   8.709  0.1195  0.0657  0.2550
28815SOL    HW287024   8.050   5.449   8.802 -1.7128  0.8948  1.4167
28816SOL     OW87025   1.570   7.531   1.978 -0.5142 -0.2596  0.3175
28816SOL    HW187026   1.523   7.553   1.897 -0.5563 -1.1889  0.0819
28816SOL    HW287027   1.605   7.615   2.009  0.4328 -0.0523 -1.2375
28817SOL     OW87028   2.556   5.586   7.421 -0.6052 -0.1470 -0.4183
28817SOL    HW187029   2.627   5.648   7.441 -1.8353  0.8997  0.9384
28817SOL    HW287030   2.541   5.539   7.504 -3.0771  1.3714  0.1058
28818SOL     OW87031   7.591   3.188   2.277 -0.3644  0.0421 -0.0432
28818SOL    HW187032   7.496   3.177   2.266 -0.1535 -0.6639 -1.4697
28818SOL    HW287033   7.628   3.159   2.193  0.9233  3.2901 -0.7413
28819SOL     OW87034   0.135   2.447   9.870 -0.3513 -0.2673  0.2092
28819SOL    HW187035   0.066   2.413   9.927  0.9496  1.2193  2.9214
28819SOL    HW287036   0.095   2.522   9.826 -0.6896  0.2025  1.2728
28820SOL     OW87037   1.720   7.250   1.790 -0.0543 -0.2843 -0.3373
28820SOL    HW187038   1.810   7.277   1.771 -0.2324  1.0433  0.6070
28820SOL    HW287039   1.729   7.181   1.856  0.2298  1.4121  1.4895
28821SOL     OW87040   5.120   1.766   4.676 -0.0196  0.4362  0.1766
28821SOL    HW187041   5.133   1.837   4.740  0.8951 -0.7618  1.3777
28821SOL    HW287042   5.207   1.727   4.666 -0.4403 -0.2874 -0.7535
28822SOL     OW87043   1.891   6.937   9.235 -0.4955 -0.4342  0.2121
28822SOL    HW187044   1.801   6.906   9.248 -0.2453 -1.7860 -1.0315
28822SOL    HW287045   1.883   7.006   9.169 -0.5722 -0.9489 -0.3257
28823SOL     OW87046   6.471   8.576   4.771 -0.2551  0.1066  0.3424
28823SOL    HW187047   6.400   8.619   4.725 -0.8376  0.0519  1.1709
28823SOL    HW287048   6.432   8.497   4.808  0.6854 -0.9141 -0.7448
28824SOL     OW87049   6.447   8.476   6.422  0.2685 -0.4934  0.2754
28824SOL    HW187050   6.506   8.405   6.449 -1.1721 -1.2948  1.4504
28824SOL    HW287051   6.498   8.556   6.436  1.0230 -1.1535  1.4537
28825SOL     OW87052   1.865   3.616   2.139 -0.1755 -0.3510  0.2363
28825SOL    HW187053   1.943   3.567   2.113 -0.1931 -0.5564  0.5713
28825SOL    HW287054   1.898   3.703   2.160 -0.3129  0.2099 -1.6257
28826SOL     OW87055   8.805   4.482   9.341 -0.4914 -0.0653 -0.0838
28826SOL    HW187056   8.900   4.480   9.330 -0.4811  0.6531 -0.1740
28826SOL    HW287057   8.773   4.527   9.263 -0.5436  3.5459  1.7849
28827SOL     OW87058   3.887   3.668   3.827  0.0862 -0.4356  0.1857
28827SOL    HW187059   3.897   3.575   3.805 -1.9153 -0.3772 -1.1795
28827SOL    HW287060   3.977   3.699   3.836  0.8149 -2.3872  0.1925
28828SOL     OW87061   8.503   1.667   8.968 -0.0562  0.1561 -0.1304
28828SOL    HW187062   8.471   1.756   8.956  0.6745  0.3847 -0.4398
28828SOL    HW287063   8.424   1.615   8.982 -0.6219  0.5970 -1.5301
28829SOL     OW87064   9.630   9.685   0.346 -0.1158 -0.6769 -0.4254
28829SOL    HW187065   9.565   9.731   0.401  1.3809  0.0609  0.8275
28829SOL    HW287066   9.629   9.732   0.263  0.7561  1.1708  0.5420
28830SOL     OW87067   5.041   2.183   2.979 -0.0121  0.2604  0.0626
28830SOL    HW187068   5.005   2.094   2.988  1.6342 -0.7109 -2.1039
28830SOL    HW287069   5.067   2.208   3.068 -1.7089 -0.8476  0.9288
28831SOL     OW87070   5.872   6.361   5.257 -0.1289  0.2713 -0.7200
28831SOL    HW187071   5.938   6.352   5.325 -0.5523  0.2834 -0.3046
28831SOL    HW287072   5.796   6.401   5.301 -0.8573 -0.8680 -0.9012
28832SOL     OW87073   1.087   4.694   9.471  0.3797  0.7876 -0.0240
28832SOL    HW187074   1.036   4.771   9.445  0.3874  2.0246  3.1505
28832SOL    HW287075   1.178   4.720   9.456  0.3052  0.5529 -0.9283
28833SOL     OW87076   9.499   7.158   5.614 -0.1298 -0.0792 -0.0226
28833SOL    HW187077   9.482   7.142   5.521  0.7871  0.7966 -0.3492
28833SOL    HW287078   9.583   7.204   5.616 -0.4278  0.4514  1.1945
28834SOL     OW87079   7.006   3.896   3.494 -0.6110  0.5935  0.5917
28834SOL    HW187080   6.983   3.889   3.402  1.2992 -1.2482  0.1761
28834SOL    HW287081   6.923   3.885   3.540 -1.4151  0.2728 -0.8831
28835SOL     OW87082   0.438   3.993   5.743 -0.5130  0.1865 -0.9480
28835SOL    HW187083   0.463   4.085   5.748 -0.4133  0.1177  0.0126
28835SOL    HW287084   0.470   3.964   5.658 -0.2348  0.9490 -1.1089
28836SOL     OW87085   3.389   4.709   9.081  0.0854 -0.0880 -0.2236
28836SOL    HW187086   3.477   4.735   9.056  0.2622 -0.9979 -0.5843
28836SOL    HW287087   3.348   4.789   9.112  0.7840  0.4969 -0.7867
28837SOL     OW87088   2.980   8.699   8.148 -0.0527  0.2646 -0.3321
28837SOL    HW187089   3.034   8.716   8.226 -0.7306 -0.2683  0.2679
28837SOL    HW287090   3.031   8.735   8.075  2.0038 -1.7952 -0.0328
28838SOL     OW87091   7.384   7.959   5.221  0.0184  0.8466  0.0759
28838SOL    HW187092   7.471   7.984   5.190  0.0809  1.9017  1.0352
28838SOL    HW287093   7.354   8.034   5.272 -1.9803  1.0150 -1.2439
28839SOL     OW87094   3.801   2.555   7.971  0.2948  0.3303  0.0548
28839SOL    HW187095   3.837   2.469   7.992  2.4290  0.2906 -3.0814
28839SOL    HW287096   3.746   2.540   7.894 -0.9127  1.5104  0.6510
28840SOL     OW87097   1.400   1.585   5.875  0.0259  0.4358 -0.0802
28840SOL    HW187098   1.366   1.652   5.816  2.9048  1.2081 -1.0317
28840SOL    HW287099   1.459   1.633   5.934 -0.4140 -0.7958  1.4258
28841SOL     OW87100   3.188   1.445   3.333 -0.1861  0.0930  0.2257
28841SOL    HW187101   3.197   1.533   3.370  0.2027  0.1299  0.0480
28841SOL    HW287102   3.278   1.413   3.326 -0.1976  0.3291 -1.2843
28842SOL     OW87103   7.974   6.678   1.256 -0.5982 -0.3523  0.7021
28842SOL    HW187104   8.052   6.728   1.230 -0.6703 -1.1372 -1.2182
28842SOL    HW287105   7.996   6.640   1.341  0.9358 -0.1925  0.3992
28843SOL     OW87106   9.837   9.671   8.141  0.2162 -0.4519 -0.3035
28843SOL    HW187107   9.812   9.634   8.225  0.1028 -1.3530 -0.7200
28843SOL    HW287108   9.932   9.659   8.137  0.5788  1.6846  0.6674
28844SOL     OW87109   5.559   1.311   4.976  0.5375  0.4087 -0.0904
28844SOL    HW187110   5.556   1.249   4.903  1.4448  0.1192  0.1065
28844SOL    HW287111   5.470   1.312   5.010  0.1290  0.4618 -1.1323
28845SOL     OW87112   0.147   8.416   9.097 -0.0373  0.5072 -0.0318
28845SOL    HW187113   0.204   8.370   9.036 -0.7235 -0.4778  0.0437
28845SOL    HW287114   0.105   8.484   9.043  0.4307  0.5749 -0.3195
28846SOL     OW87115   5.179   9.823   7.471  0.3939  0.5980 -0.0963
28846SOL    HW187116   5.254   9.812   7.412  0.7837 -1.3846  0.6901
28846SOL    HW287117   5.107   9.848   7.414  0.2918 -2.9705 -1.8061
28847SOL     OW87118   0.711   6.274   0.156 -0.2492  0.1521 -0.9104
28847SOL    HW187119   0.781   6.327   0.193 -1.4175  1.1967 -0.0974
28847SOL    HW287120   0.631   6.312   0.192 -1.1410 -2.6697  0.3543
28848SOL     OW87121   7.799   3.108   6.836  0.0291 -0.1289  0.4280
28848SOL    HW187122   7.806   3.048   6.910 -1.7283 -1.9471 -0.7774
28848SOL    HW287123   7.876   3.089   6.782 -0.1066 -0.7533  0.4467
28849SOL     OW87124   3.099   8.507   5.411 -0.0471 -0.2881 -0.0276
28849SOL    HW187125   3.012   8.506   5.370  0.5676 -0.2980 -1.3865
28849SOL    HW287126   3.105   8.594   5.451  0.5417  1.0683 -2.7774
28850SOL     OW87127   8.353   3.109   4.573  0.5925  0.4398  0.2212
28850SOL    HW187128   8.363   3.021   4.609  1.2000  0.7380  0.8052
28850SOL    HW287129   8.435   3.125   4.526  1.0482  1.1764  1.2159
28851SOL     OW87130   3.477   0.166   6.573 -0.5072  0.1744 -0.2017
28851SOL    HW187131   3.442   0.085   6.610  0.0678  0.1934  0.3921
28851SOL    HW287132   3.404   0.228   6.580 -0.1244  0.4628  1.8275
28852SOL     OW87133   6.707   2.325   7.155  0.2000 -0.4441  0.1405
28852SOL    HW187134   6.643   2.369   7.210  0.7551 -0.4393  0.7904
28852SOL    HW287135   6.731   2.391   7.089 -1.4762 -0.8886 -0.9908
28853SOL     OW87136   4.341   7.172   6.972  0.3022  0.2019  0.0008
28853SOL    HW187137   4.360   7.097   6.915 -1.0240 -0.7323  0.7342
28853SOL    HW287138   4.249   7.192   6.955 -0.0093  0.1554  1.5128
28854SOL     OW87139   2.605   6.332   1.058  0.1866  0.1803  0.8355
28854SOL    HW187140   2.583   6.239   1.068 -0.3151  0.0804 -0.8370
28854SOL    HW287141   2.616   6.364   1.148  2.4211 -1.9476  1.4501
28855SOL     OW87142   6.116   8.722   6.421 -0.1575 -0.1103 -0.7362
28855SOL    HW187143   6.056   8.650   6.402  1.2539 -0.7541 -3.3079
28855SOL    HW287144   6.077   8.798   6.378 -1.5411  0.7224  1.8011
28856SOL     OW87145   1.423   2.376   3.113 -0.1635 -0.3295  0.0727
28856SOL    HW187146   1.443   2.394   3.205  0.0553  0.1973 -0.0751
28856SOL    HW287147   1.501   2.330   3.080  0.1332  0.2607 -0.0717
28857SOL     OW87148   0.451   3.848   4.137 -0.1788  0.3368  0.2911
28857SOL    HW187149   0.408   3.792   4.202 -0.4254 -0.7247 -0.7529
28857SOL    HW287150   0.441   3.801   4.055 -1.7718  2.6647 -0.9260
28858SOL     OW87151   2.807   8.761   0.624  0.1852  0.3965  0.5163
28858SOL    HW187152   2.727   8.739   0.577  0.8537  0.7279 -0.8296
28858SOL    HW287153   2.803   8.856   0.633  1.0776  0.5949 -0.8552
28859SOL     OW87154   9.011   8.594   4.853  0.2226 -0.4916 -0.1087
28859SOL    HW187155   9.002   8.589   4.757 -0.2293  0.2498 -0.1182
28859SOL    HW287156   9.073   8.665   4.867  0.9871 -1.1945  0.1382
28860SOL     OW87157   5.722   3.907   4.521  0.0331 -0.8010 -0.3465
28860SOL    HW187158   5.650   3.846   4.537 -0.8295  0.1764 -0.4485
28860SOL    HW287159   5.738   3.901   4.427 -1.9424  1.1331 -0.8864
28861SOL     OW87160   2.913   7.416   2.842 -0.2599 -0.1642 -0.0024
28861SOL    HW187161   2.868   7.367   2.773 -0.4441 -2.9233  1.9117
28861SOL    HW287162   3.002   7.381   2.843  0.1608  0.8734  0.2444
28862SOL     OW87163   8.150   2.737   9.768 -0.2962 -0.2917  0.3647
28862SOL    HW187164   8.116   2.760   9.855 -0.6588  1.3164 -0.1765
28862SOL    HW287165   8.121   2.808   9.711  0.9146 -0.7362 -0.8561
28863SOL     OW87166   3.044   5.508   9.149 -0.3581 -0.4453  0.5362
28863SOL    HW187167   3.037   5.508   9.053 -0.9921 -3.3770  0.4996
28863SOL    HW287168   2.955   5.493   9.179  0.2822 -3.0164  1.3923
28864SOL     OW87169   4.995   4.399   7.419  0.6680  0.2144  0.2502
28864SOL    HW187170   4.910   4.435   7.443  1.6613  2.1995  1.0412
28864SOL    HW287171   4.999   4.408   7.324  0.7579  1.9989  0.3991
28865SOL     OW87172   5.543   7.041   3.207 -0.2547  0.4334 -0.2174
28865SOL    HW187173   5.493   7.097   3.267 -0.7410 -0.7027  0.4721
28865SOL    HW287174   5.477   7.002   3.151 -0.0407 -0.2365 -0.0153
28866SOL     OW87175   3.597   0.976   5.078  0.4294  0.0945 -0.6546
28866SOL    HW187176   3.635   0.889   5.068  0.5996  0.0204  0.5314
28866SOL    HW287177   3.546   0.971   5.159 -0.9854  0.6084 -1.4769
28867SOL     OW87178   6.278   3.736   4.490 -0.6282 -0.2592  0.5083
28867SOL    HW187179   6.222   3.752   4.566 -1.4123 -1.3342  0.1909
28867SOL    HW287180   6.353   3.689   4.525  0.3417  1.5764  1.0065
28868SOL     OW87181   1.170   0.168   9.076 -0.0053 -0.3284 -0.2745
28868SOL    HW187182   1.158   0.131   8.989  1.4100 -1.1989 -0.1368
28868SOL    HW287183   1.085   0.160   9.118 -1.7697  3.2506 -2.6638
28869SOL     OW87184   4.397   3.273   1.915 -0.2601 -0.3006  0.6383
28869SOL    HW187185   4.367   3.182   1.918  1.8350 -1.2754 -2.8054
28869SOL    HW287186   4.492   3.267   1.916 -0.0496  1.7093 -1.1201
28870SOL     OW87187   2.326   8.698   7.770  0.3004 -0.1986 -0.1627
28870SOL    HW187188   2.392   8.708   7.838  0.2103  0.4332 -0.1641
28870SOL    HW287189   2.302   8.787   7.746 -2.0227 -0.3667  1.2606
28871SOL     OW87190   1.247   7.322   1.600 -0.6648 -0.0780  0.0499
28871SOL    HW187191   1.307   7.302   1.671 -0.2041 -0.7515 -0.5113
28871SOL    HW287192   1.288   7.394   1.553  0.5300 -1.5446 -1.2573
28872SOL     OW87193   2.876   2.186   2.584 -0.0519  0.2272 -0.0749
28872SOL    HW187194   2.890   2.097   2.617 -0.2092  0.6324  1.1524
28872SOL    HW287195   2.868   2.176   2.489 -0.3381 -1.0949  0.0689
28873SOL     OW87196   9.423   8.853   8.747 -0.4159 -0.1849  0.1180
28873SOL    HW187197   9.445   8.776   8.694 -3.2768 -1.1515  0.2028
28873SOL    HW287198   9.442   8.826   8.837  0.7454  0.0706 -0.0325
28874SOL     OW87199   8.810   7.400   8.110  0.3058  0.5702  0.3704
28874SOL    HW187200   8.726   7.443   8.126 -0.5239 -0.5735 -0.7087
28874SOL    HW287201   8.816   7.332   8.177  0.4931  0.7998  0.5904
28875SOL     OW87202   8.752   6.817   9.183 -0.0652 -0.0910  0.2283
28875SOL    HW187203   8.817   6.882   9.209 -0.0693 -0.9179  2.5066
28875SOL    HW287204   8.678   6.831   9.241 -0.6439 -1.1980 -0.1973
28876SOL     OW87205   5.003   7.246   9.173  0.3252 -0.4668  0.2754
28876SOL    HW187206   4.923   7.284   9.135  0.3064 -0.9633 -0.1942
28876SOL    HW287207   5.055   7.219   9.098  1.2320  0.4317  0.5644
28877SOL     OW87208   6.218   3.272   7.904 -0.6836 -0.6744 -0.1575
28877SOL    HW187209   6.268   3.329   7.846 -0.3302 -1.7102 -0.9005
28877SOL    HW287210   6.202   3.325   7.982  0.2560  0.1897 -0.5295
28878SOL     OW87211   4.687   5.783   1.711 -0.1975 -0.5328 -0.0216
28878SOL    HW187212   4.776   5.757   1.684  0.5709  0.8315  1.0391
28878SOL    HW287213   4.667   5.858   1.656 -0.2410 -0.1881  0.4546
28879SOL     OW87214   8.553   8.817   2.846  0.3399 -0.0029  0.2571
28879SOL    HW187215   8.633   8.765   2.835  0.1158 -1.1483  3.2214
28879SOL    HW287216   8.558   8.851   2.935 -1.7629  1.2442 -0.0231
28880SOL     OW87217   3.556   3.433   3.860  0.0062  0.2269 -0.3010
28880SOL    HW187218   3.512   3.508   3.820 -0.8419 -0.0502  0.0944
28880SOL    HW287219   3.488   3.367   3.871  1.0004 -1.1646 -1.9025
28881SOL     OW87220   6.301   3.907   4.278  0.0725 -0.2010  0.1749
28881SOL    HW187221   6.395   3.892   4.276 -0.0899 -2.2101  2.4798
28881SOL    HW287222   6.275   3.883   4.367 -2.6099  0.4643 -0.3397
28882SOL     OW87223   4.440   0.294   7.259 -0.3328  0.3095  0.0918
28882SOL    HW187224   4.404   0.367   7.309  0.1070  0.2481  0.5035
28882SOL    HW287225   4.452   0.225   7.324 -0.0357  0.1293 -0.1553
28883SOL     OW87226   5.888   4.578   9.604 -0.4660 -0.5825  0.0618
28883SOL    HW187227   5.863   4.512   9.539  1.1589  0.4848 -1.7727
28883SOL    HW287228   5.816   4.641   9.603 -0.2872 -0.3636 -1.0768
28884SOL     OW87229   2.792   2.833   6.498 -0.3341 -0.0418 -0.0301
28884SOL    HW187230   2.758   2.751   6.462 -1.7596  0.7831 -0.6476
28884SOL    HW287231   2.752   2.840   6.585 -2.1537  1.1078 -0.8997
28885SOL     OW87232   4.877   5.763   2.785  0.3477 -0.0619  0.2305
28885SOL    HW187233   4.874   5.669   2.803 -1.1606 -0.0715  0.0360
28885SOL    HW287234   4.847   5.771   2.694 -1.9060  0.7496  0.9625
28886SOL     OW87235   8.570   0.472   3.550 -0.1594 -0.1780  0.0583
28886SOL    HW187236   8.596   0.537   3.616 -0.1503  0.8601 -0.9323
28886SOL    HW287237   8.644   0.468   3.490 -0.9797  0.4514 -1.0351
28887SOL     OW87238   7.361   2.643   5.621  0.4643 -0.2936 -0.2850
28887SOL    HW187239   7.302   2.684   5.557 -0.8162 -1.6220 -0.0129
28887SOL    HW287240   7.312   2.645   5.703  1.2212 -0.5061  0.1810
28888SOL     OW87241   2.027   2.914   2.979  0.1409  0.5702  0.3068
28888SOL    HW187242   1.935   2.926   2.955  0.6443  1.6992 -1.1923
28888SOL    HW287243   2.073   2.904   2.895  1.5955  1.7809  0.8989
28889SOL     OW87244   7.616   7.610   5.567  0.1674  0.3502  0.0804
28889SOL    HW187245   7.598   7.691   5.614  1.1123  1.5365 -1.4958
28889SOL    HW287246   7.672   7.560   5.627  3.3169  2.8177 -0.5297
28890SOL     OW87247   5.137   7.773   9.629 -0.4855  0.1701 -0.0908
28890SOL    HW187248   5.050   7.813   9.631  1.3529  4.6749  0.7703
28890SOL    HW287249   5.188   7.830   9.572  3.0010  0.4670  2.9809
28891SOL     OW87250   2.139   4.194   1.224 -0.3363 -0.3053 -0.3526
28891SOL    HW187251   2.064   4.241   1.189 -0.1575  1.6655  1.7070
28891SOL    HW287252   2.102   4.134   1.289 -0.2426 -0.0413 -0.0492
28892SOL     OW87253   9.159   9.673   6.819  0.1172 -0.5764  0.0711
28892SOL    HW187254   9.085   9.637   6.769 -0.1617 -2.1296  1.5158
28892SOL    HW287255   9.122   9.748   6.867 -0.1455 -0.4455 -0.3324
28893SOL     OW87256   3.399   9.092   3.941 -0.2553 -0.0087  0.7444
28893SOL    HW187257   3.438   9.109   3.856 -1.3746 -1.9387 -0.2344
28893SOL    HW287258   3.386   8.997   3.943 -0.5508  0.0270  2.9395
28894SOL     OW87259   4.656   4.452   0.084 -0.7636 -0.1075  0.5132
28894SOL    HW187260   4.738   4.499   0.071 -1.1968  1.2021  2.1530
28894SOL    HW287261   4.622   4.439  -0.004 -0.3445  2.2308 -0.0690
28895SOL     OW87262   5.044   5.555   2.123  0.5451  0.1707  1.0503
28895SOL    HW187263   5.000   5.481   2.081  0.4939 -1.0175  3.0880
28895SOL    HW287264   5.011   5.556   2.213  3.3505  0.2765  2.1956
28896SOL     OW87265   9.296   1.010   0.910  0.0778  0.1295  0.0009
28896SOL    HW187266   9.387   1.010   0.879  0.3397 -1.7672  0.6475
28896SOL    HW287267   9.250   0.951   0.850 -0.5079  0.2895  0.2807
28897SOL     OW87268   3.974   2.081   0.489  0.0961  0.2498 -0.5150
28897SOL    HW187269   3.945   2.159   0.536  0.0338 -0.5908  0.9016
28897SOL    HW287270   3.947   2.096   0.398 -1.3582  1.1559  0.0367
28898SOL     OW87271   3.739   7.647   4.218  0.0776 -0.5780  0.1046
28898SOL    HW187272   3.792   7.727   4.212 -1.0637  0.1578 -0.4018
28898SOL    HW287273   3.796   7.584   4.262  2.1622 -0.4553 -2.1940
28899SOL     OW87274   4.776   5.918   1.992  0.0898 -0.8359 -0.0089
28899SOL    HW187275   4.859   5.942   1.951 -1.5711 -0.7009 -3.7528
28899SOL    HW287276   4.743   6.000   2.028  1.0515 -0.6782  0.5576
28900SOL     OW87277   3.541   3.873   7.946  0.2500 -0.2412 -0.2580
28900SOL    HW187278   3.504   3.876   7.858 -1.2755 -0.2780  0.3448
28900SOL    HW287279   3.503   3.949   7.991  0.2963 -0.7225  0.6232
28901SOL     OW87280   5.869   6.797   3.193  0.2019 -0.7484 -0.0551
28901SOL    HW187281   5.864   6.702   3.180  1.5927 -0.6409 -1.6222
28901SOL    HW287282   5.926   6.828   3.122  0.9626  1.0805  1.2966
28902SOL     OW87283   5.863   1.856   0.995  0.2222  0.1082  0.2550
28902SOL    HW187284   5.806   1.912   0.941 -0.0692 -1.2446 -0.8928
28902SOL    HW287285   5.948   1.900   0.992 -0.5747  1.8838  1.5640
28903SOL     OW87286   9.048   0.283   6.260 -0.3880 -0.5015  0.2627
28903SOL    HW187287   9.044   0.266   6.354  1.6234  1.6688  0.8599
28903SOL    HW287288   9.137   0.315   6.246 -0.5229 -1.1092 -2.4811
28904SOL     OW87289   7.473   0.119   3.843 -0.1763 -0.4408  0.2336
28904SOL    HW187290   7.419   0.136   3.920  0.4397 -1.4106  0.8927
28904SOL    HW287291   7.464   0.026   3.827  1.3208 -0.6399  0.3901
28905SOL     OW87292   7.926   4.713   5.054 -0.1154  0.3533 -0.0862
28905SOL    HW187293   7.911   4.691   4.962 -0.1247 -0.4774  0.1059
28905SOL    HW287294   7.909   4.631   5.101 -0.9577  0.9879  0.7475
28906SOL     OW87295   7.651   2.803   3.059  0.7004 -0.2889 -0.7391
28906SOL    HW187296   7.558   2.805   3.080  0.9792 -0.5269  0.5610
28906SOL    HW287297   7.682   2.892   3.074  0.8347 -0.3811 -0.4679
28907SOL     OW87298   5.085   9.042   2.307  0.2165  0.1373 -0.1692
28907SOL    HW187299   5.090   9.112   2.242  0.1657  0.3388  0.0451
28907SOL    HW287300   5.171   9.042   2.349 -0.4497  1.4733  1.2910
28908SOL     OW87301   1.939   5.883   3.704 -0.1440  0.1640  0.1352
28908SOL    HW187302   1.907   5.797   3.678  1.2764 -0.4678  0.4250
28908SOL    HW287303   1.912   5.892   3.796 -0.6424  0.2185 -0.0107
28909SOL     OW87304   3.988   2.773   8.989 -0.0794 -0.1299 -0.1250
28909SOL    HW187305   4.026   2.858   8.969  1.2742 -0.5580  0.5553
28909SOL    HW287306   4.014   2.755   9.079 -0.5852 -1.1509 -0.1670
28910SOL     OW87307   4.545   1.201   5.199 -0.2546  1.1432 -0.4527
28910SOL    HW187308   4.522   1.109   5.209  1.0913  0.4183 -3.1741
28910SOL    HW287309   4.633   1.200   5.161  0.3756  3.6126  0.7094
28911SOL     OW87310   8.200   3.934   6.799 -0.1169 -0.5104 -0.1304
28911SOL    HW187311   8.186   4.006   6.738  0.6036 -0.5821 -0.3902
28911SOL    HW287312   8.144   3.864   6.766  1.3832 -1.0624 -1.6196
28912SOL     OW87313   6.378   3.101   6.522  0.1482  0.0071 -0.0717
28912SOL    HW187314   6.378   3.134   6.612  2.0766  1.8555 -0.6798
28912SOL    HW287315   6.361   3.007   6.532  0.6261  0.0922  2.2631
28913SOL     OW87316   7.043   2.412   5.538 -0.0053 -0.1369  0.1333
28913SOL    HW187317   7.044   2.505   5.516 -1.4605 -0.1183  0.0722
28913SOL    HW287318   7.002   2.408   5.624 -2.9479 -0.9251 -1.1908
28914SOL     OW87319   8.914   4.471   9.791  0.1699 -0.4696  0.3827
28914SOL    HW187320   8.993   4.424   9.762 -0.0968 -0.1655 -0.9238
28914SOL    HW287321   8.842   4.409   9.776 -0.0476 -0.0727 -0.2485
28915SOL     OW87322   0.391   3.619   8.635  0.4688  0.2200 -0.0694
28915SOL    HW187323   0.462   3.634   8.573 -0.8100 -0.8281 -1.8689
28915SOL    HW287324   0.418   3.542   8.685  0.9107  0.2572 -0.2492
28916SOL     OW87325   1.232   9.253   7.477  0.4978 -0.7116  0.0734
28916SOL    HW187326   1.290   9.314   7.430  0.8708 -0.0927  1.3043
28916SOL    HW287327   1.145   9.270   7.440  0.5376  0.8074  0.6024
28917SOL     OW87328   8.335   5.223   3.350  0.2154  0.0088 -0.1471
28917SOL    HW187329   8.381   5.151   3.393 -1.1921 -0.8443  0.0239
28917SOL    HW287330   8.253   5.231   3.399  0.9118  2.6984  0.7399
28918SOL     OW87331   7.552   7.754   3.831  0.3352  0.4379  0.0578
28918SOL    HW187332   7.552   7.740   3.736 -1.4042  0.6206  0.0125
28918SOL    HW287333   7.462   7.776   3.853  0.1982 -1.6650  2.0462
28919SOL     OW87334   1.792   0.119   3.969 -0.1646  0.1457  0.3100
28919SOL    HW187335   1.702   0.144   3.948 -0.5636 -1.1052  0.4568
28919SOL    HW287336   1.828   0.086   3.887  0.0292  0.2354  0.3567
28920SOL     OW87337   5.800   0.769   6.578 -1.1837  0.0280  0.3574
28920SOL    HW187338   5.767   0.773   6.668 -2.0032 -1.9537  0.1997
28920SOL    HW287339   5.850   0.688   6.575  1.8109  1.7639 -0.0974
28921SOL     OW87340   1.658   5.325   0.506 -0.2654  0.5787  0.1656
28921SOL    HW187341   1.622   5.311   0.418 -0.3900  0.6177  0.2098
28921SOL    HW287342   1.736   5.271   0.509  0.5443  1.6600 -0.4811
28922SOL     OW87343   6.326   7.608   4.905  0.0312  0.0473  0.3099
28922SOL    HW187344   6.415   7.629   4.876  0.4546 -0.8230  0.9633
28922SOL    HW287345   6.326   7.626   4.999 -0.2397 -0.7537  0.4653
28923SOL     OW87346   9.647   9.033   7.087 -0.2584 -0.6681  0.1828
28923SOL    HW187347   9.704   9.085   7.144  0.7457 -1.3905 -0.1285
28923SOL    HW287348   9.703   9.011   7.012 -0.5892 -2.3335  0.3862
28924SOL     OW87349   8.061   1.879   5.110 -0.3502 -0.3537 -0.3359
28924SOL    HW187350   8.098   1.858   5.196  1.3455 -0.2534 -1.0033
28924SOL    HW287351   8.126   1.937   5.070 -1.8098  0.8199 -1.1254
28925SOL     OW87352   0.178   2.935   9.402 -0.1125  0.1675 -0.2262
28925SOL    HW187353   0.152   2.843   9.393  1.0867 -0.3137  0.9698
28925SOL    HW287354   0.156   2.973   9.317 -1.0515 -1.1041 -0.5995
28926SOL     OW87355   9.489   6.833   1.286 -0.4939 -0.1556 -0.6973
28926SOL    HW187356   9.434   6.905   1.317 -0.4726 -1.1420  1.9568
28926SOL    HW287357   9.578   6.860   1.307 -0.4913 -0.9077  0.3862
28927SOL     OW87358   7.382   0.161   0.561 -0.1499  0.0194  0.0873
28927SOL    HW187359   7.406   0.254   0.558 -1.3584  0.3611  0.5159
28927SOL    HW287360   7.412   0.127   0.476 -1.0412  1.1602 -0.7297
28928SOL     OW87361   1.753   8.849   4.492  0.1626  0.6358  0.5563
28928SOL    HW187362   1.703   8.824   4.569  0.5247  1.2536  0.9988
28928SOL    HW287363   1.827   8.898   4.526 -0.3810  2.0996 -0.2429
28929SOL     OW87364   3.991   6.835   7.509 -0.1893 -0.0366 -0.1624
28929SOL    HW187365   3.991   6.764   7.445 -1.2055 -0.5551  0.3850
28929SOL    HW287366   3.975   6.792   7.593 -0.3208  0.7876  0.2477
28930SOL     OW87367   0.539   4.627   9.056 -0.1076  0.0901 -0.0776
28930SOL    HW187368   0.500   4.615   8.969  1.0996 -1.4686 -0.4515
28930SOL    HW287369   0.585   4.545   9.073 -2.1382 -0.5856  3.0464
28931SOL     OW87370   1.360   1.644   3.214 -0.4460  0.7629 -0.3144
28931SOL    HW187371   1.301   1.650   3.289  0.5406 -0.1555  0.5666
28931SOL    HW287372   1.375   1.734   3.187 -3.3829  0.9912 -1.5138
28932SOL     OW87373   1.570   9.056   5.397  0.2083  0.2798  0.4953
28932SOL    HW187374   1.649   9.050   5.451  0.4482 -0.2542  0.0907
28932SOL    HW287375   1.522   9.130   5.434  1.8891  1.9947 -0.5560
28933SOL     OW87376   3.054   5.280   4.893  0.0242  0.6141  0.4160
28933SOL    HW187377   3.037   5.213   4.826 -0.4577  2.6979 -1.7099
28933SOL    HW287378   2.979   5.276   4.952  0.4330 -1.2503  0.8609
28934SOL     OW87379   9.737   6.172   6.949  0.1587 -0.4544 -0.3617
28934SOL    HW187380   9.718   6.079   6.957 -0.7333 -0.2544 -0.0716
28934SOL    HW287381   9.816   6.185   7.002 -0.7835 -0.7076  1.1554
28935SOL     OW87382   8.417   4.613   1.844  0.3295  0.5619  0.0246
28935SOL    HW187383   8.396   4.542   1.784  0.2531 -1.5958  2.4561
28935SOL    HW287384   8.337   4.626   1.894  0.5887  1.8822  0.1333
28936SOL     OW87385   1.453   5.954   3.133 -0.4302  0.5536  0.6669
28936SOL    HW187386   1.418   5.865   3.130  1.1874 -0.1391  1.3583
28936SOL    HW287387   1.383   6.006   3.172 -1.7000 -0.2342 -0.4638
28937SOL     OW87388   3.183   8.381   7.937 -0.0867  0.1183  0.3011
28937SOL    HW187389   3.111   8.318   7.945 -0.4888  0.6692  1.0978
28937SOL    HW287390   3.245   8.355   8.005  0.5900 -0.4876 -0.5241
28938SOL     OW87391   5.940   6.497   9.359 -0.0656  0.2340 -0.0599
28938SOL    HW187392   5.868   6.532   9.412  0.6347  2.1688 -0.3172
28938SOL    HW287393   5.965   6.416   9.403 -0.9358  0.6809  1.3133
28939SOL     OW87394   5.206   0.226   5.770  0.0653  0.1335 -0.2622
28939SOL    HW187395   5.129   0.193   5.816 -0.7538  0.6182 -1.2667
28939SOL    HW287396   5.231   0.156   5.710  0.7105 -0.2125  0.3874
28940SOL     OW87397   9.421   3.173   8.912  0.4079 -0.3796 -0.5293
28940SOL    HW187398   9.333   3.140   8.895  0.4050  0.5515 -2.5492
28940SOL    HW287399   9.476   3.095   8.915 -0.6420 -1.1311  2.3716
28941SOL     OW87400   4.426   2.180   4.817  0.0871 -0.1926 -0.2611
28941SOL    HW187401   4.401   2.089   4.808  1.1676 -0.4476 -0.8463
28941SOL    HW287402   4.424   2.216   4.728  1.8818 -0.2792 -0.3735
28942SOL     OW87403   5.863   2.035   3.803 -0.0162  0.1000  0.2824
28942SOL    HW187404   5.904   2.088   3.734  0.6471 -0.8237 -0.0617
28942SOL    HW287405   5.931   1.973   3.829 -0.4143  0.1330  1.4540
28943SOL     OW87406   7.644   9.235   2.789 -0.1501 -0.0876  0.3390
28943SOL    HW187407   7.687   9.198   2.867 -0.4551  0.6626  0.8714
28943SOL    HW287408   7.712   9.285   2.745 -0.1966  0.2066  0.5982
28944SOL     OW87409   6.698   4.488   0.356  0.4337 -0.5734 -0.1754
28944SOL    HW187410   6.691   4.456   0.446 -0.9232 -1.2168 -0.4784
28944SOL    HW287411   6.641   4.565   0.354  1.0198 -0.1367 -0.3130
28945SOL     OW87412   9.848   0.489   5.870  0.1874 -0.0171  0.0531
28945SOL    HW187413   9.793   0.539   5.810  0.4458 -0.7994 -0.8826
28945SOL    HW287414   9.884   0.419   5.815  0.9242 -0.3952  0.9937
28946SOL     OW87415   1.717   7.766   1.503  0.2073 -0.4520 -0.1597
28946SOL    HW187416   1.780   7.705   1.541  1.3999  1.1928  0.6234
28946SOL    HW287417   1.765   7.849   1.496 -1.6860  0.7023 -0.1102
28947SOL     OW87418   1.366   0.592   1.564 -0.0290  0.7012  0.3244
28947SOL    HW187419   1.357   0.653   1.491 -1.1933  0.9056  0.6144
28947SOL    HW287420   1.283   0.599   1.612 -0.2917 -1.2331  0.2702
28948SOL     OW87421   7.904   3.191   9.703 -0.3925  0.1925 -0.0284
28948SOL    HW187422   7.955   3.206   9.623 -1.5096 -1.0635 -1.0436
28948SOL    HW287423   7.952   3.236   9.772  0.5614  1.3974 -1.4269
28949SOL     OW87424   1.877   2.280   6.900  0.7534 -0.0689  0.0233
28949SOL    HW187425   1.886   2.245   6.989  0.1847 -1.5390 -0.4684
28949SOL    HW287426   1.829   2.213   6.853 -0.1090  1.2839 -1.0784
28950SOL     OW87427   1.474   0.890   3.870 -0.5020  0.3105 -0.0093
28950SOL    HW187428   1.396   0.919   3.822 -0.5339  0.8490  0.3637
28950SOL    HW287429   1.457   0.799   3.892 -1.2175  0.5510  0.4489
28951SOL     OW87430   2.198   4.592   6.489  0.2314 -0.0596 -0.0564
28951SOL    HW187431   2.203   4.496   6.499  3.8365 -0.0210 -0.2794
28951SOL    HW287432   2.180   4.605   6.396  1.3056 -0.5577 -0.3477
28952SOL     OW87433   1.342   4.877   8.494  0.0752  0.5380 -0.0689
28952SOL    HW187434   1.411   4.829   8.449 -0.1094 -0.3821  0.5968
28952SOL    HW287435   1.342   4.964   8.454  0.2083 -0.1121 -1.5311
28953SOL     OW87436   6.819   8.713   6.956 -0.2267 -0.2951  0.3168
28953SOL    HW187437   6.785   8.747   6.873 -1.6640 -0.8352  0.6541
28953SOL    HW287438   6.787   8.623   6.959  0.5508 -0.5560  1.0725
28954SOL     OW87439   7.969   7.921   8.701 -0.1964  0.6654  0.2157
28954SOL    HW187440   7.898   7.888   8.756  0.3793  1.1963  1.3119
28954SOL    HW287441   7.968   8.016   8.713  1.4571  0.6000  1.2742
28955SOL     OW87442   9.162   5.139   5.865 -0.0411  0.1397  0.4545
28955SOL    HW187443   9.069   5.140   5.888 -0.2314  1.7138 -0.2209
28955SOL    HW287444   9.173   5.060   5.814 -1.0000 -0.1019  0.5908
28956SOL     OW87445   3.777   9.070   1.018 -0.3500 -0.1342  0.6092
28956SOL    HW187446   3.750   8.980   1.032 -0.1276 -0.5798 -1.4025
28956SOL    HW287447   3.715   9.123   1.067 -1.2853 -1.3464  0.7618
28957SOL     OW87448   4.789   6.400   6.703 -0.3414  0.4438 -0.6444
28957SOL    HW187449   4.876   6.373   6.732 -1.5356 -1.9089  1.1259
28957SOL    HW287450   4.743   6.318   6.686 -2.6461  1.5420 -0.0743
28958SOL     OW87451   4.515   5.737   8.078 -0.3150 -0.0612 -0.7586
28958SOL    HW187452   4.530   5.720   8.171 -2.2877 -0.0925 -0.4090
28958SOL    HW287453   4.580   5.684   8.033  0.8534  0.1637  0.5905
28959SOL     OW87454   3.564   8.865   0.087  0.3264  0.4366  0.5932
28959SOL    HW187455   3.484   8.911   0.112 -0.0500  1.0061 -1.4304
28959SOL    HW287456   3.619   8.866   0.166 -0.6641  2.2275  1.3109
28960SOL     OW87457   6.461   4.695   7.973 -0.2729  0.4405  0.1676
28960SOL    HW187458   6.532   4.701   7.909 -0.1534 -0.5707  0.2017
28960SOL    HW287459   6.496   4.735   8.052 -0.1652  1.0272 -0.1711
28961SOL     OW87460   0.681   0.319   7.435 -0.2123 -0.0821 -0.4077
28961SOL    HW187461   0.617   0.258   7.471  0.1856  0.2692  0.9624
28961SOL    HW287462   0.687   0.389   7.500  1.2537  0.0828 -0.6736
28962SOL     OW87463   3.225   8.626   6.446 -0.6587  0.1613  0.3166
28962SOL    HW187464   3.144   8.674   6.462 -0.0328  1.2483  0.2672
28962SOL    HW287465   3.244   8.585   6.531 -1.3193 -0.2197  0.2938
28963SOL     OW87466   1.365   7.699   3.405 -0.5171  0.5105  0.0679
28963SOL    HW187467   1.430   7.719   3.338  0.0703 -1.3975  0.0158
28963SOL    HW287468   1.375   7.770   3.469  3.6487 -1.0293  1.5091
28964SOL     OW87469   3.898   9.736   8.010 -0.3419  0.0237  0.3531
28964SOL    HW187470   3.862   9.748   8.098 -0.1341 -0.0933  0.4551
28964SOL    HW287471   3.822   9.723   7.954 -0.4343 -0.8211  0.6605
28965SOL     OW87472   4.788   7.468   8.918  0.3496  0.3624 -0.3086
28965SOL    HW187473   4.707   7.460   8.967 -0.2243 -1.5606 -1.4913
28965SOL    HW287474   4.815   7.378   8.900  0.5812  0.9182 -3.3579
28966SOL     OW87475   4.222   8.129   9.009 -0.0969 -0.4763  0.0622
28966SOL    HW187476   4.235   8.037   8.987 -0.7960 -0.5577 -0.0325
28966SOL    HW287477   4.311   8.165   9.015  0.2216 -1.3564  1.0056
28967SOL     OW87478   0.656   2.723   2.776  0.4458  0.1617 -0.1881
28967SOL    HW187479   0.588   2.662   2.803  0.0268  0.5324 -0.3966
28967SOL    HW287480   0.659   2.715   2.681  0.5791  0.2725 -0.1939
28968SOL     OW87481   3.275   0.690   0.448  0.7997 -0.1323 -0.0126
28968SOL    HW187482   3.308   0.714   0.534  0.8926 -1.9581  0.5143
28968SOL    HW287483   3.302   0.599   0.437 -2.0342 -1.0201 -0.5221
28969SOL     OW87484   6.212   2.393   2.216 -0.1176  0.5021 -0.0736
28969SOL    HW187485   6.266   2.318   2.194 -0.5003  1.0412 -3.2826
28969SOL    HW287486   6.271   2.454   2.260  1.2817  0.0331 -1.2513
28970SOL     OW87487   5.104   1.185   1.228 -0.2621  0.3805  0.3274
28970SOL    HW187488   5.139   1.163   1.315 -2.0171  0.4466  1.0816
28970SOL    HW287489   5.010   1.175   1.237 -0.7838  3.3591 -0.6958
28971SOL     OW87490   8.128   2.836   7.831 -0.3047  0.2216  0.2775
28971SOL    HW187491   8.081   2.758   7.861 -0.3617  1.1839  2.9475
28971SOL    HW287492   8.094   2.907   7.885  1.8834  1.5435  0.0629
28972SOL     OW87493   8.252   5.263   2.849  0.0986 -0.1182  0.3699
28972SOL    HW187494   8.172   5.292   2.894  0.0237  2.3745 -1.1829
28972SOL    HW287495   8.315   5.250   2.919 -1.1894 -0.4799  1.5094
28973SOL     OW87496   8.177   8.651   2.666 -0.4268  0.0375 -0.1668
28973SOL    HW187497   8.180   8.585   2.596 -1.3916  0.0751 -0.2474
28973SOL    HW287498   8.103   8.625   2.721 -1.3923  1.5581 -0.7102
28974SOL     OW87499   1.033   2.233   4.660 -0.2365  0.3586 -0.0755
28974SOL    HW187500   0.994   2.285   4.589  1.4634  3.9355  1.3586
28974SOL    HW287501   0.964   2.227   4.725 -0.2277  1.7278  0.1047
28975SOL     OW87502   4.769   1.792   4.974 -0.2922  0.3037 -0.3605
28975SOL    HW187503   4.858   1.814   5.002  0.3003  0.6845 -2.4091
28975SOL    HW287504   4.713   1.831   5.042  1.0808 -1.0426  1.6614
28976SOL     OW87505   1.899   5.741   2.148 -0.3316 -0.4607 -0.8683
28976SOL    HW187506   1.856   5.825   2.135 -1.8489 -1.1794 -0.7312
28976SOL    HW287507   1.947   5.751   2.230 -0.5515  0.2594 -0.8237
28977SOL     OW87508   2.034   9.564   4.177  0.1176 -0.6231 -0.3209
28977SOL    HW187509   2.122   9.555   4.215 -0.4644  0.6637  1.4828
28977SOL    HW287510   2.047   9.618   4.099  0.7002  1.6785  1.2600
28978SOL     OW87511   9.339   6.565   3.311 -0.2258  0.2483 -0.8621
28978SOL    HW187512   9.245   6.568   3.325 -0.1256 -0.1704 -0.0350
28978SOL    HW287513   9.374   6.521   3.388  0.6316  0.2191 -1.2463
28979SOL     OW87514   6.626   4.571   8.338 -0.5336  0.3276 -0.0384
28979SOL    HW187515   6.580   4.652   8.316 -1.1561 -0.3403 -1.3606
28979SOL    HW287516   6.696   4.566   8.273 -0.3073 -0.0443  0.2331
28980SOL     OW87517   1.490   9.555   9.067  0.1752 -0.1612 -0.1049
28980SOL    HW187518   1.578   9.572   9.034 -0.2285 -1.1628 -1.8230
28980SOL    HW287519   1.443   9.637   9.053  0.2549 -0.2992 -1.2877
28981SOL     OW87520   8.911   3.013   9.639  0.3783 -0.2577  0.4241
28981SOL    HW187521   8.985   2.955   9.621  0.3102  0.1906 -1.5386
28981SOL    HW287522   8.857   3.009   9.560 -0.9849  0.4943  1.2720
28982SOL     OW87523   8.638   3.752   4.386 -0.2197  0.1805  0.4953
28982SOL    HW187524   8.637   3.831   4.439  0.5932  0.6375 -0.1537
28982SOL    HW287525   8.610   3.682   4.445  0.4680  0.7132  1.4615
28983SOL     OW87526   9.331   7.123   6.829 -0.6605  0.5576 -0.7280
28983SOL    HW187527   9.284   7.041   6.847  2.3676 -1.2960 -0.6965
28983SOL    HW287528   9.363   7.114   6.740  2.7513 -0.0279  0.4176
28984SOL     OW87529   2.300   2.310   2.864 -0.3186  0.1630 -0.1601
28984SOL    HW187530   2.306   2.406   2.862  2.2606  0.0460 -1.3477
28984SOL    HW287531   2.301   2.284   2.773 -2.0338 -1.0048  0.1217
28985SOL     OW87532   9.953   9.025   3.111 -0.1671 -0.3947  0.1937
28985SOL    HW187533   9.917   8.936   3.116 -0.6926 -0.4277 -2.5252
28985SOL    HW287534   9.880   9.082   3.133  0.3664 -0.5593  2.7197
28986SOL     OW87535   3.436   0.392   7.809 -0.1638 -0.5401 -0.0019
28986SOL    HW187536   3.434   0.376   7.903 -3.7314 -0.0211  0.1429
28986SOL    HW287537   3.488   0.472   7.800  0.7523 -0.9326  1.4156
28987SOL     OW87538   0.843   1.424   3.975  0.3825 -0.0171 -0.5296
28987SOL    HW187539   0.873   1.496   3.918 -2.9093  1.9153 -0.0792
28987SOL    HW287540   0.844   1.347   3.918 -0.2306  1.3110 -2.4687
28988SOL     OW87541   1.471   7.517   8.979  0.0303  0.6035  0.4208
28988SOL    HW187542   1.433   7.446   9.031  1.9875  0.3998  1.6893
28988SOL    HW287543   1.403   7.585   8.979 -1.4970 -0.8380  0.0024
28989SOL     OW87544   5.408   7.792   3.278  0.1827  0.5497 -0.0501
28989SOL    HW187545   5.423   7.880   3.244  1.8123  0.0759 -0.6497
28989SOL    HW287546   5.315   7.790   3.299  0.0721  2.3330 -0.2346
28990SOL     OW87547   9.192   8.486   7.616  0.4408 -0.1453  0.1819
28990SOL    HW187548   9.249   8.410   7.603  0.5782  0.1487 -1.0249
28990SOL    HW287549   9.159   8.506   7.528 -1.4131 -0.2159  0.8204
28991SOL     OW87550   0.500   2.018   9.538  0.4980  0.4767 -0.4004
28991SOL    HW187551   0.481   1.952   9.470  0.9010  1.0341 -1.0615
28991SOL    HW287552   0.487   2.102   9.494  2.5434  0.8720 -0.3105
28992SOL     OW87553   6.624   2.397   3.013 -0.0988  0.0106  0.1798
28992SOL    HW187554   6.689   2.455   2.974 -0.5954  0.3494 -0.1665
28992SOL    HW287555   6.626   2.318   2.957  2.2713 -1.3764  2.0250
28993SOL     OW87556   4.534   0.566   0.299 -0.8301 -0.0445  0.2063
28993SOL    HW187557   4.513   0.530   0.385 -0.1635 -0.5659  0.1628
28993SOL    HW287558   4.560   0.656   0.316  1.0223 -0.6390  0.8089
28994SOL     OW87559   0.021   4.787   7.667 -0.6218  0.4592  0.4274
28994SOL    HW187560   0.096   4.728   7.658  0.3810  1.6713  0.5913
28994SOL    HW287561  -0.052   4.730   7.694  0.5441 -0.5561  1.5581
28995SOL     OW87562   3.406   7.251   3.361 -0.3774  0.0995  0.0328
28995SOL    HW187563   3.316   7.220   3.368 -0.3131 -0.1044 -0.0422
28995SOL    HW287564   3.415   7.281   3.270 -0.4930  0.5062  0.1539
28996SOL     OW87565   3.874   3.468   7.207 -0.2099 -0.1460 -0.4762
28996SOL    HW187566   3.792   3.459   7.158 -1.4340  0.4567  1.3737
28996SOL    HW287567   3.942   3.446   7.143 -1.6421  1.4514 -2.7269
28997SOL     OW87568   5.004   3.461   5.661  0.3401 -0.4704  0.1086
28997SOL    HW187569   4.933   3.520   5.687 -1.1183 -2.4298  0.8158
28997SOL    HW287570   5.062   3.457   5.737  0.2756 -0.2007  0.1718
28998SOL     OW87571   8.715   6.545   5.207  0.1478  0.2406  0.0430
28998SOL    HW187572   8.769   6.514   5.281 -3.0759 -1.7031  1.7986
28998SOL    HW287573   8.727   6.479   5.140  1.7811  1.1428 -0.6278
28999SOL     OW87574   2.567   6.338   4.348 -0.7431 -0.4635  0.3175
28999SOL    HW187575   2.550   6.275   4.417 -1.3852 -0.0454  0.5463
28999SOL    HW287576   2.658   6.323   4.323 -0.0081  0.3748  2.3018
29000SOL     OW87577   8.748   9.559   2.355 -0.6032 -0.0018  0.2580
29000SOL    HW187578   8.710   9.471   2.361 -2.2123  0.7361  2.8822
29000SOL    HW287579   8.763   9.584   2.447  3.0356  1.2047 -0.5165
29001SOL     OW87580   6.911   8.334   3.000  0.0830 -0.7586 -0.3037
29001SOL    HW187581   6.864   8.307   2.921 -1.1102  0.2425  0.0320
29001SOL    HW287582   6.889   8.426   3.011  1.0779 -0.6032  0.6333
29002SOL     OW87583   6.404   8.953   2.752  0.1405  0.7402 -0.1144
29002SOL    HW187584   6.499   8.951   2.744  0.2023  0.7358  0.5960
29002SOL    HW287585   6.378   8.861   2.749  0.3501  0.5913  1.8109
29003SOL     OW87586   7.765   9.269  -0.020 -0.5270 -0.2018 -0.0397
29003SOL    HW187587   7.718   9.352  -0.010  0.0660  0.2200 -0.5937
29003SOL    HW287588   7.815   9.260   0.061  0.0525  0.4245 -0.3089
29004SOL     OW87589   0.933   7.498   2.980 -0.0517  0.1419  0.9477
29004SOL    HW187590   0.941   7.474   3.072  2.1570  0.0028  0.7814
29004SOL    HW287591   1.014   7.546   2.961  0.0458 -0.7414 -1.1736
29005SOL     OW87592   4.486   0.750   5.432  0.4835  0.2753  0.1224
29005SOL    HW187593   4.550   0.792   5.489  0.7729 -1.4464  1.1588
29005SOL    HW287594   4.510   0.657   5.433 -1.8456 -0.4049  0.3122
29006SOL     OW87595   9.741   2.063   0.906 -0.3070  0.2181  0.3946
29006SOL    HW187596   9.683   2.138   0.917  1.5757  1.8489 -0.1634
29006SOL    HW287597   9.778   2.047   0.993  0.1229  0.6579  0.2931
29007SOL     OW87598   6.391   0.548   2.347  0.1171  0.6351 -0.3457
29007SOL    HW187599   6.408   0.600   2.268  1.2912  0.2413 -0.3659
29007SOL    HW287600   6.426   0.461   2.327 -0.3490  0.2927  0.2937
29008SOL     OW87601   5.600   0.175   0.707 -0.3243  0.0140  0.0135
29008SOL    HW187602   5.609   0.269   0.722 -1.3816  0.6514 -2.8521
29008SOL    HW287603   5.529   0.149   0.766 -0.8361  1.2619 -0.0123
29009SOL     OW87604   1.219   9.080   3.354  0.1016 -0.5164  0.8768
29009SOL    HW187605   1.168   9.052   3.278  0.3261  0.4420  0.3495
29009SOL    HW287606   1.189   9.170   3.370  1.8807  0.2238  0.3024
29010SOL     OW87607   9.879   5.828   0.389 -0.5422  0.4962 -0.1097
29010SOL    HW187608   9.865   5.918   0.420 -0.9103  0.8819 -1.3097
29010SOL    HW287609   9.971   5.810   0.408 -1.0840  0.1111  2.5600
29011SOL     OW87610   0.710   6.209   1.073  0.6423  0.5507 -0.4991
29011SOL    HW187611   0.742   6.206   0.982 -0.8563  1.8819 -1.1110
29011SOL    HW287612   0.751   6.287   1.110  0.3121  0.6843 -0.4115
29012SOL     OW87613   5.587   0.187   9.899  0.0043  0.4932 -0.7425
29012SOL    HW187614   5.638   0.133   9.838 -1.4097 -1.5823 -0.2081
29012SOL    HW287615   5.563   0.126   9.969 -2.4762  1.5772 -0.5688
29013SOL     OW87616   8.515   9.351   1.146 -0.5146  0.3268  0.5326
29013SOL    HW187617   8.610   9.351   1.134 -0.7298  0.1729 -1.4158
29013SOL    HW287618   8.503   9.337   1.240  1.3863  0.5874  0.8500
29014SOL     OW87619   8.782   7.376   3.599  0.1034  0.5376  0.5636
29014SOL    HW187620   8.772   7.292   3.553 -1.9680  1.3815 -0.6866
29014SOL    HW287621   8.855   7.362   3.658  2.1392 -1.0505 -2.0912
29015SOL     OW87622   7.666   4.161   2.882  0.2881  0.0142  0.7897
29015SOL    HW187623   7.725   4.100   2.926  0.7753  0.8565  1.3407
29015SOL    HW287624   7.626   4.110   2.811  1.0791 -0.7862  0.9054
29016SOL     OW87625   4.555   9.702   4.470 -0.1100  0.0295 -0.6125
29016SOL    HW187626   4.556   9.612   4.439  0.5697  0.2325 -1.2105
29016SOL    HW287627   4.640   9.738   4.443  0.1778  0.4606  0.7640
29017SOL     OW87628   2.446   1.674   5.374 -0.3159 -0.0754 -0.2728
29017SOL    HW187629   2.437   1.691   5.468  0.7346 -1.2479  0.0634
29017SOL    HW287630   2.433   1.759   5.333  0.1377  0.6359  0.9976
29018SOL     OW87631   0.529   0.894   3.071 -0.7205  0.2185 -0.0915
29018SOL    HW187632   0.447   0.881   3.120 -0.5918  0.4643  0.1948
29018SOL    HW287633   0.547   0.809   3.031 -1.5629  0.3793 -0.8541
29019SOL     OW87634   0.827   8.150   4.321  0.3811  0.7787  0.4250
29019SOL    HW187635   0.836   8.072   4.376 -0.5538 -0.5860 -1.2512
29019SOL    HW287636   0.794   8.218   4.381  1.9275  0.1499  2.0802
29020SOL     OW87637   3.405   6.240   1.883 -0.1693 -0.0557  0.7066
29020SOL    HW187638   3.349   6.220   1.808 -0.8121  0.5943  0.9990
29020SOL    HW287639   3.393   6.166   1.943  1.2153 -1.1515 -0.2779
29021SOL     OW87640   4.081   3.079   3.320  0.0007 -0.1617  0.3848
29021SOL    HW187641   4.174   3.067   3.338 -0.2835  1.1174  3.0942
29021SOL    HW287642   4.075   3.167   3.281 -0.2766  1.1809  3.1917
29022SOL     OW87643   5.240   2.581   1.139 -0.2421  0.1593  0.5112
29022SOL    HW187644   5.224   2.490   1.164  0.1231  0.0368  0.3033
29022SOL    HW287645   5.308   2.611   1.200 -0.9631  0.5578  1.1360
29023SOL     OW87646   0.788   6.705   9.784 -0.3616  0.4484 -0.5278
29023SOL    HW187647   0.758   6.629   9.735 -0.6054  0.2592 -0.0938
29023SOL    HW287648   0.708   6.743   9.820 -0.1508  0.3447  0.0638
29024SOL     OW87649   6.244   7.399   2.527  0.1573 -0.0114 -0.0038
29024SOL    HW187650   6.275   7.476   2.478  0.1349  0.0440  0.0679
29024SOL    HW287651   6.306   7.330   2.505 -0.2758 -0.1852 -0.6842
29025SOL     OW87652   5.717   7.302   2.595 -0.4507 -0.1389 -0.0435
29025SOL    HW187653   5.680   7.388   2.576 -0.1498  0.3723  1.5513
29025SOL    HW287654   5.811   7.316   2.603 -0.4197 -0.5605  0.4437
29026SOL     OW87655   1.019   6.726   3.552 -0.1900 -0.4238 -0.2928
29026SOL    HW187656   1.107   6.744   3.519  0.1338 -0.3632  0.5731
29026SOL    HW287657   1.032   6.711   3.646 -1.5315  3.1478  0.6177
29027SOL     OW87658   3.967   0.583   6.878 -0.1649  0.2974 -0.0150
29027SOL    HW187659   4.002   0.604   6.791 -2.6942  0.4146 -1.0983
29027SOL    HW287660   3.951   0.489   6.875  1.1787  0.0081  0.9441
29028SOL     OW87661   0.971   4.008   9.330  0.1701  0.2962 -0.1577
29028SOL    HW187662   0.906   4.073   9.358  0.6533  0.3072  1.0039
29028SOL    HW287663   1.045   4.060   9.299  0.7033  0.3405  1.1134
29029SOL     OW87664   9.788   5.014   9.290 -0.1936  0.3252 -0.2146
29029SOL    HW187665   9.729   5.077   9.331 -0.0481  0.8729 -0.8416
29029SOL    HW287666   9.771   5.022   9.196 -0.3113 -0.7072 -0.2950
29030SOL     OW87667   2.867   4.474   3.489 -0.0354 -0.6849 -0.5306
29030SOL    HW187668   2.932   4.520   3.542 -0.5049 -2.1360  1.4246
29030SOL    HW287669   2.917   4.438   3.415  0.4153  2.4415 -1.9325
29031SOL     OW87670   5.143   0.804   3.504  0.5917  0.1481  0.3336
29031SOL    HW187671   5.212   0.772   3.563  0.0978  0.5555  1.1521
29031SOL    HW287672   5.080   0.847   3.562 -0.7879 -0.9424 -0.2818
29032SOL     OW87673   9.191   1.421   5.023  0.2801  0.3195  0.4199
29032SOL    HW187674   9.286   1.408   5.033  0.4589 -0.2347 -1.5996
29032SOL    HW287675   9.160   1.340   4.985 -1.0473  0.4700  1.1468
29033SOL     OW87676   8.388   3.874   7.543  0.0337 -0.8435 -0.7171
29033SOL    HW187677   8.348   3.868   7.630 -2.4708 -0.2740 -1.7399
29033SOL    HW287678   8.397   3.968   7.528  0.7897 -0.9513 -0.9436
29034SOL     OW87679   7.057   3.041   8.715  0.0852 -0.3005  0.1655
29034SOL    HW187680   7.045   3.076   8.626  0.8536 -1.3230 -0.3512
29034SOL    HW287681   7.009   2.958   8.715 -2.4610  1.0084  1.6448
29035SOL     OW87682   2.269   6.476   0.005 -0.5001 -0.4463 -0.3178
29035SOL    HW187683   2.349   6.424  -0.009 -0.4964 -1.0216  1.5473
29035SOL    HW287684   2.200   6.411   0.015 -0.6615 -0.0994  1.0569
29036SOL     OW87685   4.403   8.604   8.896  0.1847  0.0790 -0.3357
29036SOL    HW187686   4.409   8.598   8.991  0.2917  2.3013 -0.1396
29036SOL    HW287687   4.465   8.539   8.864  0.3674 -0.4952  1.1182
29037SOL     OW87688   7.029   2.189   6.041  0.3782  0.6500 -0.0031
29037SOL    HW187689   7.060   2.179   5.951  0.1366 -1.2536  0.0938
29037SOL    HW287690   7.107   2.175   6.095 -0.2313 -2.7423  0.1891
29038SOL     OW87691   3.928   9.587   6.317 -0.1276 -0.1433 -0.4183
29038SOL    HW187692   3.951   9.679   6.323  0.6695 -0.3138 -0.7695
29038SOL    HW287693   3.884   9.568   6.400 -0.7637  0.6692 -0.5578
29039SOL     OW87694   5.860   1.835   8.936  0.3207 -0.1415  0.4322
29039SOL    HW187695   5.921   1.785   8.990  1.4987  0.3295 -0.4117
29039SOL    HW287696   5.906   1.847   8.853 -1.8758 -1.8403 -1.1593
29040SOL     OW87697   4.444   2.954   5.713 -0.5692 -0.2040 -0.1749
29040SOL    HW187698   4.432   2.991   5.801 -0.8289  0.6646 -0.5725
29040SOL    HW287699   4.373   2.891   5.705  0.1544 -1.1798  0.6858
29041SOL     OW87700   9.928   1.646   0.317 -0.3466 -0.3508 -0.0937
29041SOL    HW187701   9.983   1.646   0.395  0.3708  2.6603 -0.4925
29041SOL    HW287702   9.859   1.709   0.335  0.1153  0.7877 -2.0213
29042SOL     OW87703   8.607   3.065   9.015 -0.4021 -0.3425  0.4220
29042SOL    HW187704   8.617   2.971   9.002  0.6074  0.0211 -1.9650
29042SOL    HW287705   8.530   3.088   8.963 -0.1334  0.2829  0.2905
29043SOL     OW87706   9.938   2.193   4.981  0.3017 -0.3311 -0.1735
29043SOL    HW187707   9.868   2.210   5.044  0.2480  2.3078 -0.8151
29043SOL    HW287708  10.014   2.169   5.034 -0.0079  0.8748  0.8534
29044SOL     OW87709   5.353   7.955   3.079  0.0105 -0.0584 -0.1936
29044SOL    HW187710   5.402   8.014   3.021  0.2114  0.0426  0.0774
29044SOL    HW287711   5.320   8.013   3.148 -0.4969 -0.1253 -0.3791
29045SOL     OW87712   6.147   1.824   3.619 -0.0766  0.2346 -0.2210
29045SOL    HW187713   6.221   1.781   3.576 -0.6589 -1.6838  0.5968
29045SOL    HW287714   6.070   1.786   3.577 -0.6444 -1.1052  1.8803
29046SOL     OW87715   2.279   6.448   0.424  0.4663 -0.6838 -0.3400
29046SOL    HW187716   2.185   6.467   0.423  0.7848  1.0521 -0.3989
29046SOL    HW287717   2.314   6.494   0.348  1.4602 -0.8442 -0.0012
29047SOL     OW87718   8.708   1.332   8.240  0.2469 -1.0519 -0.0711
29047SOL    HW187719   8.727   1.416   8.282  2.2765 -0.9404 -1.0835
29047SOL    HW287720   8.621   1.344   8.201  0.5012  0.6187 -0.2308
29048SOL     OW87721   1.872   1.807   2.293 -0.8582 -0.4366  0.3120
29048SOL    HW187722   1.923   1.886   2.271 -1.5133  0.6506  2.4024
29048SOL    HW287723   1.793   1.815   2.240  0.5058 -1.5574 -2.1031
29049SOL     OW87724   8.736   8.632   3.110 -0.2328 -0.2965 -0.7480
29049SOL    HW187725   8.765   8.590   3.029  3.1019 -0.0892  0.1930
29049SOL    HW287726   8.704   8.718   3.082  2.6270  0.5507 -1.7902
29050SOL     OW87727   9.363   0.235   9.236  0.0995 -0.1393 -0.5744
29050SOL    HW187728   9.333   0.160   9.287 -3.4972  1.2675 -0.3459
29050SOL    HW287729   9.405   0.292   9.299  1.3841 -1.1773 -0.4489
29051SOL     OW87730   1.735   4.503   5.690  0.0178 -0.4981  0.0845
29051SOL    HW187731   1.826   4.533   5.692 -0.2629  0.3836 -0.0581
29051SOL    HW287732   1.723   4.467   5.603  0.5944 -1.8156  0.5242
29052SOL     OW87733   8.833   7.568   1.716  0.6229  0.0938  0.5826
29052SOL    HW187734   8.866   7.651   1.752 -1.8816  0.8747  1.2435
29052SOL    HW287735   8.769   7.537   1.780 -1.1349 -0.4856 -1.3367
29053SOL     OW87736   7.986   6.515   4.822  0.0160 -0.2498  0.1098
29053SOL    HW187737   8.061   6.574   4.810 -0.8529  0.6770 -0.9248
29053SOL    HW287738   7.991   6.453   4.750  0.3405 -0.8296  0.6159
29054SOL     OW87739   1.117   1.832   3.241  0.0202  0.6131  0.2632
29054SOL    HW187740   1.091   1.923   3.251 -2.0186  0.6507 -3.4677
29054SOL    HW287741   1.038   1.782   3.257  0.0870 -0.1205 -1.4110
29055SOL     OW87742   1.486   8.477   4.784  0.8064 -0.1307  0.2908
29055SOL    HW187743   1.493   8.569   4.809  2.0945 -0.1981  0.2643
29055SOL    HW287744   1.469   8.431   4.865 -1.4367  0.2459  0.1058
29056SOL     OW87745   8.615   6.715   5.387  0.6749 -0.2289  0.0543
29056SOL    HW187746   8.634   6.667   5.306  0.8688 -1.8491  1.0276
29056SOL    HW287747   8.692   6.771   5.400  1.2584 -0.9747 -0.1546
29057SOL     OW87748   8.084   3.281   3.859 -0.5613  0.5750  0.0564
29057SOL    HW187749   8.174   3.298   3.830 -0.4780 -1.7724 -1.2930
29057SOL    HW287750   8.093   3.214   3.927 -1.2645  0.7871  0.3652
29058SOL     OW87751   0.455   7.304   1.589  0.3553  0.1827  0.0396
29058SOL    HW187752   0.389   7.291   1.520  0.0839  0.5492  0.2213
29058SOL    HW287753   0.525   7.353   1.545  0.8099 -0.7759 -0.3200
29059SOL     OW87754   0.194   9.626   0.649 -0.1959 -0.2928 -0.2175
29059SOL    HW187755   0.215   9.562   0.581 -0.2345 -0.5079 -0.0297
29059SOL    HW287756   0.130   9.684   0.609  1.6123  1.1079 -1.2020
29060SOL     OW87757   4.246   3.540   0.623  0.1926  0.2466  0.2117
29060SOL    HW187758   4.225   3.574   0.710 -4.7445  0.2831 -0.7370
29060SOL    HW287759   4.283   3.615   0.577 -1.5215  1.6012  0.9525
29061SOL     OW87760   6.787   2.744   4.891 -0.2983 -0.2301 -0.1253
29061SOL    HW187761   6.864   2.787   4.926 -0.3331  0.3751 -0.7770
29061SOL    HW287762   6.721   2.813   4.884  0.1759  0.0739 -2.8105
29062SOL     OW87763   4.114   7.364   9.954  0.2937 -0.0226 -0.4707
29062SOL    HW187764   4.147   7.425   9.889  0.8729 -0.2857 -0.4250
29062SOL    HW287765   4.026   7.396   9.975 -0.1603 -0.3070 -1.8584
29063SOL     OW87766   1.114   8.648   1.208  0.6235  0.0074  0.0874
29063SOL    HW187767   1.053   8.686   1.271  1.1045  0.5432  0.2496
29063SOL    HW287768   1.065   8.579   1.164  0.1582 -0.1118  0.7795
29064SOL     OW87769   3.563   4.719   1.707  0.4912  0.1357 -0.1900
29064SOL    HW187770   3.558   4.668   1.627  0.3041 -0.3116  0.0980
29064SOL    HW287771   3.541   4.656   1.776 -0.0778  0.6876  0.1373
29065SOL     OW87772   0.968   1.499   9.563  0.1763  0.2581 -0.0333
29065SOL    HW187773   0.903   1.568   9.580 -1.8081 -1.0197 -1.8314
29065SOL    HW287774   0.996   1.516   9.473  0.3290 -0.7567 -0.1816
29066SOL     OW87775   3.624   9.621   5.580  0.1712 -0.0869 -0.7166
29066SOL    HW187776   3.612   9.595   5.671  1.8523 -0.4834 -0.5807
29066SOL    HW287777   3.535   9.638   5.548 -0.5093 -0.7252  0.7484
29067SOL     OW87778   9.164   4.501   2.972 -0.4965 -0.0581 -0.3414
29067SOL    HW187779   9.157   4.499   2.876  0.5741 -0.0089 -0.4264
29067SOL    HW287780   9.094   4.560   3.000 -0.7087  0.0583 -1.0988
29068SOL     OW87781   5.171   9.791   6.512 -0.5224  0.1340 -0.0164
29068SOL    HW187782   5.084   9.789   6.552 -0.0543  0.2657  1.0407
29068SOL    HW287783   5.186   9.883   6.491 -1.2603 -0.0861 -1.6554
29069SOL     OW87784   6.177   9.688   3.702 -0.3514  0.3018 -0.1858
29069SOL    HW187785   6.149   9.621   3.764 -1.2657  0.8232 -0.0058
29069SOL    HW287786   6.096   9.719   3.662 -0.1127  2.1433  0.6366
29070SOL     OW87787   2.120   0.631   7.198  0.0226 -0.2413 -0.8606
29070SOL    HW187788   2.169   0.597   7.123 -2.4789 -0.3899 -2.5450
29070SOL    HW287789   2.130   0.564   7.265  1.1091 -0.8321 -1.5702
29071SOL     OW87790   7.846   6.238   0.613 -0.2559  0.0550 -0.0868
29071SOL    HW187791   7.921   6.199   0.568 -0.8907 -0.4566 -0.7104
29071SOL    HW287792   7.844   6.194   0.698  0.3026  0.2680  0.0474
29072SOL     OW87793   0.351   1.115   0.812 -0.0526 -0.0762 -0.0934
29072SOL    HW187794   0.380   1.074   0.730 -1.1390 -1.0782 -0.0102
29072SOL    HW287795   0.297   1.048   0.854  2.1297 -0.3783  2.4870
29073SOL     OW87796   6.698   8.644   4.463  0.4688 -0.3043  0.0443
29073SOL    HW187797   6.702   8.620   4.556 -0.1593  2.3135  0.8317
29073SOL    HW287798   6.695   8.560   4.417  1.1105 -1.6905  2.3486
29074SOL     OW87799   7.597   7.778   0.075  0.5214  0.4832 -0.0221
29074SOL    HW187800   7.611   7.873   0.073  0.0477  0.6137  1.5376
29074SOL    HW287801   7.683   7.742   0.095  0.2251  0.8042  2.1281
29075SOL     OW87802   7.838   0.803   3.200  0.2032  0.2332 -0.2584
29075SOL    HW187803   7.892   0.853   3.261  1.0357  0.3378 -1.0595
29075SOL    HW287804   7.841   0.854   3.119 -0.4188 -0.1976 -0.5538
29076SOL     OW87805   8.203   7.458   0.497  0.0797 -0.0402 -0.3184
29076SOL    HW187806   8.219   7.523   0.429  0.7453 -0.5000 -0.6085
29076SOL    HW287807   8.274   7.394   0.488 -0.3628 -0.6282  0.1819
29077SOL     OW87808   4.147   5.697   3.856  0.5760  0.1197 -0.5332
29077SOL    HW187809   4.213   5.721   3.791 -0.3322 -0.2426 -1.6243
29077SOL    HW287810   4.070   5.673   3.804 -0.6662  1.2389  0.7027
29078SOL     OW87811   2.761   6.700   3.838  0.0221  0.2805 -0.4844
29078SOL    HW187812   2.714   6.653   3.907 -2.5264  1.0856 -1.5163
29078SOL    HW287813   2.786   6.632   3.775 -1.9323  0.0047 -1.0370
29079SOL     OW87814   5.331   7.538   9.793  0.0871 -0.3547  0.4144
29079SOL    HW187815   5.385   7.603   9.748 -0.4601 -1.1600 -1.5152
29079SOL    HW287816   5.322   7.466   9.730 -0.2257 -1.8328  2.0665
29080SOL     OW87817   2.342   4.299   4.165 -0.4756  0.1783  0.1782
29080SOL    HW187818   2.417   4.266   4.215 -0.2588 -1.6411 -1.2318
29080SOL    HW287819   2.357   4.268   4.076 -2.3506  0.7421 -0.3788
29081SOL     OW87820   2.662   8.233   4.673  0.0220  0.3784  0.0787
29081SOL    HW187821   2.636   8.226   4.582  0.7586  0.6222 -0.1549
29081SOL    HW287822   2.624   8.156   4.715 -0.9332  0.6515 -0.2797
29082SOL     OW87823   2.353   8.315   3.049 -0.6619 -0.0335 -0.6039
29082SOL    HW187824   2.372   8.409   3.046  1.7979 -0.2758  2.2414
29082SOL    HW287825   2.435   8.273   3.021 -0.2985 -1.2329  1.9038
29083SOL     OW87826   9.911   1.291   2.432  0.2455  0.3856 -0.0661
29083SOL    HW187827   9.967   1.357   2.391  1.9230  0.3284  1.9044
29083SOL    HW287828   9.835   1.339   2.464  0.6646  1.0599 -0.0759
29084SOL     OW87829   8.191   2.502   7.477 -0.0813  0.4203 -0.2324
29084SOL    HW187830   8.187   2.547   7.561  1.1493 -0.2865  0.2379
29084SOL    HW287831   8.143   2.420   7.490  0.2913  0.2120 -0.1362
29085SOL     OW87832   6.046   1.451   3.803  0.6193 -0.2616  0.0943
29085SOL    HW187833   6.126   1.426   3.848 -0.3906 -1.2878  1.3889
29085SOL    HW287834   5.985   1.379   3.819 -0.2752  0.0356 -1.6702
29086SOL     OW87835   2.279   9.864   8.036  0.2979 -0.3000  0.1200
29086SOL    HW187836   2.335   9.806   7.985 -0.9513 -1.4632  0.0477
29086SOL    HW287837   2.212   9.807   8.074 -0.0146  0.8442  1.3833
29087SOL     OW87838   6.142   0.813   8.864  0.0909 -0.1368 -0.8594
29087SOL    HW187839   6.128   0.824   8.769  0.3176 -0.6295 -0.9538
29087SOL    HW287840   6.090   0.736   8.887  0.5568 -0.4080 -0.7096
29088SOL     OW87841   6.869   1.708   0.672  0.4035 -0.3264  0.1560
29088SOL    HW187842   6.822   1.759   0.606 -0.3154 -1.2730 -0.0982
29088SOL    HW287843   6.874   1.620   0.635  2.2546 -0.2978  0.2690
29089SOL     OW87844   7.734   7.309   0.540  0.5871  0.2038 -0.2421
29089SOL    HW187845   7.658   7.353   0.578  0.5835 -1.6047  2.0755
29089SOL    HW287846   7.701   7.271   0.458  0.1467  2.8228 -1.3793
29090SOL     OW87847   8.907   3.599   6.289 -0.4818 -0.1424 -0.2669
29090SOL    HW187848   8.952   3.520   6.319 -1.2690 -0.2279  0.7443
29090SOL    HW287849   8.899   3.653   6.367  0.3093  1.0877 -1.0088
29091SOL     OW87850   1.137   0.736   4.008  0.2184 -1.0175  0.2389
29091SOL    HW187851   1.133   0.832   4.002 -0.3517 -1.0644 -0.1938
29091SOL    HW287852   1.230   0.716   4.007  0.3365 -0.6532 -2.6287
29092SOL     OW87853   5.889   7.028   7.847  0.4891 -0.2829 -0.0490
29092SOL    HW187854   5.840   7.094   7.797  0.4936  0.0700  0.4069
29092SOL    HW287855   5.838   7.015   7.926  1.7578  1.0586  1.0609
29093SOL     OW87856   2.508   2.290   1.867 -0.1067 -1.0590 -1.0087
29093SOL    HW187857   2.569   2.364   1.875 -1.0564 -0.0875 -2.2441
29093SOL    HW287858   2.456   2.311   1.789 -0.1625 -3.2302 -1.6222
29094SOL     OW87859   0.308   1.689   0.782 -0.6305 -0.4644  0.2001
29094SOL    HW187860   0.310   1.729   0.695 -2.6467  0.6501  0.6160
29094SOL    HW287861   0.325   1.596   0.766  0.9625  0.0073 -1.1408
29095SOL     OW87862   4.449   9.756   7.092  0.0986  0.6570 -0.6729
29095SOL    HW187863   4.477   9.805   7.169 -3.1115 -0.8387  1.6371
29095SOL    HW287864   4.388   9.814   7.047 -2.1489 -0.3166  0.9619
29096SOL     OW87865   9.331   9.513   5.088  0.4403  0.0779  0.5293
29096SOL    HW187866   9.306   9.525   5.180 -2.7748 -1.0676 -0.0659
29096SOL    HW287867   9.313   9.598   5.047 -0.4170 -0.1015  0.5262
29097SOL     OW87868   0.180   5.545   1.346  0.2898  0.1479  0.4893
29097SOL    HW187869   0.087   5.565   1.351 -0.0402 -1.2771  0.5406
29097SOL    HW287870   0.190   5.465   1.398  1.6733  0.6880  1.0931
29098SOL     OW87871   8.592   9.882   1.761  0.0137  0.2581  0.3626
29098SOL    HW187872   8.660   9.871   1.695 -0.3025 -1.6181  0.2704
29098SOL    HW287873   8.638   9.914   1.839  0.8851 -0.2908  0.0831
29099SOL     OW87874   0.650   6.227   3.357 -0.2564 -0.5124  0.2023
29099SOL    HW187875   0.611   6.312   3.379  1.4882  0.2137  0.6869
29099SOL    HW287876   0.674   6.235   3.264 -0.2156 -0.5222  0.2119
29100SOL     OW87877   6.615   2.560   9.719  0.0314 -0.1790  0.0056
29100SOL    HW187878   6.704   2.573   9.686  0.3771  0.5361  1.1437
29100SOL    HW287879   6.622   2.578   9.813 -1.7483  2.3315 -0.2386
29101SOL     OW87880   8.048   3.899   9.304 -0.3697 -0.2038 -0.3195
29101SOL    HW187881   8.137   3.892   9.340  0.2331 -1.2842 -1.9152
29101SOL    HW287882   7.996   3.934   9.376  1.1995 -0.2610  0.8980
29102SOL     OW87883   8.391   7.040   6.226  0.7166  0.0843  0.3148
29102SOL    HW187884   8.336   7.118   6.229 -0.3282 -0.6229  0.1129
29102SOL    HW287885   8.342   6.978   6.171  1.6954 -0.5827  0.1644
29103SOL     OW87886   0.332   0.928   4.342  0.1017  0.4968  0.2583
29103SOL    HW187887   0.280   0.912   4.421 -2.8542  0.1298 -1.6028
29103SOL    HW287888   0.422   0.938   4.374 -0.7913 -0.6419  3.5284
29104SOL     OW87889   2.891   0.179   6.878  0.1208  0.4766  0.2770
29104SOL    HW187890   2.815   0.126   6.902  0.4839 -0.0474  0.2868
29104SOL    HW287891   2.903   0.162   6.784  0.8982 -0.3250  0.5102
29105SOL     OW87892   2.666   5.393   1.627  0.2097  0.0730  0.4373
29105SOL    HW187893   2.715   5.354   1.555 -0.9690 -1.4292  0.3973
29105SOL    HW287894   2.655   5.485   1.602  1.7646  0.1174 -0.1890
29106SOL     OW87895   8.915   7.816   0.769 -0.7788  0.0755  0.2148
29106SOL    HW187896   8.921   7.829   0.675  0.5220 -2.0669 -0.0661
29106SOL    HW287897   8.896   7.903   0.804  1.4663  1.5031 -1.7815
29107SOL     OW87898   1.084   0.534   4.206 -0.3138  0.4242  0.4868
29107SOL    HW187899   1.088   0.558   4.113 -0.4150 -0.2952  0.2946
29107SOL    HW287900   1.121   0.610   4.251  0.5790  0.4194 -0.1957
29108SOL     OW87901   4.005   0.239   8.327 -0.3954  0.3980 -0.8492
29108SOL    HW187902   4.097   0.216   8.319 -0.4042  0.5819 -1.5662
29108SOL    HW287903   3.999   0.285   8.411  0.2802  0.9081 -1.0688
29109SOL     OW87904   7.874   3.330   0.889  0.4094 -0.0252 -0.0126
29109SOL    HW187905   7.837   3.376   0.814 -0.1154  0.0085  0.2674
29109SOL    HW287906   7.967   3.322   0.868  0.2438 -0.1584 -0.7446
29110SOL     OW87907   6.872   1.969   0.494 -0.0715 -0.0725 -0.3932
29110SOL    HW187908   6.938   2.008   0.551  0.1802 -3.0350  1.5323
29110SOL    HW287909   6.913   1.968   0.407  0.7796  1.7052 -0.0527
29111SOL     OW87910   7.913   7.527   5.171  0.0884 -0.5034  0.4256
29111SOL    HW187911   7.871   7.578   5.240  0.0621 -0.3400  0.2883
29111SOL    HW287912   7.968   7.464   5.218 -0.6462 -1.0098  0.6089
29112SOL     OW87913   9.135   7.860   8.325 -0.6357 -0.0147  0.6386
29112SOL    HW187914   9.184   7.932   8.286 -0.6399  0.6406  1.7729
29112SOL    HW287915   9.068   7.838   8.261 -1.2737  1.6910  0.6722
29113SOL     OW87916   2.071   0.630   6.741 -0.1866  0.0402  0.2670
29113SOL    HW187917   2.106   0.554   6.695 -0.4686 -0.0354  0.1785
29113SOL    HW287918   1.977   0.616   6.743 -0.2881  0.6270 -0.1839
29114SOL     OW87919   9.306   2.485   5.656 -0.2387  0.2965 -0.3297
29114SOL    HW187920   9.234   2.547   5.644 -0.0559  0.4379 -0.7130
29114SOL    HW287921   9.311   2.438   5.573 -0.7329 -0.6233  0.1487
29115SOL     OW87922   6.617   7.016   9.711 -0.0377 -0.2202  0.3682
29115SOL    HW187923   6.531   7.053   9.694 -0.3480 -1.2144 -0.3180
29115SOL    HW287924   6.636   7.039   9.803 -1.1095 -0.1733  0.5829
29116SOL     OW87925   4.505   5.339   8.598  0.1141 -0.0792 -0.2901
29116SOL    HW187926   4.515   5.434   8.605  1.5640 -0.2091 -0.3195
29116SOL    HW287927   4.520   5.306   8.687 -0.9248 -0.2636 -0.1622
29117SOL     OW87928   3.107   9.590   9.368  0.2710  0.0988 -0.3259
29117SOL    HW187929   3.185   9.645   9.359  1.7651 -1.8803 -0.0689
29117SOL    HW287930   3.110   9.531   9.293 -0.3730 -0.6961  0.2572
29118SOL     OW87931   8.442   1.331   7.007 -0.2077  0.5485 -0.6576
29118SOL    HW187932   8.516   1.357   7.062 -0.9128  2.3611 -0.5180
29118SOL    HW287933   8.410   1.250   7.048  1.3690 -0.0067 -0.4512
29119SOL     OW87934   1.932   3.303   8.086 -0.2065  0.0874 -0.2143
29119SOL    HW187935   1.862   3.365   8.106 -0.3008  0.1275 -0.6556
29119SOL    HW287936   1.955   3.321   7.995 -1.4292 -1.6801 -0.9118
29120SOL     OW87937   8.189   8.834   2.275  0.1084 -0.3467 -0.7467
29120SOL    HW187938   8.112   8.801   2.229 -0.9893  2.8394 -1.5060
29120SOL    HW287939   8.157   8.858   2.362  0.1677  1.0204 -1.0770
29121SOL     OW87940   0.215   0.041  -0.020  0.2263  0.1241  0.1199
29121SOL    HW187941   0.251   0.106   0.041 -0.4843  1.6793 -1.0774
29121SOL    HW287942   0.197  -0.035   0.036  2.6373  0.2961  1.2718
29122SOL     OW87943   9.426   0.234   7.479 -0.0009  0.4554 -0.4365
29122SOL    HW187944   9.454   0.222   7.570 -0.8298 -0.8618 -0.3175
29122SOL    HW287945   9.490   0.293   7.441  2.9498 -2.2968 -0.1783
29123SOL     OW87946   4.968   6.985   6.014 -0.5539  0.1442  0.7013
29123SOL    HW187947   4.994   6.916   6.074 -2.3648 -1.4430 -0.2409
29123SOL    HW287948   5.043   7.044   6.012  1.9171 -2.7873  0.0012
29124SOL     OW87949   0.784   2.588   8.994  0.2920 -0.2636 -0.2240
29124SOL    HW187950   0.762   2.681   9.003 -0.6042 -0.2284 -2.1041
29124SOL    HW287951   0.790   2.575   8.899  2.9582 -1.5901  0.0379
29125SOL     OW87952   3.262   7.982   8.301 -0.2529  0.3726  0.7096
29125SOL    HW187953   3.296   8.038   8.371 -0.0162  0.3603  0.6048
29125SOL    HW287954   3.302   7.897   8.316  0.6263  0.6299 -0.0404
29126SOL     OW87955   7.372   4.319   4.663  0.0614  0.4071  0.3329
29126SOL    HW187956   7.329   4.243   4.624 -1.8190  0.9646  1.1989
29126SOL    HW287957   7.453   4.285   4.700  0.1969 -0.7828 -0.9575
29127SOL     OW87958   9.148   3.978   8.826  0.0194 -0.2289  0.0128
29127SOL    HW187959   9.153   3.922   8.749 -1.4472  0.8169 -0.8739
29127SOL    HW287960   9.118   3.920   8.896  1.8726 -1.3094 -0.0063
29128SOL     OW87961   4.682   5.787   7.777  0.1402 -0.0201 -0.3163
29128SOL    HW187962   4.697   5.700   7.816 -0.2220  0.7406  1.6715
29128SOL    HW287963   4.603   5.777   7.725  0.0758 -0.8743 -0.0744
29129SOL     OW87964   4.424   5.127   1.221  0.4724  0.0978 -0.1001
29129SOL    HW187965   4.443   5.214   1.254 -0.0685 -0.1987  1.0453
29129SOL    HW287966   4.342   5.137   1.173  0.2235  0.1609  0.3313
29130SOL     OW87967   6.303   2.400   0.414 -0.5573 -0.3201 -0.1328
29130SOL    HW187968   6.394   2.380   0.440 -0.8069  0.1933  1.2440
29130SOL    HW287969   6.260   2.425   0.496 -1.7545  0.1845 -0.8872
29131SOL     OW87970   3.225   3.540   5.846 -0.1837  0.7786 -0.1083
29131SOL    HW187971   3.284   3.479   5.890 -0.6777 -0.8693 -1.6117
29131SOL    HW287972   3.138   3.503   5.858 -0.6278  1.7762 -0.1432
29132SOL     OW87973   2.880   0.520   2.514 -0.1487 -0.1293  0.7745
29132SOL    HW187974   2.847   0.437   2.549  0.1710 -0.4466  0.3350
29132SOL    HW287975   2.899   0.573   2.591 -0.8286 -0.2762  1.0517
29133SOL     OW87976   9.572   6.964   5.059 -1.1407  0.0936  0.2943
29133SOL    HW187977   9.556   6.902   5.130 -0.8470  0.0287  0.3040
29133SOL    HW287978   9.557   6.914   4.979 -1.3217  0.1267  0.3054
29134SOL     OW87979   8.866   6.271   7.246  0.1473 -0.5084  0.7669
29134SOL    HW187980   8.826   6.232   7.168  1.6105 -0.2980 -0.1235
29134SOL    HW287981   8.791   6.294   7.302 -0.9340 -0.7509 -0.5250
29135SOL     OW87982   2.513   3.263   7.994 -0.4872  0.3437  0.0283
29135SOL    HW187983   2.423   3.243   8.022 -0.5529 -1.4210 -1.2660
29135SOL    HW287984   2.502   3.312   7.913 -0.2805 -0.2812 -0.3786
29136SOL     OW87985   5.579   3.202   8.742 -0.0577  0.0624 -0.2230
29136SOL    HW187986   5.496   3.242   8.718  0.1829 -0.2716 -1.7205
29136SOL    HW287987   5.637   3.275   8.762 -0.4269  0.3264 -0.1162
29137SOL     OW87988   0.572   9.637   8.857 -0.3497 -0.1415 -0.4288
29137SOL    HW187989   0.538   9.600   8.775 -0.7337 -1.5514  0.3402
29137SOL    HW287990   0.503   9.620   8.921  1.2191 -1.9853  0.9015
29138SOL     OW87991   3.365   1.634   5.234 -0.3308  0.0004  0.2899
29138SOL    HW187992   3.335   1.551   5.273 -2.0448  0.6361  0.3731
29138SOL    HW287993   3.419   1.674   5.302 -0.7400 -0.3456  0.8225
29139SOL     OW87994   7.514   9.122   6.106  0.3956  0.2760  0.9796
29139SOL    HW187995   7.601   9.120   6.065 -0.7526 -0.0614 -1.6984
29139SOL    HW287996   7.523   9.068   6.184  2.3973 -0.4840  0.3020
29140SOL     OW87997   2.663   5.776   5.794  0.0550 -0.1121  0.0586
29140SOL    HW187998   2.697   5.692   5.763 -0.4787  0.5945 -2.7211
29140SOL    HW287999   2.571   5.758   5.815 -0.5253  0.0510 -2.1268
29141SOL     OW88000   6.194   9.105   0.349 -0.0386 -0.2411 -0.1154
29141SOL    HW188001   6.258   9.087   0.418  0.9066  0.8024 -0.7013
29141SOL    HW288002   6.139   9.026   0.347  2.1524 -1.8604 -0.6318
29142SOL     OW88003   9.184   0.778   3.455 -0.1268  0.4096 -0.1648
29142SOL    HW188004   9.260   0.816   3.412  0.1754  0.0488  0.0355
29142SOL    HW288005   9.177   0.825   3.538  0.6110 -0.3550  0.3525
29143SOL     OW88006   1.608   7.415   3.155 -0.7043 -0.4136  0.2584
29143SOL    HW188007   1.532   7.411   3.097 -0.1022 -2.0065 -0.4829
29143SOL    HW288008   1.583   7.360   3.230 -0.5671 -0.3333  0.3625
29144SOL     OW88009   8.834   0.418   3.116  0.2000  0.5324  0.1758
29144SOL    HW188010   8.757   0.467   3.088 -0.7347 -1.0703 -0.1394
29144SOL    HW288011   8.907   0.463   3.073 -0.8618  0.1779 -2.1543
29145SOL     OW88012   7.754   4.187   7.563  0.0260  0.0892  0.4598
29145SOL    HW188013   7.684   4.244   7.533 -1.8379 -0.6706  3.0018
29145SOL    HW288014   7.783   4.141   7.484 -2.3500  0.4440 -0.7097
29146SOL     OW88015   3.895   6.916   0.102  1.0131 -0.7406 -0.0083
29146SOL    HW188016   3.929   6.956   0.182  0.3173 -0.3815  0.1220
29146SOL    HW288017   3.900   6.986   0.036 -1.0241 -0.0766  0.4341
29147SOL     OW88018   2.711   2.800   8.851 -0.2489 -0.1608 -0.4399
29147SOL    HW188019   2.730   2.877   8.798 -0.4440 -0.1708 -0.5249
29147SOL    HW288020   2.780   2.738   8.828  0.4173  0.3087  0.2842
29148SOL     OW88021   6.838   7.146   3.267  0.5320 -0.4880 -0.4471
29148SOL    HW188022   6.838   7.110   3.356 -1.5691 -0.4483 -0.3932
29148SOL    HW288023   6.824   7.069   3.211  0.1689 -0.2991 -0.6182
29149SOL     OW88024   6.749   0.098   5.126  0.0374  0.1492 -0.0916
29149SOL    HW188025   6.687   0.169   5.111  1.0270  1.4874  1.6730
29149SOL    HW288026   6.712   0.049   5.200 -0.5228 -1.0605 -1.1525
29150SOL     OW88027   9.703   3.764   0.851  0.2559  0.5887 -0.1992
29150SOL    HW188028   9.794   3.761   0.880  0.9030  1.1907 -2.0187
29150SOL    HW288029   9.659   3.698   0.905  2.0400 -0.6446 -0.1412
29151SOL     OW88030   0.411   6.421   5.305 -0.1948 -0.0828 -0.4581
29151SOL    HW188031   0.330   6.387   5.342  0.1338  0.4441  0.8077
29151SOL    HW288032   0.387   6.506   5.268 -0.1671  0.2225  0.2109
29152SOL     OW88033   2.907   2.169   8.311  0.4184  0.8797 -0.5107
29152SOL    HW188034   2.929   2.124   8.393  0.3824  1.3265 -0.2530
29152SOL    HW288035   2.822   2.132   8.286  0.5409  0.5688 -0.4726
29153SOL     OW88036   4.664   6.572   6.889 -0.0443  0.0328 -0.1748
29153SOL    HW188037   4.700   6.548   6.804  0.1382  0.0779 -0.1106
29153SOL    HW288038   4.579   6.529   6.892  0.0780 -0.2171 -0.2553
29154SOL     OW88039   5.563   3.845   3.978  0.1226  0.1692  0.2604
29154SOL    HW188040   5.653   3.875   3.994  0.3873 -0.4700  0.0044
29154SOL    HW288041   5.549   3.863   3.885 -0.5984  1.7523  0.6350
29155SOL     OW88042   4.323   3.043   2.045 -0.0673  0.5331  0.5401
29155SOL    HW188043   4.239   3.039   2.000  0.5709 -2.6336 -0.6394
29155SOL    HW288044   4.318   2.975   2.111  1.5691  0.2630  0.4322
29156SOL     OW88045   0.512   4.095   6.407  0.2459  0.0451 -0.4673
29156SOL    HW188046   0.542   4.129   6.491 -2.2124  0.3122  0.3855
29156SOL    HW288047   0.585   4.042   6.375  2.2858  2.0819  0.5174
29157SOL     OW88048   9.128   9.196   6.687 -0.3957  0.0511 -0.0524
29157SOL    HW188049   9.080   9.155   6.615  0.3432 -1.2201  0.1364
29157SOL    HW288050   9.215   9.213   6.651 -0.4757  0.8076  0.1000
29158SOL     OW88051   8.674   1.749   4.752 -0.2403  0.2830 -0.0731
29158SOL    HW188052   8.604   1.695   4.715 -0.6152  0.6004  0.1687
29158SOL    HW288053   8.666   1.738   4.847 -0.6586  1.1802 -0.0004
29159SOL     OW88054   8.451   0.234   1.183 -0.1585 -0.5779  0.1738
29159SOL    HW188055   8.448   0.182   1.103  1.2856  1.4579 -1.3013
29159SOL    HW288056   8.524   0.295   1.170 -1.1891  1.2272  2.1538
29160SOL     OW88057   5.081   6.185   6.397  0.5335  0.0985 -0.3756
29160SOL    HW188058   5.158   6.196   6.452 -0.7093  1.5359  1.1950
29160SOL    HW288059   5.024   6.126   6.447  0.2197 -0.2034 -1.0720
29161SOL     OW88060   8.719   1.041   4.250  0.4819 -0.0980 -0.2084
29161SOL    HW188061   8.728   1.057   4.156 -1.0507 -0.5696 -0.4535
29161SOL    HW288062   8.628   1.063   4.269  0.7592 -0.0848  1.1587
29162SOL     OW88063   8.043   0.069   6.453  0.9888 -0.7495 -0.5862
29162SOL    HW188064   8.076   0.020   6.529 -0.5736 -1.3375 -0.2573
29162SOL    HW288065   8.104   0.142   6.443  0.4826  0.1439  2.0938
29163SOL     OW88066   7.350   7.754   5.721  0.0840 -0.0109 -1.1414
29163SOL    HW188067   7.318   7.843   5.707 -0.4218  0.2072  0.9919
29163SOL    HW288068   7.442   7.765   5.746  0.0807 -0.1106 -1.0859
29164SOL     OW88069   5.797   5.067   4.222 -0.2796 -0.2490 -0.3469
29164SOL    HW188070   5.713   5.022   4.234 -0.2903  0.0290  0.6880
29164SOL    HW288071   5.783   5.122   4.145 -0.9909 -0.3396 -0.2897
29165SOL     OW88072   7.017   4.422   7.484 -0.0687 -0.1951 -0.5580
29165SOL    HW188073   7.069   4.502   7.476  0.7512 -0.5941  0.4851
29165SOL    HW288074   7.003   4.411   7.578 -0.1265 -1.2931 -0.6770
29166SOL     OW88075   5.350   5.227   5.528 -0.3664 -0.1930 -0.4900
29166SOL    HW188076   5.441   5.256   5.539 -0.1441 -0.4121 -1.6371
29166SOL    HW288077   5.357   5.145   5.479 -1.1912 -0.1089 -0.7507
29167SOL     OW88078   7.316   7.798   3.572 -1.0937  0.1775  0.4810
29167SOL    HW188079   7.314   7.702   3.574 -1.4052  0.1942  1.4083
29167SOL    HW288080   7.263   7.821   3.496  1.1001 -0.4114 -1.3669
29168SOL     OW88081   3.576   8.658   9.585  0.4709  0.1443 -0.1693
29168SOL    HW188082   3.630   8.605   9.527  2.0543  0.7330  0.7061
29168SOL    HW288083   3.506   8.691   9.529 -0.9010 -3.1553 -0.6865
29169SOL     OW88084   9.056   9.351   5.934  0.1676  0.6591 -0.2427
29169SOL    HW188085   9.040   9.344   5.840  1.4445 -0.2173 -0.4220
29169SOL    HW288086   9.072   9.444   5.949 -1.0991  0.9714 -0.6932
29170SOL     OW88087   9.825   2.101   0.486  0.3749 -0.0827 -0.2408
29170SOL    HW188088   9.817   2.044   0.562  0.2580 -0.5301 -0.5841
29170SOL    HW288089   9.749   2.159   0.490  0.2099 -0.3059 -0.1859
29171SOL     OW88090   9.484   1.759   0.864 -0.2871  0.8307 -0.0568
29171SOL    HW188091   9.444   1.835   0.906 -3.0399 -0.1085 -0.7059
29171SOL    HW288092   9.515   1.792   0.779 -2.2964  1.1389 -0.7335
29172SOL     OW88093   1.418   7.281   5.277 -0.6956 -0.4277  0.0931
29172SOL    HW188094   1.448   7.210   5.220 -0.1070 -0.0621 -0.0638
29172SOL    HW288095   1.362   7.237   5.342  0.3290 -1.1691  0.5057
29173SOL     OW88096   6.872   5.905   5.949 -0.2924  0.1321 -0.3043
29173SOL    HW188097   6.960   5.912   5.913  0.0342 -2.0636 -0.0715
29173SOL    HW288098   6.824   5.854   5.884 -0.8664 -0.2988  0.4461
29174SOL     OW88099   2.762   9.105   7.175 -0.4151 -0.0016  0.3667
29174SOL    HW188100   2.796   9.109   7.264 -0.9479  1.1949  0.5258
29174SOL    HW288101   2.793   9.020   7.142  0.1035 -0.2929  1.5466
29175SOL     OW88102   2.185   5.806   8.038  0.2247  0.4823  0.0877
29175SOL    HW188103   2.185   5.901   8.052 -0.3982  0.5808 -0.5348
29175SOL    HW288104   2.271   5.787   7.999  0.2772  0.8162  0.0387
29176SOL     OW88105   6.956   9.086   0.386 -0.1155 -0.1080 -0.1175
29176SOL    HW188106   7.046   9.076   0.356  0.9526  0.6724  2.5218
29176SOL    HW288107   6.963   9.101   0.481 -2.7895  2.7712 -0.1868
29177SOL     OW88108   3.135   7.340   0.952 -0.1610 -0.0698  0.1947
29177SOL    HW188109   3.041   7.326   0.968 -0.3937  1.7915  0.7160
29177SOL    HW288110   3.170   7.363   1.038  0.9825 -1.5881  0.1734
29178SOL     OW88111   0.670   7.428   0.398 -0.3073 -0.3298  0.5660
29178SOL    HW188112   0.595   7.431   0.338  0.7584  0.3160 -0.7773
29178SOL    HW288113   0.670   7.339   0.432 -1.5417 -0.4092  0.4099
29179SOL     OW88114   8.076   5.670   4.669  0.6739 -0.1331 -0.2002
29179SOL    HW188115   8.093   5.653   4.762  0.6849 -2.8264 -0.6025
29179SOL    HW288116   7.999   5.726   4.668 -0.9585 -2.1964  1.4592
29180SOL     OW88117   6.497   2.942   3.350  0.1321  0.2845 -0.4516
29180SOL    HW188118   6.465   3.032   3.341 -0.4566 -0.0109 -1.6134
29180SOL    HW288119   6.430   2.898   3.402  1.6444  1.0777  2.3313
29181SOL     OW88120   1.113   8.732   8.425  0.1403 -0.0760 -0.2416
29181SOL    HW188121   1.163   8.813   8.437  0.2073 -0.2053  0.3934
29181SOL    HW288122   1.174   8.662   8.448  0.3116 -0.3596 -1.4926
29182SOL     OW88123   9.863   2.710   5.900  0.3951  0.8995  0.2190
29182SOL    HW188124   9.816   2.696   5.982  0.7660 -0.6140  0.2024
29182SOL    HW288125   9.942   2.757   5.926  2.0526 -2.1958  1.2801
29183SOL     OW88126   6.935   7.950   7.767 -0.2749 -0.1797 -0.2959
29183SOL    HW188127   6.870   7.901   7.818 -0.4850 -0.7960 -1.1430
29183SOL    HW288128   6.883   8.013   7.718  0.0662  1.6103  1.5042
29184SOL     OW88129   2.823   0.242   5.337  0.5710 -0.6771 -0.3323
29184SOL    HW188130   2.786   0.252   5.425  1.7842  1.1951  0.0216
29184SOL    HW288131   2.762   0.185   5.291 -1.2091  0.0326  1.0654
29185SOL     OW88132   6.213   4.663   7.802  0.4866  0.1160 -0.8538
29185SOL    HW188133   6.222   4.620   7.717  0.7751 -1.1917 -0.1881
29185SOL    HW288134   6.302   4.676   7.832  0.3790  0.3196 -0.6210
29186SOL     OW88135   5.027   8.783   3.598 -0.2413  0.0588 -0.2269
29186SOL    HW188136   4.973   8.795   3.676 -0.7051 -2.1429 -0.1232
29186SOL    HW288137   5.117   8.786   3.630 -0.4277 -0.9626  0.4672
29187SOL     OW88138   9.128   9.621   6.058  0.3113 -0.0439  0.0891
29187SOL    HW188139   9.150   9.598   6.149  1.5322  0.2640 -0.1036
29187SOL    HW288140   9.072   9.697   6.065 -0.4313 -0.6222  0.6091
29188SOL     OW88141   0.285   1.968   8.441 -0.4229  0.0948 -0.2494
29188SOL    HW188142   0.333   2.050   8.436 -1.2357  0.5372 -1.1220
29188SOL    HW288143   0.211   1.987   8.499 -0.7834  0.0684 -0.7006
29189SOL     OW88144   3.898   7.792   8.169 -0.2504 -0.0776 -0.5503
29189SOL    HW188145   3.807   7.790   8.198 -0.3150 -1.0560 -0.7810
29189SOL    HW288146   3.906   7.718   8.109  0.6936  0.0057 -0.5519
29190SOL     OW88147   7.135   5.639   0.736  0.0581  0.1781 -0.0137
29190SOL    HW188148   7.225   5.606   0.731 -0.3219 -0.8524 -0.4175
29190SOL    HW288149   7.144   5.734   0.744  1.1689  0.1297 -0.5327
29191SOL     OW88150   2.105   8.476   8.607 -0.3001 -0.3449 -0.1509
29191SOL    HW188151   2.179   8.465   8.667 -0.3368 -0.7201 -0.1698
29191SOL    HW288152   2.142   8.517   8.529  0.1261 -1.6267 -0.6395
29192SOL     OW88153   5.070   7.911   5.528 -0.0536 -0.3399 -0.2557
29192SOL    HW188154   5.058   7.832   5.580 -1.9704 -0.1126 -0.2851
29192SOL    HW288155   5.007   7.904   5.457 -2.2968  2.4036  1.2569
29193SOL     OW88156   7.415   9.369   6.084  0.5948  0.4542 -0.1735
29193SOL    HW188157   7.328   9.344   6.116  0.3171  1.2674 -0.2964
29193SOL    HW288158   7.466   9.288   6.091 -0.7758 -0.6779 -2.2816
29194SOL     OW88159   6.825   3.127   5.981 -0.0460  0.1491 -0.3599
29194SOL    HW188160   6.908   3.152   6.020  0.0951 -0.2710 -0.3882
29194SOL    HW288161   6.834   3.034   5.962 -0.6258  0.0271 -0.0861
29195SOL     OW88162   1.979   9.922   5.309 -0.1839 -0.3906  0.0636
29195SOL    HW188163   2.054   9.981   5.301  0.3991 -1.1672 -0.2348
29195SOL    HW288164   1.907   9.979   5.337  0.3210  0.4950 -0.4090
29196SOL     OW88165   6.685   6.586   7.519 -0.1378  0.4515 -0.2702
29196SOL    HW188166   6.648   6.672   7.502 -0.8040  0.0320 -1.0205
29196SOL    HW288167   6.768   6.586   7.473 -0.1706  0.6675 -0.3301
29197SOL     OW88168   6.708   4.488   4.489 -0.8740 -1.0928  0.5161
29197SOL    HW188169   6.773   4.544   4.447  0.0045 -1.8995  0.7673
29197SOL    HW288170   6.679   4.539   4.566 -0.1104 -0.9654  0.7279
29198SOL     OW88171   5.721   6.753   5.926  0.1927  0.3644  0.1401
29198SOL    HW188172   5.737   6.726   5.836 -0.2355  1.6976 -0.3610
29198SOL    HW288173   5.631   6.724   5.944  0.9659 -1.8149  0.9241
29199SOL     OW88174   9.134   7.031   7.528  0.5908  0.0182 -0.0703
29199SOL    HW188175   9.103   7.012   7.616 -0.5578  1.1105 -0.2100
29199SOL    HW288176   9.054   7.044   7.477  1.2593  0.9490 -0.9162
29200SOL     OW88177   8.062   8.773   9.828  0.1702 -0.6111  0.1784
29200SOL    HW188178   8.046   8.845   9.889 -1.5278  0.2756 -1.2302
29200SOL    HW288179   8.157   8.761   9.829  0.4420  1.3115  0.8366
29201SOL     OW88180   6.661   4.042   3.999  0.0598  0.5425  0.3578
29201SOL    HW188181   6.749   4.046   3.962 -0.1834 -1.2489 -0.5468
29201SOL    HW288182   6.612   4.109   3.952  0.1448 -0.6726 -1.6172
29202SOL     OW88183   5.117   3.660   1.855  0.2197  0.2487  0.1029
29202SOL    HW188184   5.034   3.664   1.903  0.7790 -0.2841  1.1630
29202SOL    HW288185   5.094   3.625   1.770 -0.5823 -0.3914  0.5682
29203SOL     OW88186   7.331   6.512   4.595 -0.2556 -0.2867  0.1187
29203SOL    HW188187   7.318   6.483   4.505  0.8588  0.5574 -0.3446
29203SOL    HW288188   7.251   6.560   4.617 -1.9224 -3.1588  0.7314
29204SOL     OW88189   6.823   7.487   5.650 -0.6140 -0.0982 -0.4985
29204SOL    HW188190   6.778   7.572   5.657 -0.0219  0.1730  0.1027
29204SOL    HW288191   6.916   7.510   5.647 -0.2684 -0.8110  2.1887
29205SOL     OW88192   2.729   5.087   5.370  0.2565 -0.1307 -0.4363
29205SOL    HW188193   2.676   5.032   5.311 -0.2537 -0.4935  0.3394
29205SOL    HW288194   2.714   5.050   5.457 -0.6673  1.6719  0.2248
29206SOL     OW88195   8.801   3.494   5.649 -0.4639 -0.0997  0.1016
29206SOL    HW188196   8.882   3.544   5.635  0.5417 -1.7315 -0.1119
29206SOL    HW288197   8.751   3.547   5.712  1.1000  0.5623  0.8353
29207SOL     OW88198   1.099   6.201   7.076  0.3150 -0.2100  0.0766
29207SOL    HW188199   1.112   6.106   7.073  1.8194 -0.0401  0.4815
29207SOL    HW288200   1.163   6.232   7.140 -0.5915  1.0230  0.4206
29208SOL     OW88201   4.794   0.015   6.809  0.5861 -0.1332  0.4109
29208SOL    HW188202   4.703   0.031   6.837 -0.4470 -3.4791 -0.5944
29208SOL    HW288203   4.843   0.007   6.890 -0.3894 -0.1269  1.0182
29209SOL     OW88204   4.096   4.676   0.428  0.0140 -0.4642  0.3064
29209SOL    HW188205   4.027   4.701   0.490 -0.3243  0.7519 -0.5131
29209SOL    HW288206   4.062   4.598   0.384  0.3059 -1.4026  1.6968
29210SOL     OW88207   6.828   4.738   4.931 -0.6173  0.0495 -1.1212
29210SOL    HW188208   6.822   4.773   4.843 -2.7119 -1.5936 -1.7166
29210SOL    HW288209   6.748   4.768   4.975  0.1327  0.3942  0.0555
29211SOL     OW88210   6.567   0.517   3.974 -0.7323  0.4338  0.0725
29211SOL    HW188211   6.575   0.564   4.057 -3.3001  0.0508  0.6196
29211SOL    HW288212   6.503   0.568   3.923 -0.9437 -0.5788 -0.7125
29212SOL     OW88213   0.842   0.878   9.956  0.5594 -0.0426 -0.6856
29212SOL    HW188214   0.927   0.913   9.932  0.9737 -0.1070  0.6673
29212SOL    HW288215   0.823   0.814   9.887  2.0475 -0.7310 -0.4899
29213SOL     OW88216   1.631   2.645   8.543 -0.1181 -0.2287  0.1664
29213SOL    HW188217   1.715   2.651   8.587 -0.2741 -1.6651  0.7327
29213SOL    HW288218   1.652   2.647   8.450  0.5490 -0.4965  0.3069
29214SOL     OW88219   6.797   4.031   4.835 -0.1259 -0.0906 -0.5166
29214SOL    HW188220   6.738   3.955   4.833 -1.4761  0.8913  0.4346
29214SOL    HW288221   6.885   3.992   4.830 -0.8164 -1.5981 -1.8134
29215SOL     OW88222   4.143   1.744   0.946  0.0457 -0.0333  0.2159
29215SOL    HW188223   4.120   1.829   0.907 -0.4891 -0.1061  0.3653
29215SOL    HW288224   4.229   1.724   0.910 -0.9522 -0.6956 -1.9280
29216SOL     OW88225   7.594   6.681   2.905  0.1135  0.5700  0.3825
29216SOL    HW188226   7.598   6.654   2.997  0.3273  0.7774  0.4360
29216SOL    HW288227   7.682   6.664   2.871  0.2257  1.0881  0.3922
29217SOL     OW88228   5.172   8.378   2.815  0.2686  0.0519 -0.0686
29217SOL    HW188229   5.192   8.463   2.853  1.3460  0.3714 -1.2561
29217SOL    HW288230   5.108   8.339   2.874  1.7034  0.5802  1.9159
29218SOL     OW88231   5.159   5.770   5.496  0.4143  0.2265 -0.3527
29218SOL    HW188232   5.084   5.714   5.516  0.9111  0.1033  1.3725
29218SOL    HW288233   5.123   5.858   5.490 -0.2284 -0.1113 -2.1498
29219SOL     OW88234   0.779   4.318   1.599 -0.9920 -0.0177  0.1115
29219SOL    HW188235   0.814   4.340   1.686 -0.9962  0.4689 -0.0039
29219SOL    HW288236   0.688   4.350   1.601 -1.6109 -1.7067  0.5773
29220SOL     OW88237   6.971   0.808   8.670 -0.3455 -0.0354 -0.6596
29220SOL    HW188238   6.923   0.756   8.735  0.6220 -0.7898 -0.5189
29220SOL    HW288239   6.903   0.845   8.614 -1.0994 -1.0218 -0.4314
29221SOL     OW88240   5.469   7.875   4.977  0.3001 -0.5941 -0.5318
29221SOL    HW188241   5.496   7.949   4.922 -0.9360  0.6855  0.4782
29221SOL    HW288242   5.520   7.886   5.057 -1.6569  0.7325  0.6297
29222SOL     OW88243   5.907   9.908   0.476  0.6609  0.6983 -0.4158
29222SOL    HW188244   5.999   9.892   0.456  0.7150 -0.1266  0.4104
29222SOL    HW288245   5.903   9.912   0.572 -0.3961 -0.9923 -0.3476
29223SOL     OW88246   9.370   4.417   5.422  0.2327  0.2412 -0.3561
29223SOL    HW188247   9.382   4.414   5.517 -1.4538 -0.9276 -0.1511
29223SOL    HW288248   9.459   4.408   5.387  0.7950 -0.1635  1.1002
29224SOL     OW88249   5.236   1.974   1.711 -0.1327 -0.0966 -0.3633
29224SOL    HW188250   5.179   2.019   1.773 -0.7036 -1.7017  0.3372
29224SOL    HW288251   5.176   1.925   1.654  0.4699 -0.2116 -0.9147
29225SOL     OW88252   2.172   4.805   5.416 -0.2260 -0.6908 -0.2581
29225SOL    HW188253   2.225   4.801   5.496  0.4452 -0.3088 -0.6759
29225SOL    HW288254   2.088   4.768   5.442 -0.3660  0.3792  0.8970
29226SOL     OW88255   0.993   6.165   2.276  0.3273  0.0061  0.0728
29226SOL    HW188256   0.909   6.209   2.261 -0.0208 -0.7428 -0.2253
29226SOL    HW288257   1.043   6.182   2.196 -0.2755 -1.1742 -0.5695
29227SOL     OW88258   7.405   9.742   6.357  0.0961 -0.2593  0.4387
29227SOL    HW188259   7.342   9.808   6.384 -0.7351 -1.3428  1.2481
29227SOL    HW288260   7.491   9.780   6.377 -0.3044  1.0304 -0.2187
29228SOL     OW88261   6.278   3.591   0.403 -0.5187  0.4769 -0.1618
29228SOL    HW188262   6.291   3.664   0.343 -1.9945  0.8822 -0.0184
29228SOL    HW288263   6.184   3.573   0.400 -0.2078 -1.3841 -0.1462
29229SOL     OW88264   0.884   8.428   4.793  0.1326  0.4793 -0.2238
29229SOL    HW188265   0.854   8.483   4.720  2.6617 -0.2188 -1.9113
29229SOL    HW288266   0.805   8.412   4.844 -1.2782  3.1198 -1.3578
29230SOL     OW88267   1.495   1.438   4.828  0.2869  0.3301  0.0250
29230SOL    HW188268   1.498   1.346   4.855 -1.2786  0.7168  1.6708
29230SOL    HW288269   1.586   1.467   4.832  0.8128 -1.1346 -0.5696
29231SOL     OW88270   7.382   7.451   2.970 -0.5571  0.2458 -0.0436
29231SOL    HW188271   7.399   7.472   3.061  0.7640 -1.9242  0.2946
29231SOL    HW288272   7.323   7.375   2.973 -0.1030 -0.1691 -0.9500
29232SOL     OW88273   3.851   3.178   4.503 -0.8097  0.1477  0.1195
29232SOL    HW188274   3.823   3.090   4.527  0.7675 -0.8581 -1.4835
29232SOL    HW288275   3.929   3.194   4.557 -0.1126 -0.1502 -0.7767
29233SOL     OW88276   3.073   4.615   8.345  0.1195  0.5848 -0.2400
29233SOL    HW188277   3.167   4.629   8.335  0.5127 -1.1954  0.4798
29233SOL    HW288278   3.066   4.537   8.400 -1.7834  0.3397 -0.7389
29234SOL     OW88279   5.075   1.215   7.986 -0.2592  0.0086 -0.3076
29234SOL    HW188280   5.020   1.221   8.064 -2.2458 -0.9858 -1.5400
29234SOL    HW288281   5.132   1.140   8.002 -0.0524  0.3252  0.4985
29235SOL     OW88282   8.251   7.623   4.742  0.1270 -0.5144  0.1649
29235SOL    HW188283   8.245   7.706   4.789 -1.1043 -0.4697 -0.0421
29235SOL    HW288284   8.161   7.592   4.735  0.3567 -0.9236 -1.4362
29236SOL     OW88285   7.971   5.649   3.841  0.1041 -0.5885  0.0261
29236SOL    HW188286   7.983   5.659   3.747 -0.3012 -1.4452 -0.1350
29236SOL    HW288287   8.053   5.610   3.872 -0.2327 -1.5109 -0.1985
29237SOL     OW88288   7.529   4.456   0.982 -0.2332  0.0696  0.2611
29237SOL    HW188289   7.488   4.411   1.055 -0.6945 -0.8369 -0.5416
29237SOL    HW288290   7.458   4.468   0.918  0.5850 -1.0067 -0.8998
29238SOL     OW88291   4.753   8.374   3.957  0.4873 -0.3020 -0.0297
29238SOL    HW188292   4.747   8.466   3.932  0.2520  0.1149  1.4456
29238SOL    HW288293   4.836   8.368   4.005  0.1902 -0.7070  0.4479
29239SOL     OW88294   8.578   6.992   8.674  0.3793  0.0632  0.2675
29239SOL    HW188295   8.584   6.975   8.768 -1.1952 -0.1629  0.3485
29239SOL    HW288296   8.491   7.028   8.661 -0.8999 -3.1781 -1.5438
29240SOL     OW88297   4.379   0.607   1.582  0.0582  0.7651  0.4207
29240SOL    HW188298   4.462   0.603   1.534 -0.5467 -0.8132 -0.5892
29240SOL    HW288299   4.377   0.526   1.634 -2.1832 -0.9281 -2.0278
29241SOL     OW88300   9.011   6.758   2.336  0.0593 -0.2718 -0.5359
29241SOL    HW188301   9.082   6.704   2.303 -0.8084 -0.8100 -1.6034
29241SOL    HW288302   8.944   6.754   2.267 -1.4075 -0.6113  0.8404
29242SOL     OW88303   6.033   2.949   3.469 -0.3929  0.1047  0.3437
29242SOL    HW188304   5.950   2.927   3.513 -0.3017 -0.0095  0.4582
29242SOL    HW288305   6.013   2.941   3.376  0.1700 -2.5294  0.3703
29243SOL     OW88306   3.259   7.965   1.785  0.3649 -0.1948  0.8662
29243SOL    HW188307   3.271   8.048   1.739  4.0807 -0.3596  1.2145
29243SOL    HW288308   3.228   7.989   1.872 -1.2020  0.5381  0.1489
29244SOL     OW88309   0.971   2.182   2.327  0.2998  0.0684  0.1591
29244SOL    HW188310   0.935   2.237   2.257 -0.3682 -0.1459  0.3256
29244SOL    HW288311   1.064   2.174   2.306  0.6477  2.0685  0.6501
29245SOL     OW88312   2.504   0.573   6.093 -0.4286 -0.3506 -0.7445
29245SOL    HW188313   2.429   0.533   6.137 -0.3869  1.5158  1.2459
29245SOL    HW288314   2.566   0.502   6.083 -2.0692 -1.7381 -1.5723
29246SOL     OW88315   1.679   7.443   8.378  0.3414  0.4492  0.0025
29246SOL    HW188316   1.640   7.487   8.302  0.9405  0.0333 -0.5613
29246SOL    HW288317   1.605   7.413   8.430 -0.0878 -0.0961 -0.9115
29247SOL     OW88318   9.384   1.017   1.628  0.4380 -0.6646 -0.7088
29247SOL    HW188319   9.421   1.075   1.694 -0.4893 -0.1319 -0.6383
29247SOL    HW288320   9.317   1.070   1.585  1.1044 -0.9529 -2.1748
29248SOL     OW88321   2.668   6.397   3.761  0.3727  0.3531 -0.0275
29248SOL    HW188322   2.588   6.432   3.801  0.3282  0.4988 -0.2387
29248SOL    HW288323   2.647   6.306   3.742  0.3972  0.2820  0.2862
29249SOL     OW88324   4.145   2.695   4.228 -0.3672  0.2171 -0.1748
29249SOL    HW188325   4.169   2.604   4.210  1.1243  0.4884  0.2643
29249SOL    HW288326   4.164   2.707   4.321 -0.6096  0.9591 -0.2176
29250SOL     OW88327   1.565   0.184   7.408  0.1369 -0.4603 -0.2108
29250SOL    HW188328   1.577   0.105   7.355  0.3905  0.5499 -1.7344
29250SOL    HW288329   1.472   0.203   7.401  0.0502 -0.7086  0.2792
29251SOL     OW88330   2.617   5.502   3.330  0.1897 -0.2198  0.1615
29251SOL    HW188331   2.566   5.521   3.408  0.6161  0.8686  0.1823
29251SOL    HW288332   2.551   5.489   3.261 -0.1399  2.1266 -0.0330
29252SOL     OW88333   3.254   9.454   1.938 -0.2248  0.2084 -0.4770
29252SOL    HW188334   3.336   9.405   1.937 -1.3845 -1.8843  0.5844
29252SOL    HW288335   3.243   9.482   2.028 -0.4218  0.9336 -0.7230
29253SOL     OW88336   3.753   0.007   4.203 -0.6562  0.6161  0.0471
29253SOL    HW188337   3.686   0.044   4.145 -0.5266 -0.6181 -0.9256
29253SOL    HW288338   3.822  -0.023   4.144  0.1861  0.7320  0.9550
29254SOL     OW88339   1.198   2.990   0.917  0.4538 -0.1962  0.1649
29254SOL    HW188340   1.169   3.027   0.833  0.9509 -0.5674 -0.1807
29254SOL    HW288341   1.152   3.041   0.983 -1.3491 -1.0383 -0.3575
29255SOL     OW88342   0.196   6.165   3.247 -0.0488  0.0642  0.2075
29255SOL    HW188343   0.156   6.142   3.331 -0.2472  0.9932  0.3692
29255SOL    HW288344   0.167   6.096   3.187  0.0338 -0.5658  0.8767
29256SOL     OW88345   6.058   5.316   7.521 -0.1647  0.7071  0.1374
29256SOL    HW188346   6.036   5.397   7.568 -0.7452  0.2013  0.7703
29256SOL    HW288347   5.987   5.306   7.457 -1.5882 -0.6463  1.8220
29257SOL     OW88348   5.397   6.834   5.419 -0.1909 -0.2585  0.4401
29257SOL    HW188349   5.354   6.902   5.368  0.3873  0.4461  0.8670
29257SOL    HW288350   5.387   6.863   5.510  1.6011  0.1928  0.5279
29258SOL     OW88351   6.319   4.496   1.645  0.8542  0.0780  0.4909
29258SOL    HW188352   6.371   4.442   1.585  1.1295  1.7595 -0.8467
29258SOL    HW288353   6.228   4.470   1.627  0.9442  0.4323 -0.5381
29259SOL     OW88354   4.447   3.314   6.131  0.3260  0.2485  0.2343
29259SOL    HW188355   4.446   3.390   6.189  0.4759 -0.0519  0.6385
29259SOL    HW288356   4.426   3.240   6.188  1.5126 -0.1911  0.1296
29260SOL     OW88357   4.478   2.258   0.125 -0.4301  0.3454 -0.1759
29260SOL    HW188358   4.418   2.186   0.145 -0.8130  1.2917  2.4969
29260SOL    HW288359   4.506   2.290   0.210  0.9603  2.3726 -1.3141
29261SOL     OW88360   5.775   8.383   2.263 -0.4980  0.2233  0.1030
29261SOL    HW188361   5.684   8.357   2.249  0.0034 -2.1175  0.7442
29261SOL    HW288362   5.825   8.304   2.244  1.1866  0.6515  2.3456
29262SOL     OW88363   5.759   0.947   3.559  0.0149  0.1965  0.2042
29262SOL    HW188364   5.736   0.931   3.467  1.8577 -0.3224 -0.2004
29262SOL    HW288365   5.735   1.039   3.574 -2.5272 -0.3539 -0.0513
29263SOL     OW88366   8.185   5.487   1.827  0.2365  0.1907  0.0795
29263SOL    HW188367   8.209   5.551   1.894  0.8252 -0.6991  0.7532
29263SOL    HW288368   8.269   5.451   1.798 -0.1029 -0.9879  0.4625
29264SOL     OW88369   6.993   6.612   7.515  0.3437  0.6047 -0.0446
29264SOL    HW188370   6.966   6.613   7.607  0.8271  0.7078  0.0975
29264SOL    HW288371   7.085   6.636   7.516 -0.0442  2.2933 -0.6920
29265SOL     OW88372   7.090   2.167   7.138 -0.3557  0.1666 -0.3366
29265SOL    HW188373   7.105   2.196   7.229  0.5411 -1.4165  0.0534
29265SOL    HW288374   7.171   2.123   7.114 -0.3947  0.9975 -2.1123
29266SOL     OW88375   2.220   3.049   3.121  0.1383  0.1410  0.6263
29266SOL    HW188376   2.221   2.992   3.197  0.7015 -1.2701 -0.3940
29266SOL    HW288377   2.156   3.010   3.062 -0.4203  1.3120  0.4206
29267SOL     OW88378   6.257   1.857   1.606  0.2438 -0.3709 -0.3328
29267SOL    HW188379   6.198   1.900   1.668  0.3409  0.7433 -1.0077
29267SOL    HW288380   6.222   1.767   1.600 -1.3189  0.2141 -0.6267
29268SOL     OW88381   3.881   2.616   1.092 -0.1103 -0.0143 -0.6048
29268SOL    HW188382   3.897   2.532   1.135 -0.8422 -0.0024 -0.2907
29268SOL    HW288383   3.967   2.657   1.087  0.0438 -0.1514  0.5841
29269SOL     OW88384   3.381   6.801   7.421 -0.2642 -0.2129  0.7627
29269SOL    HW188385   3.445   6.755   7.476 -0.4289 -0.3477  0.8435
29269SOL    HW288386   3.336   6.731   7.374 -0.0040 -0.0893  0.3181
29270SOL     OW88387   0.564   6.577   6.846  0.3664 -0.3251 -0.2741
29270SOL    HW188388   0.609   6.556   6.928  1.3328 -1.0237 -0.9569
29270SOL    HW288389   0.473   6.592   6.872  1.1905  2.7150  1.3921
29271SOL     OW88390   4.854   4.606   9.723  0.0729  0.2278 -0.4777
29271SOL    HW188391   4.821   4.517   9.719 -0.6060  0.2917  2.1759
29271SOL    HW288392   4.921   4.610   9.655 -0.2386 -2.1238 -0.9881
29272SOL     OW88393   3.471   1.595   9.065 -0.2065 -0.0524 -0.0233
29272SOL    HW188394   3.380   1.568   9.050 -1.3545  3.2696  0.0462
29272SOL    HW288395   3.510   1.600   8.978 -0.2947 -0.8057 -0.1114
29273SOL     OW88396   8.269   5.852   3.473 -0.0134  0.0564  0.8465
29273SOL    HW188397   8.347   5.800   3.493  1.8316  2.4170  0.2762
29273SOL    HW288398   8.252   5.836   3.380  0.6303  0.5406  0.6397
29274SOL     OW88399   0.857   3.283   2.445 -0.1371 -0.6300  0.1146
29274SOL    HW188400   0.950   3.304   2.436 -0.0806  0.4911  2.5830
29274SOL    HW288401   0.855   3.199   2.490 -0.2275  0.5964  2.5278
29275SOL     OW88402   4.210   0.730   0.026  0.0369 -0.2551  0.7353
29275SOL    HW188403   4.204   0.807  -0.030 -0.5084 -2.1316 -1.9907
29275SOL    HW288404   4.120   0.701   0.037  0.3606 -1.5986  0.0385
29276SOL     OW88405   8.584   3.263   7.655  0.1745  0.1994 -0.3747
29276SOL    HW188406   8.547   3.216   7.580 -0.5034 -0.8114  0.5459
29276SOL    HW288407   8.592   3.354   7.626 -0.3301 -0.1201 -1.5688
29277SOL     OW88408   4.855   6.792   2.026 -0.3274  0.2188  0.3775
29277SOL    HW188409   4.886   6.872   2.067 -1.9018  1.5261 -0.8448
29277SOL    HW288410   4.929   6.762   1.973  0.0786  1.1898  0.3818
29278SOL     OW88411   5.058   0.109   2.661  0.1056  0.0465  0.1676
29278SOL    HW188412   5.121   0.050   2.619 -0.0222  0.5215 -0.7163
29278SOL    HW288413   5.110   0.187   2.683  0.6832 -1.0258  2.9223
29279SOL     OW88414   2.912   0.989   1.256 -0.1737 -0.3459  0.6137
29279SOL    HW188415   2.851   1.016   1.326 -1.2346 -2.2796  0.4928
29279SOL    HW288416   2.858   0.988   1.177  0.6310  0.2632  0.0458
29280SOL     OW88417   0.491   7.033   7.246  0.1561 -0.0815 -0.0235
29280SOL    HW188418   0.413   7.087   7.254 -1.3093 -2.0691 -0.2261
29280SOL    HW288419   0.563   7.091   7.272 -1.3704  1.7715  0.2839
29281SOL     OW88420   5.664   5.265   0.463 -0.3359  0.2528 -0.2436
29281SOL    HW188421   5.753   5.292   0.483  0.4450 -1.1259 -1.6741
29281SOL    HW288422   5.622   5.344   0.427 -0.1894  1.2978  1.6869
29282SOL     OW88423   3.923   4.092   4.851  0.6156  0.0246 -0.3157
29282SOL    HW188424   3.977   4.163   4.885  0.5287  0.6168 -1.3771
29282SOL    HW288425   3.985   4.024   4.825  0.8725  0.6898 -1.5049
29283SOL     OW88426   0.511   8.138   1.370  0.0027 -0.7025 -0.0095
29283SOL    HW188427   0.470   8.086   1.300 -0.5847 -0.8433  0.4314
29283SOL    HW288428   0.437   8.172   1.421  0.4384 -1.3315  1.0723
29284SOL     OW88429   2.727   3.105   2.169 -0.2874 -0.1304  0.0573
29284SOL    HW188430   2.777   3.026   2.185 -1.6482 -0.8636  0.9471
29284SOL    HW288431   2.792   3.174   2.160  0.8642 -0.9602  1.6165
29285SOL     OW88432   0.777   9.061   4.784  0.3898  0.2944 -0.1627
29285SOL    HW188433   0.732   9.126   4.730  1.0899  1.1410  0.2493
29285SOL    HW288434   0.846   9.026   4.728  0.6314  0.6172 -0.0673
29286SOL     OW88435   5.627   9.146   9.929 -0.3286 -0.2008  0.4956
29286SOL    HW188436   5.569   9.174  10.000  1.8700 -0.1410  2.3827
29286SOL    HW288437   5.690   9.087   9.971  1.4215  0.2843 -1.2884
29287SOL     OW88438   8.583   2.456   2.904 -0.2042  0.5190 -0.0792
29287SOL    HW188439   8.537   2.395   2.962  1.3425  0.5679  1.2851
29287SOL    HW288440   8.601   2.532   2.959  1.4656  0.4953 -0.5317
29288SOL     OW88441   0.689   3.245   5.827 -0.0686  0.0223  0.3651
29288SOL    HW188442   0.784   3.256   5.828 -0.2659  2.7334 -0.9149
29288SOL    HW288443   0.671   3.199   5.745  0.0785  0.5370  0.0402
29289SOL     OW88444   1.866   2.339   4.425 -0.8537 -0.3006  0.7294
29289SOL    HW188445   1.853   2.263   4.369 -0.1240 -0.8435  1.2736
29289SOL    HW288446   1.892   2.410   4.366  0.3216 -0.9744  0.4119
29290SOL     OW88447   1.855   6.333   6.612 -0.7334  0.7943  0.1247
29290SOL    HW188448   1.826   6.365   6.527 -0.6406  1.2427  0.2588
29290SOL    HW288449   1.835   6.239   6.610  0.0224  0.6320 -0.7101
29291SOL     OW88450   2.241   6.014   3.954  0.1096  0.5750 -0.4868
29291SOL    HW188451   2.147   6.026   3.964  0.1210  0.5260 -0.3039
29291SOL    HW288452   2.275   6.017   4.044 -0.0304 -2.0390 -0.2665
29292SOL     OW88453   7.676   9.569   6.686  0.1797 -0.3592 -1.1301
29292SOL    HW188454   7.658   9.646   6.741  0.3893 -1.9607  1.3241
29292SOL    HW288455   7.771   9.563   6.684  0.1901 -1.8194  0.7163
29293SOL     OW88456   2.091   4.638   4.821 -0.0586 -0.0193  0.2259
29293SOL    HW188457   2.068   4.608   4.733 -0.6816  1.3033 -0.0806
29293SOL    HW288458   2.078   4.561   4.876 -1.2166 -0.4352 -0.5866
29294SOL     OW88459   9.839   4.240   8.920  0.0474  0.1367  0.2771
29294SOL    HW188460   9.817   4.326   8.954  1.8251  0.0921  1.6519
29294SOL    HW288461   9.804   4.179   8.986  0.6999 -0.0828  0.4290
29295SOL     OW88462   5.610   4.370   5.851  0.0386 -0.7240  0.1403
29295SOL    HW188463   5.614   4.460   5.882 -0.0840 -0.3750 -0.8401
29295SOL    HW288464   5.532   4.367   5.795  0.3089 -1.3202 -0.2161
29296SOL     OW88465   4.315   5.344   8.207  0.1109 -0.3850 -0.1539
29296SOL    HW188466   4.293   5.429   8.170 -1.7402 -0.7275  0.0389
29296SOL    HW288467   4.249   5.285   8.170  1.1122 -1.6601  0.0369
29297SOL     OW88468   8.409   7.859   0.260  0.8980 -0.3495 -0.0376
29297SOL    HW188469   8.496   7.856   0.300  0.9508  0.3017 -0.0935
29297SOL    HW288470   8.418   7.917   0.185  0.1369  0.7764  0.6974
29298SOL     OW88471   3.596   5.621   0.185 -0.1348  0.4287 -1.1371
29298SOL    HW188472   3.667   5.649   0.242  1.0464 -2.0033 -1.2746
29298SOL    HW288473   3.538   5.570   0.242  0.1948 -0.6419 -1.7204
29299SOL     OW88474   5.313   0.759   4.618 -0.6832  0.2163 -0.2089
29299SOL    HW188475   5.230   0.747   4.571 -0.2124 -2.2328 -0.5568
29299SOL    HW288476   5.289   0.753   4.710 -0.8261 -1.3756 -0.3215
29300SOL     OW88477   9.795   3.406   5.784  0.2615 -0.0049 -0.5270
29300SOL    HW188478   9.816   3.448   5.868  0.9809  0.1163 -0.7572
29300SOL    HW288479   9.755   3.323   5.808  2.5981 -1.0788 -0.0061
29301SOL     OW88480   6.705   4.260   7.733  0.2639  0.0661 -0.4512
29301SOL    HW188481   6.799   4.257   7.751  0.5874 -0.2260 -2.0125
29301SOL    HW288482   6.692   4.198   7.661 -0.8469  1.2654 -1.3570
29302SOL     OW88483   8.962   8.997   3.476 -0.1465  0.3164 -0.4261
29302SOL    HW188484   9.022   8.958   3.539  0.4379  0.5635 -0.8224
29302SOL    HW288485   9.015   9.011   3.398 -0.3235  1.9590 -0.2775
29303SOL     OW88486   4.409   7.148   7.424  0.4656 -0.4205 -1.1231
29303SOL    HW188487   4.456   7.135   7.341  1.2294  0.4922 -0.8556
29303SOL    HW288488   4.339   7.084   7.422  2.0750 -2.2733 -1.2589
29304SOL     OW88489   8.876   6.927   6.861 -0.4943  0.2033  0.3064
29304SOL    HW188490   8.905   6.915   6.951 -3.8671  0.0450  1.5276
29304SOL    HW288491   8.832   6.845   6.839 -1.3033  0.9019 -0.7964
29305SOL     OW88492   3.657   7.046   6.477  0.1617  0.9601  0.5286
29305SOL    HW188493   3.702   7.098   6.410 -1.0564  1.0581 -0.2392
29305SOL    HW288494   3.717   6.974   6.496  1.2976  1.9065  0.6400
29306SOL     OW88495   3.378   7.979   6.479  0.3327 -0.4324 -0.5289
29306SOL    HW188496   3.319   8.054   6.477  0.2541 -0.4820 -0.1666
29306SOL    HW288497   3.322   7.904   6.458 -0.1237 -0.7202  1.4638
29307SOL     OW88498   5.802   7.662   5.438 -0.3336  0.1782 -0.0928
29307SOL    HW188499   5.891   7.635   5.462  1.0235  3.2665 -1.1723
29307SOL    HW288500   5.801   7.660   5.343 -1.1752  0.9258 -0.1114
29308SOL     OW88501   3.222   9.846   3.154 -0.6416 -0.1457 -0.2025
29308SOL    HW188502   3.167   9.769   3.142  1.7929 -1.7362 -2.6897
29308SOL    HW288503   3.163   9.915   3.184 -2.8395 -3.0717  2.9235
29309SOL     OW88504   1.308   6.729   4.832  0.6140 -0.3387  0.0243
29309SOL    HW188505   1.338   6.766   4.749 -1.0137 -0.1750 -0.5208
29309SOL    HW288506   1.269   6.802   4.879 -0.6797 -0.8878 -0.1372
29310SOL     OW88507   0.295   3.558   5.050  0.3227 -0.3459 -0.3803
29310SOL    HW188508   0.221   3.498   5.041  0.1267 -0.1324 -0.2090
29310SOL    HW288509   0.362   3.507   5.094 -0.4893  0.0807  1.4490
29311SOL     OW88510   4.002   2.881   5.588  0.0547 -0.0464  0.2302
29311SOL    HW188511   3.929   2.873   5.527 -1.5595 -0.1865  2.1034
29311SOL    HW288512   4.013   2.976   5.599  1.2102  0.0307 -1.1757
29312SOL     OW88513   8.827   0.817   9.469  0.3640  0.3290 -0.3827
29312SOL    HW188514   8.780   0.880   9.413  1.1896  0.2196 -1.2262
29312SOL    HW288515   8.883   0.770   9.408  0.9768 -0.0904  0.5002
29313SOL     OW88516   4.397   2.179   4.068 -0.5811  0.2045 -1.1208
29313SOL    HW188517   4.440   2.200   4.151 -2.4025 -2.3066  0.6194
29313SOL    HW288518   4.436   2.096   4.041 -1.7899 -0.2908 -1.4029
29314SOL     OW88519   4.621   5.521   7.962 -0.3932  0.1833  0.3681
29314SOL    HW188520   4.669   5.441   7.982 -0.5185  0.1275  0.4422
29314SOL    HW288521   4.531   5.492   7.946 -0.3859  0.2783  0.1485
29315SOL     OW88522   7.752   2.145   4.711 -0.4742  0.1139 -0.0901
29315SOL    HW188523   7.774   2.052   4.707  1.6209  0.5812 -0.5706
29315SOL    HW288524   7.721   2.158   4.801 -1.3808 -1.1284 -0.1874
29316SOL     OW88525   4.755   1.253   2.852 -0.2777  0.1787  0.1435
29316SOL    HW188526   4.781   1.344   2.841  0.2625  0.2433  1.6688
29316SOL    HW288527   4.661   1.257   2.871 -0.8433  0.1795 -2.4171
29317SOL     OW88528   2.738   1.975   0.381 -0.5088  0.1336 -0.4316
29317SOL    HW188529   2.700   1.944   0.299  0.4250 -2.4002  0.0081
29317SOL    HW288530   2.819   2.018   0.355 -0.2986 -0.5092 -0.8693
29318SOL     OW88531   8.109   4.232   2.667 -0.5110 -0.1029  0.7007
29318SOL    HW188532   8.040   4.272   2.720 -1.0351 -1.3103  0.9752
29318SOL    HW288533   8.104   4.139   2.688 -0.9694 -0.6885 -1.7168
29319SOL     OW88534   3.631   2.641   6.918  0.1219  0.1698  0.6215
29319SOL    HW188535   3.647   2.691   6.839 -3.1600 -0.8687 -0.8532
29319SOL    HW288536   3.549   2.675   6.953  0.3503 -0.8961  2.3344
29320SOL     OW88537   8.223   1.233   1.939 -0.1453  0.4596  0.6988
29320SOL    HW188538   8.143   1.259   1.985 -0.0146 -1.3558  2.0405
29320SOL    HW288539   8.293   1.280   1.985 -0.2537  0.6078  0.7141
29321SOL     OW88540   8.319   1.795   1.338 -0.0021 -0.1368  0.3574
29321SOL    HW188541   8.392   1.828   1.285 -0.7151  0.3531 -0.3522
29321SOL    HW288542   8.343   1.818   1.428  0.4047  0.6338  0.0696
29322SOL     OW88543   8.670   3.550   8.160 -0.2392 -0.1968 -0.1533
29322SOL    HW188544   8.597   3.575   8.216  0.5038 -1.2151  1.3311
29322SOL    HW288545   8.724   3.629   8.154 -0.9648  0.2852 -0.5003
29323SOL     OW88546   6.797   3.855   0.977  0.2361 -0.1352  0.3896
29323SOL    HW188547   6.733   3.823   1.041 -1.7437  2.3916 -0.1805
29323SOL    HW288548   6.793   3.791   0.906 -1.2274 -0.3805  0.6591
29324SOL     OW88549   8.807   8.556   1.717 -1.0602  0.2904 -0.3918
29324SOL    HW188550   8.892   8.588   1.688  0.1220  0.0532  2.4655
29324SOL    HW288551   8.746   8.626   1.694  0.3097  1.5356 -0.4209
29325SOL     OW88552   5.921   8.158   4.250 -0.1261  0.4449  0.0942
29325SOL    HW188553   5.920   8.063   4.233  0.1785  0.2211  1.2399
29325SOL    HW288554   5.833   8.187   4.229 -0.9678 -0.5481  2.0189
29326SOL     OW88555   4.488   9.138   2.132 -0.1121  0.6011  0.6729
29326SOL    HW188556   4.510   9.179   2.215  2.0205  1.0296 -0.0361
29326SOL    HW288557   4.482   9.211   2.070  1.1690  0.0904 -0.0902
29327SOL     OW88558   2.167   0.979   6.187 -0.0807 -0.0450  0.2556
29327SOL    HW188559   2.108   1.044   6.148  0.0262  0.2723  0.6144
29327SOL    HW288560   2.153   0.987   6.281 -0.5852 -1.0490  0.2784
29328SOL     OW88561   4.647   2.884   1.158 -0.5042  0.0044 -0.1564
29328SOL    HW188562   4.635   2.799   1.200 -0.6099 -0.6542 -1.4541
29328SOL    HW288563   4.658   2.945   1.230  0.0673 -1.1805  0.8068
29329SOL     OW88564   8.012   5.132   4.498 -1.1262 -0.0458  0.4974
29329SOL    HW188565   7.961   5.071   4.444 -2.9173  1.5816  0.2071
29329SOL    HW288566   7.950   5.202   4.519  1.3387  2.9437 -1.2180
29330SOL     OW88567   5.229   1.879   4.341  0.0695 -0.4129  0.0824
29330SOL    HW188568   5.319   1.861   4.314  0.2809  1.7479 -0.9192
29330SOL    HW288569   5.220   1.836   4.425  2.1862 -0.3661  0.3849
29331SOL     OW88570   8.263   3.640   0.693 -0.5940 -0.0126 -0.1127
29331SOL    HW188571   8.186   3.687   0.725  0.5832  0.9689  1.4234
29331SOL    HW288572   8.337   3.697   0.714  0.5243 -0.6173 -2.1628
29332SOL     OW88573   1.800   4.455   1.887  0.0123 -0.0380 -0.1192
29332SOL    HW188574   1.772   4.383   1.943  0.4422 -2.0010 -2.2265
29332SOL    HW288575   1.729   4.464   1.823 -0.1034  1.5722  0.1967
29333SOL     OW88576   4.090   7.379   1.822  0.4302 -0.1616  0.1930
29333SOL    HW188577   4.081   7.436   1.898  1.4226 -0.1271  0.2991
29333SOL    HW288578   4.144   7.306   1.854 -0.4558 -0.9445 -0.0574
29334SOL     OW88579   3.972   2.721   1.729  0.3148  0.3217  0.3730
29334SOL    HW188580   3.936   2.653   1.672  1.0486 -1.6157  2.1140
29334SOL    HW288581   3.947   2.695   1.817  0.1030  2.6816  1.0914
29335SOL     OW88582   5.386   7.411   9.460  0.1251  0.2120  0.1265
29335SOL    HW188583   5.385   7.349   9.533  0.9250 -1.1896 -1.0016
29335SOL    HW288584   5.296   7.444   9.455 -0.2960 -0.8026  0.8019
29336SOL     OW88585   2.715   5.513   2.560 -0.0739  0.3316  0.1136
29336SOL    HW188586   2.677   5.430   2.590 -0.3774  0.4789  0.1356
29336SOL    HW288587   2.808   5.505   2.580 -0.2204  0.2959  0.7939
29337SOL     OW88588   2.544   3.749   3.630  0.5193 -0.1244 -0.0645
29337SOL    HW188589   2.501   3.704   3.703  0.5851  0.4675  0.3462
29337SOL    HW288590   2.601   3.683   3.592  0.0492 -0.6078  0.0600
29338SOL     OW88591   0.963   2.424   6.881 -0.5174 -0.5774  0.5548
29338SOL    HW188592   0.886   2.423   6.938 -0.2490  0.6275  0.9832
29338SOL    HW288593   0.938   2.483   6.810 -0.0881 -0.3875  0.5592
29339SOL     OW88594   7.646   9.057   8.390 -0.0084  0.3480 -0.0346
29339SOL    HW188595   7.679   9.068   8.479 -2.6720  0.9400  0.9680
29339SOL    HW288596   7.607   8.969   8.389  1.5039 -0.3563 -1.1936
29340SOL     OW88597   0.108   1.586   7.217 -0.2835 -0.4888 -0.2738
29340SOL    HW188598   0.059   1.592   7.135  1.1588  0.2501 -1.1215
29340SOL    HW288599   0.196   1.560   7.190  0.6114  1.1560  0.8556
29341SOL     OW88600   8.396   3.602   9.741  0.6283  0.8020 -0.1312
29341SOL    HW188601   8.345   3.626   9.819  1.1485  0.0234  0.4616
29341SOL    HW288602   8.438   3.519   9.764 -0.9728 -0.6510 -2.0456
29342SOL     OW88603   4.118   1.999   4.000  0.1488 -0.8994  0.2249
29342SOL    HW188604   4.181   1.974   4.068 -0.0070 -0.3281  0.5840
29342SOL    HW288605   4.166   1.988   3.918  0.0877 -2.3809  0.3515
29343SOL     OW88606   6.630   5.517   9.338 -0.7684 -0.6302 -0.1908
29343SOL    HW188607   6.560   5.520   9.273 -0.4130  0.9865 -0.5552
29343SOL    HW288608   6.620   5.598   9.388  0.4780 -0.6467  0.1330
29344SOL     OW88609   0.573   1.344   7.891 -0.4073  0.2847 -0.1409
29344SOL    HW188610   0.578   1.439   7.875 -0.5316  0.4822  0.9705
29344SOL    HW288611   0.619   1.331   7.973 -2.4827 -0.2845  0.9907
29345SOL     OW88612   1.530   4.017   2.102 -0.1340  0.1548  0.4669
29345SOL    HW188613   1.442   4.041   2.074 -0.4831  0.6465  1.9025
29345SOL    HW288614   1.519   3.934   2.148 -0.2023  1.1368  2.3213
29346SOL     OW88615   4.730   1.866   7.292 -0.5445  0.4011  0.5144
29346SOL    HW188616   4.736   1.920   7.370 -0.8079 -1.6390  2.0279
29346SOL    HW288617   4.820   1.838   7.275 -0.6997 -0.5214  1.1380
29347SOL     OW88618   0.696   5.958   6.048 -0.4352  0.4459  0.1377
29347SOL    HW188619   0.762   5.963   6.117 -0.5015  1.0612  0.1635
29347SOL    HW288620   0.744   5.931   5.970 -0.2232  0.5057  0.2480
29348SOL     OW88621   4.902   3.172   6.360 -0.2744 -0.0594  0.0101
29348SOL    HW188622   4.808   3.187   6.361 -0.5445 -1.5595 -0.5955
29348SOL    HW288623   4.940   3.258   6.381 -1.7021  1.0758 -1.7028
29349SOL     OW88624   0.970   9.618   3.402 -0.0332  0.7230 -0.2809
29349SOL    HW188625   0.903   9.676   3.438  1.1978  1.8636  0.2598
29349SOL    HW288626   0.980   9.647   3.311  0.9757  1.7908  0.1409
29350SOL     OW88627   4.480   0.660   4.127  0.5571  0.2491 -0.4389
29350SOL    HW188628   4.443   0.680   4.213 -0.2719  2.1642 -1.1803
29350SOL    HW288629   4.412   0.607   4.084  1.1466 -1.0698  0.1810
29351SOL     OW88630   2.619   8.910   7.676 -0.0670  0.0427  0.0266
29351SOL    HW188631   2.570   8.945   7.751  0.7547  0.9345  0.1654
29351SOL    HW288632   2.711   8.918   7.702  0.3576  2.2619 -1.8130
29352SOL     OW88633   8.266   7.153   5.044 -0.2493 -0.0754 -0.2844
29352SOL    HW188634   8.256   7.133   5.137  0.3253 -0.8841 -0.3877
29352SOL    HW288635   8.309   7.076   5.007 -0.4597  0.2408 -1.2216
29353SOL     OW88636   6.224   5.688   3.753 -0.1744  0.3879 -0.3521
29353SOL    HW188637   6.286   5.740   3.702  0.9047 -0.5442 -0.0436
29353SOL    HW288638   6.231   5.723   3.842  1.2388 -0.8075  0.0573
29354SOL     OW88639   2.216   2.965   9.047 -0.1006 -0.0398  0.1720
29354SOL    HW188640   2.200   2.988   8.955 -0.4802  0.0273  0.2572
29354SOL    HW288641   2.133   2.930   9.078 -0.1382  0.4705  0.6555
29355SOL     OW88642   5.732   1.946   9.326  0.5202 -0.2987  0.0625
29355SOL    HW188643   5.795   2.013   9.350  1.9307 -1.5811  0.0857
29355SOL    HW288644   5.702   1.970   9.239 -3.0585  3.2618  1.9434
29356SOL     OW88645   3.775   1.043   7.145  0.1479 -0.2676  0.0314
29356SOL    HW188646   3.768   1.018   7.237 -0.4021 -0.9701 -0.1932
29356SOL    HW288647   3.868   1.062   7.133  0.1140  0.5327  0.8979
29357SOL     OW88648   3.801   3.684   9.509 -0.1654  0.6943  0.1249
29357SOL    HW188649   3.723   3.737   9.520 -0.8947 -0.1898 -0.6313
29357SOL    HW288650   3.787   3.636   9.427  1.0249  0.2878  0.1320
29358SOL     OW88651   8.400   1.046   3.052 -0.2974 -1.1413  0.0169
29358SOL    HW188652   8.350   1.088   3.122  1.0400 -0.9116  0.8747
29358SOL    HW288653   8.337   0.988   3.009 -1.2851 -0.8945  1.0719
29359SOL     OW88654   7.467   5.100   0.506 -0.0374  0.3026  0.7305
29359SOL    HW188655   7.537   5.091   0.571 -0.3030 -0.1587  0.9549
29359SOL    HW288656   7.423   5.182   0.530  1.2667  1.3387 -0.2392
29360SOL     OW88657   7.197   8.337   6.847  0.3006  0.1317 -0.1021
29360SOL    HW188658   7.199   8.433   6.848 -0.5927  0.1783 -1.2440
29360SOL    HW288659   7.164   8.313   6.934  1.3038  0.8019  0.4987
29361SOL     OW88660   4.155   5.835   0.532 -0.0135  0.6111  0.2897
29361SOL    HW188661   4.232   5.889   0.551  0.4763 -0.5706  1.9417
29361SOL    HW288662   4.162   5.762   0.594 -0.9954 -1.0033 -1.4211
29362SOL     OW88663   2.638   8.371   9.859 -0.1909 -0.5642 -0.4175
29362SOL    HW188664   2.602   8.446   9.906 -1.2060 -0.7909 -0.8005
29362SOL    HW288665   2.716   8.347   9.908 -0.0523  0.5235 -0.0903
29363SOL     OW88666   2.136   8.514   2.866 -0.6297  0.0949  0.0893
29363SOL    HW188667   2.141   8.447   2.934 -1.9796 -0.6653 -0.5188
29363SOL    HW288668   2.060   8.567   2.890 -0.2546  0.7093 -0.0589
29364SOL     OW88669   0.322   5.816   0.477 -0.6531  0.1099  0.0011
29364SOL    HW188670   0.314   5.725   0.448  2.4741  0.2574 -1.8294
29364SOL    HW288671   0.251   5.828   0.540 -0.9224 -3.6969  0.6451
29365SOL     OW88672   4.707   4.448   9.055 -0.0008  0.0301  0.0888
29365SOL    HW188673   4.682   4.475   8.967  0.7614  4.1074  0.9409
29365SOL    HW288674   4.668   4.360   9.065  0.4896 -0.9359 -4.4415
29366SOL     OW88675   5.996   6.431   2.876  0.6287  0.0154  0.1563
29366SOL    HW188676   6.038   6.345   2.867  0.5203 -0.0102 -0.1228
29366SOL    HW288677   6.047   6.488   2.819  1.9103  0.5895  1.8239
29367SOL     OW88678   5.886   7.577   9.531 -0.0502  0.6624 -0.5805
29367SOL    HW188679   5.873   7.660   9.484 -2.3613 -0.1283 -1.4826
29367SOL    HW288680   5.814   7.521   9.501  0.3712 -1.0570  1.3965
29368SOL     OW88681   1.840   1.485   7.605 -0.3795 -0.1440  0.1986
29368SOL    HW188682   1.818   1.392   7.593 -2.6967  0.2236  1.2442
29368SOL    HW288683   1.895   1.486   7.683  2.8519 -0.9543 -1.8612
29369SOL     OW88684   5.848   4.305   8.614  0.0288  0.0647 -0.5891
29369SOL    HW188685   5.856   4.401   8.612 -0.9849  0.2146  0.8640
29369SOL    HW288686   5.931   4.275   8.651  1.1893  0.1957 -2.9308
29370SOL     OW88687   6.654   7.566   0.923 -0.4445 -0.1218  0.1601
29370SOL    HW188688   6.627   7.477   0.945 -0.9215  0.2988  1.3851
29370SOL    HW288689   6.575   7.619   0.935  0.2707  0.7470  1.3584
29371SOL     OW88690   9.742   9.207   4.319 -0.4587  0.9765  0.2061
29371SOL    HW188691   9.791   9.126   4.331 -1.6332  0.0249 -1.2473
29371SOL    HW288692   9.656   9.189   4.358 -0.2939  2.0178  1.1097
29372SOL     OW88693   0.206   6.867   6.899 -0.4696  0.4124 -0.0636
29372SOL    HW188694   0.234   6.777   6.886  0.3890  0.5231  0.8928
29372SOL    HW288695   0.115   6.868   6.869 -0.0474 -0.4077 -1.4699
29373SOL     OW88696   1.340   5.748   2.460 -0.1905 -0.2645 -0.0337
29373SOL    HW188697   1.248   5.760   2.482 -0.0195  1.6398 -0.1504
29373SOL    HW288698   1.346   5.768   2.367  0.0412 -2.4864 -0.5540
29374SOL     OW88699   9.568   9.615   8.001  0.3048 -0.2449 -0.6831
29374SOL    HW188700   9.651   9.652   8.033 -0.2990  0.2129  0.4290
29374SOL    HW288701   9.521   9.591   8.081 -0.6545 -0.4418 -1.2982
29375SOL     OW88702   4.282   9.929   6.965 -0.0068  0.0079  0.0560
29375SOL    HW188703   4.201   9.930   6.914  0.0006  0.8432  0.0478
29375SOL    HW288704   4.290  10.018   6.998  0.0864 -0.4613  1.3720
29376SOL     OW88705   9.450   8.527   2.926 -0.9593 -0.3118 -1.1319
29376SOL    HW188706   9.367   8.478   2.930 -2.3399  1.9147 -1.0430
29376SOL    HW288707   9.500   8.482   2.858 -1.8068 -2.3106 -0.5263
29377SOL     OW88708   6.849   0.090   0.853  0.1401  0.3642  0.1388
29377SOL    HW188709   6.857   0.158   0.920 -0.4122  2.0125 -1.3832
29377SOL    HW288710   6.937   0.051   0.848  0.1681  0.1221  1.8471
29378SOL     OW88711   0.416   9.450   0.398 -0.5449  0.0816  0.0843
29378SOL    HW188712   0.427   9.357   0.417 -2.0784  0.3639  2.8728
29378SOL    HW288713   0.323   9.467   0.414  0.1081  2.4979  1.9600
29379SOL     OW88714   7.006   1.030   9.196 -0.3558 -0.0361  0.1902
29379SOL    HW188715   6.973   0.945   9.224 -0.9128  0.0268 -0.2557
29379SOL    HW288716   6.971   1.041   9.107  0.4995  0.2346 -0.1264
29380SOL     OW88717   4.287   5.579   8.088 -0.5686  0.1705  0.0431
29380SOL    HW188718   4.262   5.582   7.995  0.3965  0.9810 -0.2069
29380SOL    HW288719   4.366   5.633   8.094  0.2324 -1.0443  1.0856
29381SOL     OW88720   1.934   3.592   7.435  0.2092  0.3947  0.1663
29381SOL    HW188721   1.853   3.541   7.438  0.9120 -0.7054  2.1556
29381SOL    HW288722   1.930   3.637   7.351 -1.3076 -1.5130 -0.8741
29382SOL     OW88723   2.595   3.277   3.949  0.2934  0.5796  0.4938
29382SOL    HW188724   2.577   3.309   4.037  0.1834 -1.5430  1.2935
29382SOL    HW288725   2.686   3.250   3.951 -0.2992 -1.5301  0.6594
29383SOL     OW88726   3.456   7.086   9.870 -0.0937  0.0021 -0.3276
29383SOL    HW188727   3.477   6.993   9.876 -0.4071 -0.0757 -0.4752
29383SOL    HW288728   3.471   7.119   9.959  0.3381 -0.1199 -0.3502
29384SOL     OW88729   9.262   6.622   1.308  0.2139  0.2842 -0.2514
29384SOL    HW188730   9.340   6.674   1.289  0.3647 -0.1427 -0.8256
29384SOL    HW288731   9.212   6.623   1.227 -0.2164  0.2719  0.0112
29385SOL     OW88732   8.842   0.138   3.164 -0.0785  0.4232  1.2298
29385SOL    HW188733   8.789   0.122   3.086  1.0817 -0.2508  0.5597
29385SOL    HW288734   8.850   0.233   3.168  1.1932  0.4286 -0.4184
29386SOL     OW88735   2.276   2.980  -0.008 -0.7462  0.6154 -0.1027
29386SOL    HW188736   2.371   2.993  -0.008 -0.7908  1.1759 -1.9609
29386SOL    HW288737   2.264   2.890   0.024  0.4036  0.4926  0.0160
29387SOL     OW88738   1.714   0.256   1.513 -0.3970  0.0920  0.3023
29387SOL    HW188739   1.723   0.282   1.421  0.5343 -0.4341  0.2262
29387SOL    HW288740   1.648   0.186   1.511  0.6712 -0.9445 -0.1971
29388SOL     OW88741   9.029   1.113   6.641  0.1823 -0.0044 -0.5359
29388SOL    HW188742   8.986   1.048   6.696  1.1287  1.3785  1.9986
29388SOL    HW288743   9.119   1.083   6.632 -0.3139 -1.0549 -2.8415
29389SOL     OW88744   3.613   3.411   7.447 -0.0851  0.2863  0.5274
29389SOL    HW188745   3.606   3.424   7.353 -0.1797 -3.1941 -0.1074
29389SOL    HW288746   3.690   3.356   7.458 -1.6279 -1.7726  2.0459
29390SOL     OW88747   2.999   4.600   4.796 -0.7647  0.3801  0.4055
29390SOL    HW188748   3.066   4.665   4.820 -0.8317  1.9218 -3.0050
29390SOL    HW288749   3.048   4.520   4.780 -0.1929  0.5484  1.2318
29391SOL     OW88750   6.680   5.932   2.959  0.6690  0.1168 -0.1375
29391SOL    HW188751   6.683   5.847   2.915  0.5928  0.4675 -0.8355
29391SOL    HW288752   6.761   5.976   2.933 -0.1077  0.9608 -1.2666
29392SOL     OW88753   7.956   6.004   1.041  0.3172  0.1998 -0.5370
29392SOL    HW188754   7.940   6.091   1.078 -0.8899  1.0050 -2.7110
29392SOL    HW288755   8.047   6.006   1.012  1.2869 -0.4519  2.1831
29393SOL     OW88756   4.298   7.856   8.892 -0.1756 -0.0096 -0.5769
29393SOL    HW188757   4.212   7.852   8.850 -0.2902 -2.0701 -0.2413
29393SOL    HW288758   4.339   7.773   8.870  1.6154  0.7873 -0.4308
29394SOL     OW88759   2.669   6.058   7.562  0.1233  0.1476 -0.5136
29394SOL    HW188760   2.740   6.112   7.527  1.9906 -2.4312 -1.0261
29394SOL    HW288761   2.696   5.968   7.543 -3.4218 -0.9918 -0.9101
29395SOL     OW88762   9.535   4.754   4.247  0.3366 -0.5978  0.3412
29395SOL    HW188763   9.496   4.759   4.159  0.1917  0.3745  0.4447
29395SOL    HW288764   9.628   4.736   4.231 -0.0065 -2.2565  0.0678
29396SOL     OW88765   8.245   6.263   5.676 -0.1576  0.0619  0.1672
29396SOL    HW188766   8.185   6.297   5.742 -0.8004  1.3560 -1.0334
29396SOL    HW288767   8.327   6.248   5.723 -0.7973  0.3121  1.3861
29397SOL     OW88768   0.092   0.685   2.197  0.3385  0.2356 -0.0472
29397SOL    HW188769   0.186   0.691   2.218  0.2230 -0.6444  0.7946
29397SOL    HW288770   0.050   0.741   2.262  0.2010 -0.2235  0.2636
29398SOL     OW88771   6.042   6.990   0.243  0.4916  0.4058  0.0686
29398SOL    HW188772   6.117   6.958   0.292 -0.0947  0.1136  0.8031
29398SOL    HW288773   6.022   6.921   0.180  0.2366  0.0535  0.5362
29399SOL     OW88774   8.750   9.987   6.633  0.0941  0.1941  0.0923
29399SOL    HW188775   8.770   9.899   6.601  1.6627 -0.5386  2.7570
29399SOL    HW288776   8.660  10.004   6.605  0.3065 -1.5601 -1.8686
29400SOL     OW88777   0.049   0.419   7.960 -0.2337 -0.3403  0.5378
29400SOL    HW188778   0.020   0.453   8.044 -1.5365  0.6935 -0.2802
29400SOL    HW288779   0.135   0.461   7.946  0.4676 -1.3086  1.7678
29401SOL     OW88780   6.359   2.573   9.591 -0.4426 -0.6938  0.3164
29401SOL    HW188781   6.314   2.606   9.669  0.1555  1.0092 -0.0228
29401SOL    HW288782   6.452   2.583   9.610 -0.2943  0.5676 -0.9166
29402SOL     OW88783   1.037   9.319   5.129 -0.6116 -0.0980  0.0512
29402SOL    HW188784   1.004   9.242   5.083  0.0518 -1.0969  1.1882
29402SOL    HW288785   1.029   9.296   5.222  2.7993 -0.2569  0.4186
29403SOL     OW88786   6.067   7.165   4.346  0.2759  0.4175 -0.4035
29403SOL    HW188787   6.104   7.139   4.430  1.2424 -0.9456 -1.2017
29403SOL    HW288788   5.981   7.200   4.368  0.4585 -0.0087  1.1422
29404SOL     OW88789   3.349   4.529   8.876  0.7056 -0.0529 -0.3763
29404SOL    HW188790   3.266   4.483   8.865 -0.1749  1.3080  0.3658
29404SOL    HW288791   3.341   4.575   8.959  1.6531  1.2208 -0.9551
29405SOL     OW88792   7.223   2.468   4.163  0.3198  0.3178 -0.3727
29405SOL    HW188793   7.131   2.494   4.167 -0.3264 -1.5075 -1.9031
29405SOL    HW288794   7.271   2.551   4.154 -1.2200  1.2625 -0.2333
29406SOL     OW88795   3.572   3.674   5.323  0.0111 -0.0704 -0.4395
29406SOL    HW188796   3.667   3.671   5.331 -0.0392 -1.2383 -0.1870
29406SOL    HW288797   3.556   3.687   5.230  0.4153  0.1718 -0.4761
29407SOL     OW88798   2.296   0.868   4.828  0.3430 -0.1017  0.0819
29407SOL    HW188799   2.373   0.866   4.885 -0.8157  0.2509  1.7194
29407SOL    HW288800   2.332   0.862   4.739  2.3244  1.1829  0.7357
29408SOL     OW88801   9.143   7.580   1.276 -0.5884  0.3465  0.3900
29408SOL    HW188802   9.090   7.640   1.223 -0.2655 -1.9186 -2.8295
29408SOL    HW288803   9.092   7.565   1.355 -2.1863  2.3144 -0.1901
29409SOL     OW88804   0.454   3.247   3.401 -0.1048  0.5647  1.3617
29409SOL    HW188805   0.363   3.221   3.411 -1.1697  3.4118  0.1371
29409SOL    HW288806   0.454   3.342   3.414  2.1374  1.1273 -1.6168
29410SOL     OW88807   8.828   6.365   9.539  0.3243  0.2359 -0.2382
29410SOL    HW188808   8.916   6.390   9.568  1.4309 -1.1105 -2.1996
29410SOL    HW288809   8.809   6.422   9.465  0.0201 -0.2234 -0.5232
29411SOL     OW88810   9.735   1.913   1.189  0.3796  0.2986 -0.4400
29411SOL    HW188811   9.744   1.823   1.220  0.2956  0.1199 -0.9432
29411SOL    HW288812   9.813   1.958   1.224 -0.0621  0.2713  0.6262
29412SOL     OW88813   8.428   7.741   9.818 -0.4481  0.1642  0.1450
29412SOL    HW188814   8.351   7.797   9.806  0.1298  1.0156  0.2949
29412SOL    HW288815   8.411   7.693   9.899 -0.8674  0.2546  0.1150
29413SOL     OW88816   7.931   7.652   6.491  0.1656 -0.6970  0.4237
29413SOL    HW188817   7.937   7.663   6.396 -1.0879 -2.6978  0.0559
29413SOL    HW288818   7.838   7.668   6.510  0.5093  0.1905  1.4011
29414SOL     OW88819   1.276   7.429   9.752 -0.0581 -0.2709  0.7733
29414SOL    HW188820   1.294   7.470   9.668  0.4472  0.0674  1.0407
29414SOL    HW288821   1.182   7.410   9.750  0.1720 -1.4023 -0.3654
29415SOL     OW88822   6.825   7.436   8.247  0.2516  0.0701  0.1823
29415SOL    HW188823   6.753   7.476   8.198  0.3938 -0.1725 -0.2358
29415SOL    HW288824   6.785   7.407   8.329  0.0724  0.7341  0.3296
29416SOL     OW88825   7.922   0.275   5.839 -0.1062 -0.4001  0.6065
29416SOL    HW188826   7.927   0.299   5.931 -2.8995  0.1127  0.6897
29416SOL    HW288827   7.899   0.182   5.839  0.0865 -0.4488  0.4137
29417SOL     OW88828   0.896   4.018   1.825  0.1566 -0.9338  0.5546
29417SOL    HW188829   0.847   3.972   1.894 -0.3016  0.1337  0.9648
29417SOL    HW288830   0.882   4.111   1.844  1.1938 -0.6159 -0.1605
29418SOL     OW88831   2.106   5.323   3.447  0.5088 -0.3443 -0.3922
29418SOL    HW188832   2.088   5.375   3.369  0.4577 -0.5911 -0.5472
29418SOL    HW288833   2.196   5.291   3.434  0.6228 -0.1084 -0.1909
29419SOL     OW88834   3.923   1.582   7.567 -0.2510  0.1326 -0.1357
29419SOL    HW188835   3.829   1.592   7.582 -0.1420 -0.2349  0.8590
29419SOL    HW288836   3.930   1.516   7.498 -0.7017 -0.5693  0.4845
29420SOL     OW88837   6.447   7.591   9.853 -0.0045 -0.4436 -0.0112
29420SOL    HW188838   6.526   7.620   9.807  0.7354  0.4113  1.7168
29420SOL    HW288839   6.472   7.508   9.893  0.5181  0.4712  1.6593
29421SOL     OW88840   9.241   4.440   7.395 -0.6579  0.6326  0.5795
29421SOL    HW188841   9.298   4.433   7.472  1.6555  0.9572 -0.9705
29421SOL    HW288842   9.198   4.355   7.389  2.2942 -0.9794  0.0088
29422SOL     OW88843   2.316   5.322   8.902  0.1422  0.2679 -0.4325
29422SOL    HW188844   2.222   5.320   8.914  0.1715 -2.2221 -0.0583
29422SOL    HW288845   2.352   5.324   8.991  0.4102 -0.2222 -0.5207
29423SOL     OW88846   0.485   1.815   5.497 -0.1118 -1.0113  0.0942
29423SOL    HW188847   0.483   1.865   5.415 -0.2073  0.0234  0.7236
29423SOL    HW288848   0.528   1.733   5.473 -1.0191 -1.1323 -1.2204
29424SOL     OW88849   3.968   2.137   9.358  0.2142 -0.7410 -0.7597
29424SOL    HW188850   4.005   2.069   9.415  1.5379  1.2548  0.9361
29424SOL    HW288851   3.925   2.089   9.287 -0.3731 -3.3627  1.2069
29425SOL     OW88852   2.534   5.046   8.678  0.2842  0.1181 -0.3818
29425SOL    HW188853   2.589   4.969   8.669 -0.5491 -0.4586 -0.7050
29425SOL    HW288854   2.457   5.015   8.725 -0.4026  0.5663 -1.1689
29426SOL     OW88855   7.198   9.029   6.556  0.0672 -0.6869  0.0403
29426SOL    HW188856   7.117   8.988   6.525 -0.0382 -0.4171 -0.0502
29426SOL    HW288857   7.198   9.013   6.650 -0.1695 -0.5654  0.0640
29427SOL     OW88858   8.033   5.720   3.562 -0.2120 -0.4096  0.0627
29427SOL    HW188859   8.020   5.666   3.485 -2.4360 -1.4047  1.0601
29427SOL    HW288860   8.102   5.782   3.537 -0.4468 -1.0856 -2.4631
29428SOL     OW88861   1.041   2.536   4.622 -0.3850  0.4089  0.4203
29428SOL    HW188862   0.959   2.495   4.593 -2.4110  4.3159  0.0021
29428SOL    HW288863   1.042   2.621   4.579  2.9317  1.3534  2.0303
29429SOL     OW88864   8.407   3.320   2.381  0.5459 -0.2156 -0.9131
29429SOL    HW188865   8.371   3.237   2.412 -0.0667 -0.1548 -1.4402
29429SOL    HW288866   8.459   3.352   2.454  0.3939 -0.8269 -0.5268
29430SOL     OW88867   0.844   8.539   5.459 -0.2388 -0.1213 -0.3752
29430SOL    HW188868   0.901   8.568   5.531  0.9122 -0.2242 -1.2168
29430SOL    HW288869   0.903   8.492   5.399 -1.3905 -1.0163 -0.8369
29431SOL     OW88870   9.044   0.647   7.968  0.4679 -1.0964 -0.2692
29431SOL    HW188871   9.122   0.641   8.024  0.3824 -1.3756 -0.1739
29431SOL    HW288872   9.076   0.685   7.886  0.8180 -1.7203 -0.4352
29432SOL     OW88873   5.530   8.751   3.824 -0.2190 -0.1513 -0.1573
29432SOL    HW188874   5.592   8.729   3.894  2.4178 -0.6667 -2.4940
29432SOL    HW288875   5.584   8.793   3.757 -2.9017  1.7450 -1.2897
29433SOL     OW88876   9.347   3.992   6.849 -0.3244 -0.1058  0.2682
29433SOL    HW188877   9.392   3.983   6.765  0.0494  0.0693  0.4471
29433SOL    HW288878   9.265   3.944   6.838 -1.0266  1.2370 -0.7301
29434SOL     OW88879   1.826   5.497   0.205 -0.4334 -0.2914 -0.7174
29434SOL    HW188880   1.815   5.568   0.142  0.5783  1.0969  0.6033
29434SOL    HW288881   1.767   5.520   0.277  1.1282  0.1316  0.4606
29435SOL     OW88882   3.514   0.964   5.713  0.1111  0.7333 -0.2705
29435SOL    HW188883   3.484   0.967   5.623 -0.2800 -0.6389 -0.2022
29435SOL    HW288884   3.580   0.894   5.714  0.5164  1.1156  0.3856
29436SOL     OW88885   6.878   8.616   9.179 -0.1218  0.6824 -0.3353
29436SOL    HW188886   6.958   8.564   9.174 -0.4976  0.2106 -2.1420
29436SOL    HW288887   6.818   8.563   9.233 -0.1702 -0.3415 -1.3542
29437SOL     OW88888   1.613   6.331   4.881  0.1453  0.3271  0.3714
29437SOL    HW188889   1.684   6.370   4.933  0.1066  0.5824  0.2339
29437SOL    HW288890   1.538   6.330   4.941 -0.1190  1.3514  0.0813
29438SOL     OW88891   3.813   0.147   5.488  0.1657  0.2112 -0.2280
29438SOL    HW188892   3.890   0.139   5.431  0.1786 -2.0106  0.0483
29438SOL    HW288893   3.773   0.060   5.488 -2.4210  1.3112 -0.4126
29439SOL     OW88894   4.590   5.560   1.563  0.2446 -0.1063  0.3530
29439SOL    HW188895   4.617   5.607   1.642  0.7505 -2.1169  1.4694
29439SOL    HW288896   4.626   5.611   1.491  3.5905 -0.4064  1.6153
29440SOL     OW88897   0.513   3.994   8.079 -0.4257 -0.0869  0.0868
29440SOL    HW188898   0.608   3.998   8.086 -0.3905  0.8065 -0.7087
29440SOL    HW288899   0.490   4.066   8.020 -1.5910 -0.3187  0.2301
29441SOL     OW88900   3.382   7.648   6.399 -0.0551  0.1261  0.2249
29441SOL    HW188901   3.374   7.640   6.304 -0.0352  0.3090  0.2060
29441SOL    HW288902   3.298   7.616   6.433 -1.0019  2.2106  0.0132
29442SOL     OW88903   6.575   9.703   5.390 -0.3455  0.2664  0.1748
29442SOL    HW188904   6.654   9.667   5.431  0.3721  3.2251  1.6325
29442SOL    HW288905   6.503   9.656   5.433  0.5401 -0.0844  1.3454
29443SOL     OW88906   8.924   0.620   4.876 -0.1020 -0.0418  0.0670
29443SOL    HW188907   8.884   0.541   4.912  3.0464 -1.3737  1.0080
29443SOL    HW288908   8.935   0.678   4.951  0.2965  0.0168 -0.0333
29444SOL     OW88909   4.414   7.039   2.552 -0.7041  0.6180  0.2997
29444SOL    HW188910   4.442   6.983   2.480 -1.2886  0.6006  0.0779
29444SOL    HW288911   4.418   6.983   2.630  0.9403  0.9239  0.4826
29445SOL     OW88912   8.986   8.786   6.232  0.0419  0.4412  0.5484
29445SOL    HW188913   9.073   8.819   6.210  0.3242  0.4206  1.5632
29445SOL    HW288914   8.938   8.789   6.149  0.7924  1.1091  0.1120
29446SOL     OW88915   3.724   7.457   8.534 -0.1417  0.1223 -0.5008
29446SOL    HW188916   3.810   7.451   8.576 -0.1922  1.7909 -0.0679
29446SOL    HW288917   3.695   7.366   8.524  0.5811 -0.4051  1.6289
29447SOL     OW88918   2.026   4.504   9.914  0.3197  0.2889  0.0497
29447SOL    HW188919   2.070   4.572   9.965 -1.8195  2.1500 -0.4268
29447SOL    HW288920   1.989   4.445   9.979 -0.2289  1.2109  0.5937
29448SOL     OW88921   3.867   0.950   5.476  0.3122  0.0035  0.7541
29448SOL    HW188922   3.853   1.041   5.451 -1.4412 -0.4423 -0.0901
29448SOL    HW288923   3.939   0.952   5.538  0.3435  1.9534  0.6941
29449SOL     OW88924   2.283   0.232   0.622  0.1308 -0.6357  0.2707
29449SOL    HW188925   2.319   0.226   0.533 -2.2588 -0.4542 -0.8142
29449SOL    HW288926   2.322   0.311   0.659 -0.1230  0.2727 -1.3070
29450SOL     OW88927   1.690   2.687   3.843 -0.2983 -0.2697 -0.4655
29450SOL    HW188928   1.621   2.710   3.906 -0.6028 -0.4715 -0.7187
29450SOL    HW288929   1.655   2.716   3.758 -0.2983 -0.8406 -0.6634
29451SOL     OW88930   8.266   3.673   5.500 -0.1953 -0.5276  0.0256
29451SOL    HW188931   8.227   3.758   5.520 -0.3475 -0.5725 -0.0755
29451SOL    HW288932   8.218   3.610   5.555 -2.2029 -0.9851 -2.0694
29452SOL     OW88933   9.847   5.698   9.475  0.1192  0.1179 -0.4109
29452SOL    HW188934   9.893   5.776   9.443 -0.2022  0.8697  0.9228
29452SOL    HW288935   9.912   5.653   9.530 -0.0892  0.0963 -0.1820
29453SOL     OW88936   8.403   5.239   3.778 -0.3407  0.1663 -0.0285
29453SOL    HW188937   8.475   5.204   3.830 -0.6906 -2.7419 -1.2903
29453SOL    HW288938   8.431   5.226   3.687 -0.2089  4.0617 -0.7056
29454SOL     OW88939   1.812   7.378   7.989 -0.2893 -0.2582 -0.3238
29454SOL    HW188940   1.838   7.347   7.903 -0.0798  0.0976 -0.3925
29454SOL    HW288941   1.817   7.474   7.982  1.0811 -0.2459  0.4870
29455SOL     OW88942   1.461   7.896   4.693 -0.6159  0.0373 -0.8550
29455SOL    HW188943   1.489   7.931   4.609  0.9163  0.7701 -0.0902
29455SOL    HW288944   1.472   7.969   4.754  0.6229 -1.1136  0.3954
29456SOL     OW88945   7.260   1.655   1.781  0.4628 -0.7809 -0.0976
29456SOL    HW188946   7.186   1.668   1.840  0.0346 -0.1592 -0.7775
29456SOL    HW288947   7.222   1.627   1.698  1.0255 -1.0096 -0.2888
29457SOL     OW88948   0.694   2.278   6.475 -0.0733 -0.3858  0.7190
29457SOL    HW188949   0.676   2.202   6.530 -1.0374 -0.7763 -0.1203
29457SOL    HW288950   0.788   2.293   6.485 -0.0812 -0.9891  1.7744
29458SOL     OW88951   8.195   5.977   1.346  0.6782  0.1127 -0.6352
29458SOL    HW188952   8.244   6.002   1.268 -0.2815 -0.2831 -1.3936
29458SOL    HW288953   8.183   6.058   1.395 -0.4493  0.7561 -1.9228
29459SOL     OW88954   6.440   6.939   4.433 -0.5437  0.3697 -0.5006
29459SOL    HW188955   6.436   6.845   4.450  2.1926  0.4084  0.8746
29459SOL    HW288956   6.362   6.974   4.476 -0.5099 -1.0565  0.8078
29460SOL     OW88957   7.285   7.957   6.754  0.1156 -0.2897 -0.0689
29460SOL    HW188958   7.278   8.045   6.792  1.1482  0.1565 -0.8504
29460SOL    HW288959   7.246   7.900   6.820 -0.7310  0.7615  0.3878
29461SOL     OW88960   2.966   5.263   6.055 -0.1453 -0.0960 -1.0524
29461SOL    HW188961   2.969   5.168   6.064 -1.7809 -0.0404  0.9200
29461SOL    HW288962   2.982   5.295   6.144 -0.4417  1.4351 -1.5265
29462SOL     OW88963   6.401   1.910   6.124  0.4031  0.5043 -0.2591
29462SOL    HW188964   6.383   1.827   6.167  1.4337  0.1565 -0.4811
29462SOL    HW288965   6.369   1.976   6.185 -1.2645 -0.0508 -0.4700
29463SOL     OW88966   4.567   8.110   6.147  0.2251 -0.2168  0.2900
29463SOL    HW188967   4.496   8.047   6.159  1.4065 -1.6033  0.3294
29463SOL    HW288968   4.544   8.184   6.202 -2.1380  0.2288 -1.1810
29464SOL     OW88969   0.373   4.364   2.156  0.0696  0.1918 -0.0493
29464SOL    HW188970   0.298   4.304   2.149  0.5711 -0.3524 -0.9539
29464SOL    HW288971   0.336   4.445   2.191 -0.8182 -0.2868  0.1561
29465SOL     OW88972   2.181   7.384   4.697 -0.4838  0.0645  0.2000
29465SOL    HW188973   2.207   7.301   4.658  0.0502 -0.4817  1.6420
29465SOL    HW288974   2.110   7.416   4.640  0.5328 -0.4474 -1.4217
29466SOL     OW88975   9.572   8.353   5.688  0.3789  0.5089  0.1693
29466SOL    HW188976   9.502   8.347   5.623  0.3552 -2.1776  0.3194
29466SOL    HW288977   9.545   8.292   5.757  2.8386 -0.6627  0.2116
29467SOL     OW88978   7.197   8.043   4.314 -0.1967  0.1503  0.1705
29467SOL    HW188979   7.108   8.047   4.348 -0.9906  0.9351 -1.8482
29467SOL    HW288980   7.194   7.978   4.244  1.1725 -0.8364  0.9904
29468SOL     OW88981   6.576   9.320   1.887  0.3671 -0.6794 -0.6870
29468SOL    HW188982   6.565   9.395   1.828 -0.1378 -0.4299 -0.2824
29468SOL    HW288983   6.603   9.358   1.970 -0.0280 -0.9317 -0.4398
29469SOL     OW88984   5.756   4.761   1.077  0.2217  0.8361 -0.5068
29469SOL    HW188985   5.672   4.760   1.032  0.3399 -0.7831 -0.7681
29469SOL    HW288986   5.773   4.853   1.096 -0.5963  1.4058 -2.3393
29470SOL     OW88987   2.136   9.669   5.835  0.7602  0.0899 -0.4222
29470SOL    HW188988   2.109   9.686   5.745 -1.7053  0.0852  0.2443
29470SOL    HW288989   2.118   9.577   5.849  1.3128  0.0455  0.0455
29471SOL     OW88990   0.986   4.372   3.734  0.3433  0.3953 -0.5866
29471SOL    HW188991   0.914   4.430   3.759 -2.8895 -1.7094 -4.0018
29471SOL    HW288992   1.000   4.390   3.641  0.3432 -3.0026 -1.3736
29472SOL     OW88993   7.818   3.020   0.578 -0.0733 -0.2692 -0.2095
29472SOL    HW188994   7.893   2.987   0.626  0.6460 -0.6117 -1.5309
29472SOL    HW288995   7.855   3.069   0.505 -1.0960 -1.4577 -1.5926
29473SOL     OW88996   3.854   2.070   8.534 -0.1903  0.4149  0.2340
29473SOL    HW188997   3.931   2.014   8.540 -0.4328  0.2057  1.9077
29473SOL    HW288998   3.877   2.149   8.583 -0.2930  1.2781 -1.0669
29474SOL     OW88999   5.538   9.553   7.206  0.0726 -1.0329  0.1998
29474SOL    HW189000   5.581   9.614   7.146 -3.2218 -0.5479 -1.9765
29474SOL    HW289001   5.553   9.591   7.293  0.4773  1.3884 -0.8235
29475SOL     OW89002   5.931   5.113   2.010 -0.1715  0.1727  0.2601
29475SOL    HW189003   5.870   5.062   1.956  0.2705 -0.1552  0.0557
29475SOL    HW289004   5.879   5.185   2.045 -0.8007 -0.4024  0.5240
29476SOL     OW89005   5.439  10.013   6.129 -0.0591 -0.5758 -0.1021
29476SOL    HW189006   5.518   9.989   6.177 -0.6871 -1.7140  0.4147
29476SOL    HW289007   5.425   9.940   6.068 -0.6993 -0.3933 -0.1809
29477SOL     OW89008   5.951   2.824   7.798  1.1536 -0.1572 -0.1732
29477SOL    HW189009   5.989   2.736   7.804 -0.0009 -0.6809 -0.2050
29477SOL    HW289010   5.985   2.869   7.875  1.5086 -0.7366  0.0204
29478SOL     OW89011   6.338   1.062   6.134  0.8692 -0.0255  0.5409
29478SOL    HW189012   6.423   1.104   6.151  1.3606 -0.2582 -1.1935
29478SOL    HW289013   6.353   0.969   6.153  2.0420 -0.6666 -2.8253
29479SOL     OW89014   2.283   7.158   4.548  0.1595  0.2178 -0.4684
29479SOL    HW189015   2.214   7.091   4.553  0.9735 -0.7574 -1.6254
29479SOL    HW289016   2.283   7.184   4.456  0.3505  1.2941 -0.1714
29480SOL     OW89017   4.316   2.979   1.042 -0.0420 -0.4755 -0.5305
29480SOL    HW189018   4.233   2.993   1.088  0.1726 -0.9673  0.0118
29480SOL    HW289019   4.365   3.060   1.058  0.1175 -0.7323  0.2919
29481SOL     OW89020   3.759   8.813   1.019 -0.2707 -0.4219  0.5769
29481SOL    HW189021   3.799   8.781   1.100 -0.0238  0.6669  0.8980
29481SOL    HW289022   3.777   8.745   0.954  0.4343 -0.8194  1.1845
29482SOL     OW89023   5.144   3.580   6.944  0.3353  0.2258  0.2036
29482SOL    HW189024   5.056   3.575   6.906  0.2920 -1.1043  0.4493
29482SOL    HW289025   5.188   3.500   6.916  1.1831  0.4577  0.8104
29483SOL     OW89026  -0.002   6.543   9.056  0.5217 -0.7628  0.3132
29483SOL    HW189027  -0.009   6.534   9.151 -0.0550 -0.6201  0.2880
29483SOL    HW289028   0.025   6.633   9.042  0.6163 -0.7864  0.3419
29484SOL     OW89029   2.490   4.306   9.563 -0.0785  0.3514 -0.4311
29484SOL    HW189030   2.474   4.396   9.534 -3.0734 -0.3449 -1.3015
29484SOL    HW289031   2.439   4.298   9.644 -0.2420 -0.6758 -0.6211
29485SOL     OW89032   3.057   8.632   2.535 -0.4773  0.1269 -0.4824
29485SOL    HW189033   3.106   8.599   2.609 -1.2414 -0.5447 -0.2597
29485SOL    HW289034   3.122   8.645   2.466  0.2779  1.0087  0.3721
29486SOL     OW89035   6.599   6.900   7.053 -0.5932  0.0743 -0.2101
29486SOL    HW189036   6.511   6.916   7.088 -1.6214  0.8512 -2.8858
29486SOL    HW289037   6.585   6.884   6.960  2.1763  0.8048 -0.8468
29487SOL     OW89038   8.218   8.978   1.844  0.2083 -0.7655  0.3094
29487SOL    HW189039   8.183   8.983   1.933  0.7022  0.7586  0.4438
29487SOL    HW289040   8.144   8.946   1.791 -0.4682 -0.4825  1.0655
29488SOL     OW89041   8.549   6.111   3.721 -0.2295  0.2778  0.2408
29488SOL    HW189042   8.574   6.201   3.700  2.9696 -0.7081 -0.7214
29488SOL    HW289043   8.476   6.092   3.663 -1.5261  2.4302  1.0284
29489SOL     OW89044   6.117   9.079   0.040  0.0988  0.2282  0.3866
29489SOL    HW189045   6.125   9.157   0.095  1.9026 -0.0599  0.6200
29489SOL    HW289046   6.184   9.091  -0.028 -1.7745  0.3647 -1.5424
29490SOL     OW89047   8.055   9.078   4.235  0.3693 -0.1268 -0.0015
29490SOL    HW189048   8.096   9.004   4.191 -0.5338  0.7861 -2.6502
29490SOL    HW289049   7.962   9.055   4.239  0.1497  0.6415 -0.4375
29491SOL     OW89050   6.427   5.847   2.992 -0.9950  0.6021 -0.3184
29491SOL    HW189051   6.372   5.899   3.052 -1.0274  0.8815 -0.5863
29491SOL    HW289052   6.510   5.895   2.988 -0.9192  0.4694 -0.3333
29492SOL     OW89053   1.855   4.031   7.802  0.0205  0.2022 -0.7745
29492SOL    HW189054   1.900   3.946   7.803 -0.9569 -0.3308 -1.0452
29492SOL    HW289055   1.923   4.094   7.828  0.3513 -0.8609  1.1879
29493SOL     OW89056   0.318   9.818   0.903 -0.4937  0.3058 -0.0914
29493SOL    HW189057   0.268   9.741   0.874 -0.4068  0.3312 -0.3126
29493SOL    HW289058   0.255   9.889   0.905 -0.2505  0.5794 -1.4036
29494SOL     OW89059   7.065   5.156   4.615  0.3389 -0.3562 -0.1417
29494SOL    HW189060   7.152   5.124   4.638  0.0494 -0.1259  1.3146
29494SOL    HW289061   7.006   5.083   4.633  0.0886 -0.1366 -0.0569
29495SOL     OW89062   3.607   6.324   9.656  0.4896  0.5923  0.0182
29495SOL    HW189063   3.620   6.373   9.575  3.1276  1.4433  0.8337
29495SOL    HW289064   3.516   6.340   9.680 -0.5064 -0.0295 -2.9185
29496SOL     OW89065   8.906   6.055   9.914  0.1922 -0.2617 -0.4040
29496SOL    HW189066   8.987   6.103   9.933 -0.4310 -0.2632  2.8886
29496SOL    HW289067   8.840   6.124   9.905  0.1562 -0.3461 -0.8078
29497SOL     OW89068   8.280   8.238   1.397  0.0609  0.1596 -0.4727
29497SOL    HW189069   8.195   8.281   1.389  1.0394  1.8667 -2.5344
29497SOL    HW289070   8.300   8.240   1.491 -1.3113  1.4625 -0.1909
29498SOL     OW89071   0.692   3.248   6.249 -0.7227 -0.4865 -0.0908
29498SOL    HW189072   0.630   3.214   6.185 -2.3441  0.3509  0.9778
29498SOL    HW289073   0.640   3.304   6.306  1.1798  0.8806  0.3934
29499SOL     OW89074   8.888   5.885   4.007 -0.0283  0.2173 -0.0369
29499SOL    HW189075   8.930   5.961   4.046 -0.1836 -0.1562  0.8766
29499SOL    HW289076   8.840   5.844   4.079  0.0506 -0.7490 -0.5198
29500SOL     OW89077   5.848   7.324   5.540 -0.6041 -0.0350  0.6645
29500SOL    HW189078   5.895   7.290   5.616 -0.6571  0.4220  0.9046
29500SOL    HW289079   5.902   7.398   5.509  0.3528 -1.2734 -0.8085
29501SOL     OW89080   8.837   3.571   7.709  0.1647 -0.1355 -0.6658
29501SOL    HW189081   8.874   3.658   7.696 -0.4474  0.4621  1.2430
29501SOL    HW289082   8.902   3.524   7.760 -0.9176  0.3930  1.3101
29502SOL     OW89083   0.589   7.298   6.905 -0.7328 -0.1109 -0.8405
29502SOL    HW189084   0.629   7.373   6.950 -0.0828 -0.9020 -0.0599
29502SOL    HW289085   0.661   7.259   6.855 -0.6812 -1.1335  0.0071
29503SOL     OW89086   5.241   7.481   8.547  0.1526  0.0009 -0.3463
29503SOL    HW189087   5.169   7.453   8.490  1.1548  2.1045 -2.8569
29503SOL    HW289088   5.312   7.419   8.529  0.3052  0.3740 -1.0460
29504SOL     OW89089   2.506   2.483   0.935 -0.7346 -0.1637 -0.1900
29504SOL    HW189090   2.505   2.568   0.891  2.7220  0.3180  0.4351
29504SOL    HW289091   2.531   2.421   0.866  3.1123  0.3726  0.5048
29505SOL     OW89092   8.495   4.163   7.560 -0.2380 -0.0805 -0.0544
29505SOL    HW189093   8.444   4.201   7.632  1.0799 -0.5766  1.1701
29505SOL    HW289094   8.581   4.146   7.597  1.1305  1.4427 -2.2579
29506SOL     OW89095   6.623   2.487   0.143  0.0707 -0.5640 -0.0934
29506SOL    HW189096   6.642   2.543   0.068 -1.2421 -0.4115 -0.3218
29506SOL    HW289097   6.603   2.548   0.214  0.5779 -0.7218  0.1910
29507SOL     OW89098   1.878   2.879   4.461 -0.6838 -0.3273  0.1376
29507SOL    HW189099   1.938   2.806   4.445  2.0946  1.9990 -0.9594
29507SOL    HW289100   1.817   2.876   4.387  1.8228  0.5813 -2.1491
29508SOL     OW89101   2.653   0.341   3.198 -0.2135 -0.2189 -0.1649
29508SOL    HW189102   2.616   0.359   3.284  0.5207  2.1849 -0.2579
29508SOL    HW289103   2.577   0.320   3.143 -1.1915  1.9587  0.2414
29509SOL     OW89104   4.141   9.794   8.155 -0.3579 -0.0193 -0.2304
29509SOL    HW189105   4.160   9.868   8.212  0.0348  0.0103 -0.3963
29509SOL    HW289106   4.046   9.783   8.160 -0.2887 -0.2674  0.7440
29510SOL     OW89107   5.136   9.440   6.656  0.0639  0.3656  0.1055
29510SOL    HW189108   5.191   9.365   6.633 -0.0471  0.4826 -0.5463
29510SOL    HW289109   5.197   9.511   6.671  0.1325  0.3140  0.0707
29511SOL     OW89110   5.652   6.130   4.513 -0.1631 -0.4410 -0.4055
29511SOL    HW189111   5.694   6.205   4.557 -0.9308  0.0600 -0.4958
29511SOL    HW289112   5.707   6.055   4.534  0.4687  0.1083 -0.0774
29512SOL     OW89113   6.778   2.260   3.603 -0.2367  0.3831 -0.0544
29512SOL    HW189114   6.748   2.240   3.691  0.7093  0.1463  0.2289
29512SOL    HW289115   6.784   2.355   3.601 -2.4567  0.5596 -0.6303
29513SOL     OW89116   2.146   8.444   8.977  0.1830  0.2037  0.0524
29513SOL    HW189117   2.142   8.348   8.970  0.3842  0.2115 -0.1826
29513SOL    HW289118   2.209   8.460   9.047 -0.4299  0.1554  0.6245
29514SOL     OW89119   3.555   4.938   0.289 -0.2783  0.3339  0.0755
29514SOL    HW189120   3.507   4.856   0.296  2.8499 -1.5874  0.7294
29514SOL    HW289121   3.633   4.926   0.343  0.6630  3.5154 -0.3261
29515SOL     OW89122   9.736   0.098   3.765  0.2544  0.3916  0.1602
29515SOL    HW189123   9.799   0.167   3.741  1.8402 -0.5964  1.2536
29515SOL    HW289124   9.716   0.055   3.682  1.5145  0.3692 -0.1667
29516SOL     OW89125   2.533   7.189   9.795 -0.1429 -0.2460  0.1654
29516SOL    HW189126   2.626   7.208   9.782  0.0800 -1.5319 -0.2658
29516SOL    HW289127   2.500   7.170   9.707  0.2857 -4.4041  0.7284
29517SOL     OW89128   7.245   4.180   0.955  0.1849 -0.1662  0.1269
29517SOL    HW189129   7.189   4.103   0.944  0.8914 -0.5394 -0.9508
29517SOL    HW289130   7.256   4.188   1.050 -0.4410 -0.9887  0.2777
29518SOL     OW89131   8.865   9.192   5.198  0.2049 -0.3010  0.3556
29518SOL    HW189132   8.896   9.116   5.148  0.5284 -0.5930  0.9892
29518SOL    HW289133   8.794   9.227   5.145  0.7907 -0.3732 -0.5079
29519SOL     OW89134   6.484   4.035   2.763  0.1728  0.9743 -0.1226
29519SOL    HW189135   6.464   4.128   2.766  1.4818  1.4476 -2.7557
29519SOL    HW289136   6.416   3.997   2.707 -0.1856  0.3875  0.6910
29520SOL     OW89137   8.121   3.831   3.599  0.5805 -0.2728  0.2768
29520SOL    HW189138   8.086   3.798   3.682 -1.5781  0.9739 -0.0631
29520SOL    HW289139   8.046   3.826   3.538  2.0078 -0.8495 -1.5376
29521SOL     OW89140   6.488   8.495   5.953 -0.1909  0.1805 -0.5274
29521SOL    HW189141   6.582   8.479   5.950  0.0669  0.7904  1.8972
29521SOL    HW289142   6.455   8.430   6.015 -1.0132  1.2580  0.1968
29522SOL     OW89143   9.807   2.629   6.155  0.4597 -0.3446  0.0663
29522SOL    HW189144   9.817   2.687   6.230  0.5916 -1.4992  0.9845
29522SOL    HW289145   9.750   2.559   6.187  1.7925 -1.6865 -0.3755
29523SOL     OW89146   9.205   2.303   4.072 -0.5735 -0.1276  0.6239
29523SOL    HW189147   9.193   2.217   4.033 -2.7243  0.0137  0.8787
29523SOL    HW289148   9.117   2.340   4.079  0.2615  2.0572  0.6303
29524SOL     OW89149   3.860   7.945   0.100  0.1422  0.2734  0.3201
29524SOL    HW189150   3.775   7.962   0.059 -0.3965 -1.4983  0.5928
29524SOL    HW289151   3.850   7.979   0.189 -0.9057 -1.3320  0.8679
29525SOL     OW89152   1.986   8.475   2.181 -1.1184 -1.0560 -0.3310
29525SOL    HW189153   1.950   8.562   2.161  0.7199 -0.5172 -1.5686
29525SOL    HW289154   1.925   8.438   2.245 -1.0788  1.7963  1.5501
29526SOL     OW89155   6.283   6.131   2.531 -0.3303  0.0393  0.5537
29526SOL    HW189156   6.313   6.218   2.560 -0.7240  0.1565  0.6152
29526SOL    HW289157   6.271   6.082   2.612  1.1437 -0.4999  0.4691
29527SOL     OW89158   1.961   7.988   4.415  0.1244  0.3402 -0.1937
29527SOL    HW189159   2.021   7.972   4.489  1.6676 -0.2782 -1.5223
29527SOL    HW289160   2.016   7.980   4.337 -1.6607 -0.0523 -1.4839
29528SOL     OW89161   8.301   6.940   2.350 -0.1743 -0.2162  0.3668
29528SOL    HW189162   8.349   6.883   2.290 -0.1402  0.3538 -0.1633
29528SOL    HW289163   8.217   6.955   2.305  0.0275  0.5818  0.2388
29529SOL     OW89164  10.013   1.167   4.320 -0.5065 -0.2414 -0.5158
29529SOL    HW189165   9.962   1.092   4.351  0.6832 -1.3766 -1.2172
29529SOL    HW289166   9.950   1.239   4.319 -2.0708 -1.5431 -1.2017
29530SOL     OW89167   1.303   0.949   3.628  0.5021  0.2454 -0.3835
29530SOL    HW189168   1.246   1.026   3.634  2.1617  1.4768  0.4064
29530SOL    HW289169   1.319   0.938   3.534  0.6866  1.2020 -0.4683
29531SOL     OW89170   9.181   7.800   5.335 -0.2277 -0.2392  0.3180
29531SOL    HW189171   9.132   7.797   5.417  3.3250 -1.3076  2.6769
29531SOL    HW289172   9.253   7.862   5.353  1.7837 -1.9896 -1.2152
29532SOL     OW89173   8.914   8.733   4.616 -0.2227 -0.5743 -0.5852
29532SOL    HW189174   8.830   8.724   4.572  0.5974  2.1387 -2.9672
29532SOL    HW289175   8.979   8.723   4.546  1.2671  1.0704  0.4729
29533SOL     OW89176   6.178   8.815   4.051 -0.4571 -0.6810 -0.2493
29533SOL    HW189177   6.090   8.813   4.087 -0.8661 -1.3733 -1.2550
29533SOL    HW289178   6.230   8.860   4.117 -1.5496 -0.3106  0.3756
29534SOL     OW89179   3.468   3.006   4.579 -0.3660 -0.1734  0.1613
29534SOL    HW189180   3.542   2.960   4.539 -0.6647 -0.6720  0.1631
29534SOL    HW289181   3.476   3.096   4.550  0.2445 -0.2236  0.1639
29535SOL     OW89182   9.331   1.810   5.849 -0.0231 -0.0006 -0.1229
29535SOL    HW189183   9.250   1.764   5.826 -0.5267  0.7205  0.1600
29535SOL    HW289184   9.365   1.762   5.924  0.0383 -0.5503 -0.4889
29536SOL     OW89185   7.581   6.113   0.354 -0.4711  0.2298  0.6311
29536SOL    HW189186   7.625   6.125   0.438 -0.9653  2.1663  0.6653
29536SOL    HW289187   7.610   6.188   0.301 -1.1979 -0.2341 -0.4647
29537SOL     OW89188   7.951   0.637   4.824 -0.6488  0.4062 -0.1739
29537SOL    HW189189   7.927   0.723   4.788  1.9515  1.4638  0.3444
29537SOL    HW289190   7.923   0.642   4.916 -3.8653 -0.8471 -0.9461
29538SOL     OW89191   6.572   0.291   2.712  0.4134  0.4275 -0.0367
29538SOL    HW189192   6.533   0.379   2.711  0.1021  0.2926  0.2510
29538SOL    HW289193   6.564   0.262   2.802 -0.6336 -0.4057 -0.3863
29539SOL     OW89194   5.817   5.979   3.093 -0.3184 -0.1873 -0.0287
29539SOL    HW189195   5.856   5.935   3.168 -0.9820  0.1080  0.5043
29539SOL    HW289196   5.732   5.937   3.082 -0.5476  0.2946 -0.1224
29540SOL     OW89197   7.796   5.196   4.998 -0.9646  0.2528 -0.3511
29540SOL    HW189198   7.733   5.202   5.070 -1.8674 -0.1929 -1.0846
29540SOL    HW289199   7.744   5.209   4.919 -0.2153 -0.5700 -1.0030
29541SOL     OW89200   2.192   6.852   9.838 -0.3676 -0.1970  0.1103
29541SOL    HW189201   2.130   6.796   9.884 -0.0841 -0.2465  0.4407
29541SOL    HW289202   2.278   6.816   9.862 -0.2349 -0.5632 -0.8994
29542SOL     OW89203   8.287   0.346   8.044  0.2854 -0.1555 -0.3978
29542SOL    HW189204   8.343   0.268   8.039 -2.1517 -2.1144  0.4156
29542SOL    HW289205   8.248   0.341   8.131 -0.2675  1.7878 -0.5002
29543SOL     OW89206   0.870   9.652   2.034 -0.5375 -0.7241 -0.6475
29543SOL    HW189207   0.826   9.737   2.040  1.2373  0.1858  0.1898
29543SOL    HW289208   0.860   9.625   1.943  1.3377  1.8121 -1.7168
29544SOL     OW89209   9.679   7.128   8.164  0.2904 -0.0647  0.0999
29544SOL    HW189210   9.767   7.112   8.198  1.3356 -1.5018 -2.9251
29544SOL    HW289211   9.638   7.041   8.164  0.5269 -0.2526 -2.5049
29545SOL     OW89212   4.479   1.985   0.996 -0.3632 -0.7645  0.5303
29545SOL    HW189213   4.446   1.915   0.939  1.2060 -1.0063 -0.1612
29545SOL    HW289214   4.507   2.054   0.935 -0.6043 -0.1363  1.1286
29546SOL     OW89215   0.373   9.236   2.286  0.3011 -0.5123 -0.8794
29546SOL    HW189216   0.287   9.221   2.247  0.5559 -2.6544 -0.7385
29546SOL    HW289217   0.389   9.157   2.339  1.0664  1.1437  1.5269
29547SOL     OW89218   8.431   6.110   8.370  0.9247  0.6678 -0.7037
29547SOL    HW189219   8.376   6.084   8.295 -0.3604 -1.1327  0.7673
29547SOL    HW289220   8.423   6.206   8.373 -1.7405  0.5258 -0.9083
29548SOL     OW89221   7.540   2.693   4.495  0.1572 -0.0043  0.1043
29548SOL    HW189222   7.492   2.775   4.501 -0.6604 -0.3023 -1.6627
29548SOL    HW289223   7.519   2.646   4.575 -1.9426  0.1985 -0.2778
29549SOL     OW89224   5.127   5.909   8.452 -0.4561  0.7452  0.0985
29549SOL    HW189225   5.050   5.962   8.472  0.0327  1.2400  0.6883
29549SOL    HW289226   5.092   5.830   8.410 -1.2245  1.3171 -0.3581
29550SOL     OW89227   1.440   7.323   9.195 -0.4900 -0.6132  0.0223
29550SOL    HW189228   1.367   7.350   9.250 -0.4712  0.6147 -0.5392
29550SOL    HW289229   1.512   7.306   9.257 -1.0409 -1.1792  0.5182
29551SOL     OW89230   2.287   2.671   3.432 -0.6191  0.0871  0.0430
29551SOL    HW189231   2.252   2.723   3.505 -3.0502 -0.0745 -0.8989
29551SOL    HW289232   2.260   2.719   3.354 -0.2521 -1.0138 -0.7856
29552SOL     OW89233   5.149   1.625   5.420  0.1942  0.1186 -0.3087
29552SOL    HW189234   5.195   1.700   5.381 -1.2927  0.6572 -1.1201
29552SOL    HW289235   5.077   1.664   5.469 -1.0140 -0.7878 -1.2989
29553SOL     OW89236   1.710   8.477   8.756 -0.5069 -0.6491  0.5912
29553SOL    HW189237   1.667   8.559   8.730 -0.2547 -0.8056 -0.3336
29553SOL    HW289238   1.763   8.502   8.832 -0.2662  0.0974  0.1917
29554SOL     OW89239   4.264   1.858   2.697 -0.5542  0.1057 -0.1542
29554SOL    HW189240   4.317   1.791   2.654 -1.1797 -1.2736  1.1377
29554SOL    HW289241   4.259   1.929   2.633  1.2842 -0.4814 -1.0267
29555SOL     OW89242   8.080   3.281   2.064 -0.3509 -0.6872 -0.0680
29555SOL    HW189243   8.050   3.349   2.125 -1.9877 -0.6986 -0.8176
29555SOL    HW289244   8.171   3.304   2.046 -0.1162 -0.1251  1.6135
29556SOL     OW89245   3.802   1.024   7.986  0.1405  0.0443  0.3957
29556SOL    HW189246   3.892   1.051   8.004  0.1827  0.6543 -0.6726
29556SOL    HW289247   3.748   1.080   8.041  0.3421  0.7796 -0.1472
29557SOL     OW89248   6.159   9.102   6.750 -0.0166  0.2006 -0.5074
29557SOL    HW189249   6.142   9.192   6.778  0.0841 -0.1580  0.7481
29557SOL    HW289250   6.250   9.086   6.775 -0.3745 -0.6217  0.3387
29558SOL     OW89251   9.854   7.660   2.149  0.1231  0.0707  0.3874
29558SOL    HW189252   9.811   7.612   2.078  1.2063  0.7475 -0.7653
29558SOL    HW289253   9.891   7.593   2.205  0.7155 -0.4854 -0.6306
29559SOL     OW89254   5.407   5.651   5.449 -0.5444  0.0967  0.2311
29559SOL    HW189255   5.330   5.706   5.467 -1.3772 -0.6473 -0.8760
29559SOL    HW289256   5.424   5.607   5.532 -0.3760  1.3786  0.9035
29560SOL     OW89257   4.939   0.559   6.558  0.4008 -0.2320 -0.3009
29560SOL    HW189258   4.893   0.491   6.510  0.0944 -0.7675  0.7159
29560SOL    HW289259   5.028   0.558   6.523  1.1546 -2.9346  1.3772
29561SOL     OW89260   1.733   5.993   3.443 -0.0461 -0.1323  0.2640
29561SOL    HW189261   1.819   5.955   3.426  1.2748  1.5943  2.5159
29561SOL    HW289262   1.694   5.936   3.509 -0.1313 -0.2791  0.0860
29562SOL     OW89263   0.587   2.557   5.164  0.2494  0.1669  0.1705
29562SOL    HW189264   0.673   2.598   5.158  0.1738  0.5729  1.4458
29562SOL    HW289265   0.537   2.616   5.221 -1.6197  1.1577 -2.3419
29563SOL     OW89266   6.487   8.990   9.144 -0.1390  0.2866 -0.0907
29563SOL    HW189267   6.575   8.954   9.154 -0.6976 -0.7152  1.7086
29563SOL    HW289268   6.479   9.055   9.214 -0.9310  0.1724 -0.0608
29564SOL     OW89269   0.967   2.704   3.622 -0.3273 -0.2138  0.0188
29564SOL    HW189270   0.994   2.657   3.700 -1.0953 -2.1519 -0.8214
29564SOL    HW289271   1.044   2.754   3.595  0.1370 -0.0209  1.6182
29565SOL     OW89272   1.315   8.162   6.739  0.4548 -0.1291  0.2166
29565SOL    HW189273   1.346   8.132   6.824  1.5935 -0.8345 -0.4273
29565SOL    HW289274   1.304   8.256   6.750  3.9823  0.4143  0.2058
29566SOL     OW89275   3.337   3.533   0.221  0.3532 -0.5873  0.5965
29566SOL    HW189276   3.356   3.462   0.282  0.2940 -0.8643  0.2949
29566SOL    HW289277   3.258   3.505   0.175  0.3079 -0.3103  0.5015
29567SOL     OW89278   5.993   8.909   2.233 -0.4028 -0.2298  0.2900
29567SOL    HW189279   6.040   8.882   2.311 -0.1435 -0.3508  0.0939
29567SOL    HW289280   5.995   9.005   2.236 -1.3279 -0.2287  0.9870
29568SOL     OW89281   8.285   5.649   5.891 -0.2583  0.2322 -0.1383
29568SOL    HW189282   8.250   5.589   5.957 -1.0832  0.9886  0.1334
29568SOL    HW289283   8.211   5.706   5.869  0.5983  1.3789 -0.1250
29569SOL     OW89284   7.803   6.327   2.972  0.1985 -0.2271  1.1140
29569SOL    HW189285   7.791   6.302   3.064  0.9168 -2.7613  0.6185
29569SOL    HW289286   7.802   6.243   2.925 -0.8675  1.0470 -1.2942
29570SOL     OW89287   9.747   3.631   4.383  0.4400 -0.1477  0.4167
29570SOL    HW189288   9.695   3.551   4.391 -0.5572  0.6161  2.1430
29570SOL    HW289289   9.800   3.633   4.463 -0.8790  1.7776  1.3231
29571SOL     OW89290   1.372   9.754   7.269  0.0275 -0.4091  0.2030
29571SOL    HW189291   1.336   9.732   7.355  0.9925 -0.8007  0.5166
29571SOL    HW289292   1.298   9.793   7.221 -1.1346 -2.2405  0.4113
29572SOL     OW89293   9.813   9.442   4.992 -0.0431 -0.1484 -0.6476
29572SOL    HW189294   9.870   9.459   5.067 -0.5142 -1.1416 -0.0489
29572SOL    HW289295   9.840   9.506   4.926  2.0941 -0.9127 -0.5704
29573SOL     OW89296   8.099   5.560   0.691 -0.3247 -0.0831 -0.3945
29573SOL    HW189297   8.050   5.585   0.770  0.7072 -1.1943  0.6538
29573SOL    HW289298   8.132   5.642   0.656 -2.0535  0.5875 -0.5508
29574SOL     OW89299   2.591   7.924   1.504 -0.6597  0.2038 -0.0232
29574SOL    HW189300   2.658   7.880   1.558 -1.1061 -2.7370 -1.6400
29574SOL    HW289301   2.626   8.011   1.488  1.9187 -0.6041  0.7348
29575SOL     OW89302   1.115   3.134   0.434 -0.5363  0.1353 -0.2907
29575SOL    HW189303   1.160   3.195   0.375  0.7471  0.1802  0.7038
29575SOL    HW289304   1.044   3.098   0.381 -1.4039  2.5333 -0.9149
29576SOL     OW89305   3.447   2.841   4.811 -0.2017  0.8153  0.2313
29576SOL    HW189306   3.356   2.812   4.815  0.2866 -0.6692  1.5528
29576SOL    HW289307   3.449   2.902   4.737 -2.0935  0.3067 -0.3082
29577SOL     OW89308   0.969   4.495   5.516  0.2595 -0.1239  0.0786
29577SOL    HW189309   0.920   4.478   5.596  0.1204 -0.9591 -0.1718
29577SOL    HW289310   0.979   4.590   5.513  1.3433 -0.1485  1.7202
29578SOL     OW89311   0.506   9.904   0.200  0.8262  0.1980 -0.3178
29578SOL    HW189312   0.483   9.869   0.114 -2.2786  1.4253 -0.1178
29578SOL    HW289313   0.493   9.831   0.260  0.9572 -0.1042 -0.6527
29579SOL     OW89314   2.698   9.624   9.438 -0.2190  0.1768 -0.1142
29579SOL    HW189315   2.660   9.711   9.430  0.3101  0.4517  0.3116
29579SOL    HW289316   2.702   9.607   9.532  1.0150  0.2987 -0.1272
29580SOL     OW89317   8.793   1.501   7.380 -0.3900  0.2998 -0.5550
29580SOL    HW189318   8.704   1.500   7.345 -0.0241  0.1381 -1.5148
29580SOL    HW289319   8.803   1.589   7.417 -0.1517  1.1731 -2.5981
29581SOL     OW89320   4.227   7.376   2.751  0.1616  0.0703 -0.3968
29581SOL    HW189321   4.314   7.337   2.750  1.0861  1.6410  2.8846
29581SOL    HW289322   4.231   7.446   2.686 -0.1232 -2.3811 -3.2251
29582SOL     OW89323   3.611   3.212   8.274  0.4157 -0.3799 -0.1509
29582SOL    HW189324   3.699   3.251   8.276  0.0221  0.5746 -1.0511
29582SOL    HW289325   3.603   3.168   8.359  0.5743  2.1587  1.2718
29583SOL     OW89326   0.567   5.931   8.011  0.1416 -0.5047 -0.0190
29583SOL    HW189327   0.636   5.983   8.052 -1.5118  1.3916  0.5490
29583SOL    HW289328   0.571   5.846   8.056  1.4782 -0.1175  0.6464
29584SOL     OW89329   6.816   4.915   6.738 -0.2158 -0.2738 -0.6364
29584SOL    HW189330   6.905   4.935   6.710 -0.3998 -0.2879 -1.2523
29584SOL    HW289331   6.766   4.910   6.656 -0.5370 -1.4889 -0.3908
29585SOL     OW89332   9.354   7.546   9.218  0.1865 -0.5294  0.1468
29585SOL    HW189333   9.332   7.628   9.263 -1.2578 -1.1151  0.5761
29585SOL    HW289334   9.434   7.516   9.262  1.2553  1.0539 -0.6055
29586SOL     OW89335   9.814   4.068   7.449 -0.1096 -0.2389  0.0707
29586SOL    HW189336   9.829   4.054   7.356  1.7431  0.1040  0.2710
29586SOL    HW289337   9.777   4.156   7.456  0.2344 -0.0646 -0.3056
29587SOL     OW89338   3.880   7.074   0.957 -0.4270 -0.1019  0.0255
29587SOL    HW189339   3.941   7.147   0.945 -0.2947  0.1454  1.9197
29587SOL    HW289340   3.923   6.999   0.914  0.3576  0.4752 -0.2171
29588SOL     OW89341   9.333   1.344   3.749  0.7316 -0.1983  0.1311
29588SOL    HW189342   9.313   1.394   3.669 -0.1301 -0.8486 -0.0773
29588SOL    HW289343   9.345   1.254   3.719 -1.3053 -0.7886  0.8939
29589SOL     OW89344   0.903   2.414   6.066  0.3732 -0.3315 -0.2337
29589SOL    HW189345   0.987   2.385   6.100  0.3630  1.1029  1.1621
29589SOL    HW289346   0.838   2.361   6.113  0.4508 -1.3615 -1.2323
29590SOL     OW89347   5.681   5.422   3.492 -0.0011 -0.4544  0.5140
29590SOL    HW189348   5.722   5.456   3.571 -0.4176 -0.7668  0.8662
29590SOL    HW289349   5.607   5.481   3.476 -0.1583 -0.6336  0.5861
29591SOL     OW89350   0.737   0.236   9.100 -0.3553 -0.8187  0.7713
29591SOL    HW189351   0.763   0.198   9.184  3.3043 -1.0505 -0.2760
29591SOL    HW289352   0.793   0.192   9.036 -0.3514  1.9240 -1.2815
29592SOL     OW89353   8.026   1.878  -0.009  0.3601 -0.3522 -0.5877
29592SOL    HW189354   8.042   1.973  -0.016  1.9842 -0.5957 -0.5016
29592SOL    HW289355   8.040   1.858   0.084  0.3220 -0.7321 -0.6623
29593SOL     OW89356   9.288   5.323   9.759  0.4602  0.0120 -0.1254
29593SOL    HW189357   9.290   5.268   9.837  1.3314 -0.6403 -0.5898
29593SOL    HW289358   9.216   5.288   9.706  0.9396 -0.6255 -0.3666
29594SOL     OW89359   7.684   8.772   1.244 -0.1064 -0.0128  0.4546
29594SOL    HW189360   7.732   8.800   1.322  0.8275 -0.2990  0.0055
29594SOL    HW289361   7.718   8.829   1.174  0.4383 -0.9764 -0.0947
29595SOL     OW89362   2.608   8.408   4.130 -0.1179  0.1872 -0.1408
29595SOL    HW189363   2.609   8.316   4.100 -0.7585 -0.3859  1.5039
29595SOL    HW289364   2.518   8.436   4.116  0.2097  0.7722 -1.1657
29596SOL     OW89365   7.112   2.947   2.631  0.6173 -0.1598 -0.4940
29596SOL    HW189366   7.201   2.951   2.664  0.9497  1.4925 -1.4909
29596SOL    HW289367   7.057   2.975   2.704  1.2022  1.8071 -0.7447
29597SOL     OW89368   5.281   2.523   0.818 -0.5504 -0.1322  0.0546
29597SOL    HW189369   5.231   2.570   0.751  0.4324 -0.1016 -0.6950
29597SOL    HW289370   5.292   2.585   0.889  0.4506  0.6926 -0.7877
29598SOL     OW89371   6.505   2.781   7.713 -0.3624 -0.0533  0.2229
29598SOL    HW189372   6.489   2.688   7.699  0.5148 -0.1197 -0.4536
29598SOL    HW289373   6.465   2.824   7.638 -0.2179  0.0527  0.2057
29599SOL     OW89374   7.000   7.822   9.328 -0.2709  0.3282 -0.2651
29599SOL    HW189375   7.007   7.910   9.365 -2.1000  0.9254 -1.2432
29599SOL    HW289376   6.915   7.789   9.356 -0.1735 -0.6134 -0.9887
29600SOL     OW89377   2.245   9.720   1.549  0.4045  0.1485 -0.7904
29600SOL    HW189378   2.303   9.777   1.499  2.4324 -2.3423 -1.4853
29600SOL    HW289379   2.210   9.658   1.485 -0.1382 -0.6275  0.2260
29601SOL     OW89380   0.977   6.380   3.575 -0.1233 -0.3075 -0.1308
29601SOL    HW189381   1.039   6.387   3.648  1.4309  0.4280 -1.4604
29601SOL    HW289382   0.990   6.291   3.542  2.5217  0.7199 -2.2487
29602SOL     OW89383   2.586   5.195   0.267 -0.3568  0.6299  0.4305
29602SOL    HW189384   2.519   5.172   0.331 -0.5382  0.5804  0.2226
29602SOL    HW289385   2.669   5.189   0.315 -0.6283  2.4307  1.1881
29603SOL     OW89386   4.348   1.747   3.570  0.9086 -0.2497 -0.1568
29603SOL    HW189387   4.428   1.753   3.518  1.0869 -2.8591 -0.3276
29603SOL    HW289388   4.300   1.674   3.531 -0.9684  0.4258  0.7589
29604SOL     OW89389   2.532   8.480   6.005 -0.4302  0.2867 -0.3074
29604SOL    HW189390   2.545   8.386   6.015 -0.0384  0.4211  0.5747
29604SOL    HW289391   2.582   8.503   5.927 -2.8209 -0.6746 -2.2548
29605SOL     OW89392   9.851   9.331   3.915  0.2930 -0.2646 -0.1372
29605SOL    HW189393   9.806   9.277   3.980  0.0667 -1.2050 -1.0602
29605SOL    HW289394   9.857   9.417   3.956  0.4871 -0.9302  1.2893
29606SOL     OW89395   0.166   3.390   6.226  0.0657  0.2972 -0.5831
29606SOL    HW189396   0.250   3.409   6.268 -0.2636 -0.8341  0.6659
29606SOL    HW289397   0.101   3.410   6.293 -0.4276 -2.3623 -0.1517
29607SOL     OW89398   0.505   6.214   9.597  0.6774 -0.2667  0.6926
29607SOL    HW189399   0.570   6.204   9.526 -0.6726 -0.3079 -0.5863
29607SOL    HW289400   0.536   6.157   9.667  2.4858  0.3761  0.4725
29608SOL     OW89401   1.529   1.215   6.144 -0.0991  0.2819  0.1325
29608SOL    HW189402   1.551   1.293   6.194  1.1620  1.6680 -2.4260
29608SOL    HW289403   1.587   1.147   6.179  1.7973  1.5763 -0.3675
29609SOL     OW89404   3.238   2.536   2.664  0.0595 -0.4960  0.3062
29609SOL    HW189405   3.221   2.505   2.575  0.1090 -1.6892  0.7052
29609SOL    HW289406   3.310   2.599   2.653  1.0443 -1.6853 -0.3349
29610SOL     OW89407   4.716   9.642   7.624 -0.1305  0.0389  0.0561
29610SOL    HW189408   4.672   9.726   7.623  0.7566  0.5474  1.0610
29610SOL    HW289409   4.648   9.579   7.647 -0.1688  0.9905  3.0975
29611SOL     OW89410   9.688   7.060   4.774 -0.6343  0.0938 -0.1251
29611SOL    HW189411   9.635   7.091   4.701 -0.9721 -0.4940 -0.1407
29611SOL    HW289412   9.657   7.109   4.850 -1.3723 -0.4040 -0.0914
29612SOL     OW89413   8.543   5.973   1.907  0.2367  0.3355  0.5798
29612SOL    HW189414   8.478   5.906   1.928 -0.4347  0.5485 -0.7654
29612SOL    HW289415   8.552   5.971   1.812  1.9699  0.5459  0.6962
29613SOL     OW89416   3.738   0.961   2.522 -0.4533 -0.5919  0.1503
29613SOL    HW189417   3.815   0.948   2.578 -1.0382 -1.3513  0.7974
29613SOL    HW289418   3.770   1.013   2.449  0.0706  1.5339  1.8026
29614SOL     OW89419   8.619   9.439   4.301 -0.6665 -0.1395  0.4653
29614SOL    HW189420   8.610   9.407   4.391 -1.5339  1.0862  0.8372
29614SOL    HW289421   8.530   9.456   4.272 -0.3109  0.8252 -0.1218
29615SOL     OW89422   6.868   5.148   1.751  0.4779  0.3630  0.0289
29615SOL    HW189423   6.903   5.062   1.727  1.3274  0.7103 -0.0262
29615SOL    HW289424   6.780   5.130   1.785  0.1829 -0.3993 -1.0785
29616SOL     OW89425   6.046   7.867   5.222  0.1739 -0.4497 -0.0856
29616SOL    HW189426   6.075   7.820   5.301 -0.3611 -0.5209  0.0783
29616SOL    HW289427   6.104   7.942   5.216  1.7795 -1.7167 -0.9852
29617SOL     OW89428   4.054   7.578   9.109  0.4011 -0.4445 -0.2805
29617SOL    HW189429   4.081   7.670   9.117  0.8156 -0.6560  0.9465
29617SOL    HW289430   4.123   7.529   9.154  0.3406 -1.3900 -1.2065
29618SOL     OW89431   5.484   4.489   6.791  0.1692  0.2872 -0.2978
29618SOL    HW189432   5.473   4.463   6.882  1.0514 -2.0673 -0.7941
29618SOL    HW289433   5.557   4.436   6.760 -0.2792  0.8491 -2.4490
29619SOL     OW89434   2.433   0.437   9.315 -0.3664 -0.4504 -0.0518
29619SOL    HW189435   2.440   0.403   9.405  0.3861 -0.1270  0.0226
29619SOL    HW289436   2.521   0.471   9.296 -0.7526  0.2586 -0.6003
29620SOL     OW89437   5.898   3.571   6.868 -0.2159  0.4642  0.4715
29620SOL    HW189438   5.847   3.618   6.801 -1.5406 -0.4616  0.7894
29620SOL    HW289439   5.988   3.572   6.834 -0.6482  1.0651 -0.7289
29621SOL     OW89440   5.569   3.735   5.472 -0.0169  0.6002 -0.1586
29621SOL    HW189441   5.542   3.803   5.534 -0.8093  0.2107 -0.0690
29621SOL    HW289442   5.576   3.781   5.388 -0.4645  0.8177 -0.0813
29622SOL     OW89443   8.826   5.481   7.920  0.2851 -0.4379  0.4841
29622SOL    HW189444   8.731   5.479   7.931  0.4837 -0.7605  2.4222
29622SOL    HW289445   8.845   5.570   7.889 -0.6397 -0.3883  0.0513
29623SOL     OW89446   1.931   8.388   0.551  0.1140  0.6840  0.0977
29623SOL    HW189447   1.993   8.410   0.481  0.6438 -0.0560  0.3175
29623SOL    HW289448   1.846   8.392   0.509  0.5019 -0.9520 -0.9504
29624SOL     OW89449   4.992   9.640   7.752  0.2840  0.3281  0.6410
29624SOL    HW189450   4.977   9.547   7.768  0.0712  0.4364  1.0951
29624SOL    HW289451   4.948   9.658   7.669 -0.9092  0.3361  1.2515
29625SOL     OW89452   2.789   1.118   8.591  0.4806 -0.2568  0.2748
29625SOL    HW189453   2.695   1.098   8.588  0.2011  1.0568 -0.2036
29625SOL    HW289454   2.822   1.086   8.507  0.1788  0.5547 -0.1650
29626SOL     OW89455   8.334   1.480   3.724 -0.1594  0.0035  0.4683
29626SOL    HW189456   8.341   1.433   3.641 -0.9656  0.9029 -0.1251
29626SOL    HW289457   8.312   1.570   3.699 -0.2074  0.3331  1.6471
29627SOL     OW89458   0.162   3.163   0.543 -0.2501 -0.1579  0.9977
29627SOL    HW189459   0.165   3.139   0.636 -0.7825 -1.4821  0.7034
29627SOL    HW289460   0.161   3.258   0.542  1.4114 -0.0986  2.2913
29628SOL     OW89461   1.192   8.516   4.407  0.0192  0.3115 -0.1652
29628SOL    HW189462   1.282   8.542   4.388  0.0244 -1.3835 -2.9962
29628SOL    HW289463   1.201   8.443   4.468  0.8224 -1.4020 -2.1943
29629SOL     OW89464   2.792   3.329   3.657  0.2972 -0.2111 -0.6290
29629SOL    HW189465   2.789   3.235   3.639  1.9873 -0.1576 -1.3294
29629SOL    HW289466   2.825   3.335   3.746  1.9397 -0.2749 -1.2034
29630SOL     OW89467   7.297   2.218   6.229 -0.0398 -0.3878 -0.0821
29630SOL    HW189468   7.338   2.279   6.290 -1.7470 -0.0299  0.7800
29630SOL    HW289469   7.285   2.267   6.149  1.8819 -0.7435 -0.6299
29631SOL     OW89470   8.188   9.937   8.134  0.0174 -0.3360  0.4518
29631SOL    HW189471   8.193   9.841   8.142 -1.0648 -0.7698 -2.6927
29631SOL    HW289472   8.160   9.966   8.221  1.1302 -2.7561  1.7425
29632SOL     OW89473   1.239   9.038   0.773 -0.4794  0.3352  0.1258
29632SOL    HW189474   1.278   8.975   0.833 -0.0771  0.2793 -0.1835
29632SOL    HW289475   1.262   9.124   0.809 -0.9395  0.3055  0.4912
29633SOL     OW89476   0.267   4.321   7.347 -0.1242  0.1346 -0.0933
29633SOL    HW189477   0.325   4.392   7.374  0.1790  0.3411 -1.2444
29633SOL    HW289478   0.313   4.278   7.275 -0.8954 -0.4053 -0.2811
29634SOL     OW89479   5.087   7.219   5.596 -0.8031 -0.1944  0.6907
29634SOL    HW189480   5.139   7.299   5.602  0.2034 -0.8314  0.6560
29634SOL    HW289481   5.140   7.153   5.640  0.7827 -2.0317 -3.4737
29635SOL     OW89482   7.175   9.789   9.324  0.5988  0.2559  0.5012
29635SOL    HW189483   7.115   9.740   9.379  0.6277 -0.3337  0.0156
29635SOL    HW289484   7.256   9.794   9.375  0.4935  0.0772  0.6852
29636SOL     OW89485   7.842   1.758   1.305 -0.2227 -0.0053 -0.0962
29636SOL    HW189486   7.911   1.787   1.245  0.3769  2.2136  1.5526
29636SOL    HW289487   7.846   1.662   1.299  1.4072  0.0876 -1.7841
29637SOL     OW89488   5.534   1.774   8.002 -0.0547 -0.1371  0.3327
29637SOL    HW189489   5.521   1.864   7.973  1.0846  0.5147  1.7457
29637SOL    HW289490   5.450   1.749   8.040 -0.4058  0.2907 -0.1531
29638SOL     OW89491   2.088   1.689   1.742  0.2576 -0.6315 -0.3807
29638SOL    HW189492   2.054   1.722   1.659  0.9441  0.7773 -0.1398
29638SOL    HW289493   2.169   1.643   1.717  0.7795  0.2941 -0.4627
29639SOL     OW89494   1.380   1.435   4.151 -0.0129 -0.2447 -0.5227
29639SOL    HW189495   1.397   1.457   4.242 -1.5483 -1.4804  0.1225
29639SOL    HW289496   1.285   1.444   4.141 -0.2212 -2.5321 -1.2657
29640SOL     OW89497   0.840   3.552   5.115 -0.6727 -0.2898  0.1349
29640SOL    HW189498   0.857   3.460   5.134 -1.5649 -0.3617  0.6431
29640SOL    HW289499   0.753   3.553   5.074 -0.0535  0.1853 -1.2186
29641SOL     OW89500   8.251   0.502   4.128  0.0547  0.1643 -0.1940
29641SOL    HW189501   8.160   0.522   4.105  0.0161 -0.2076 -0.3742
29641SOL    HW289502   8.274   0.428   4.072  0.7953  0.8868 -0.8889
29642SOL     OW89503   7.112   0.088   8.348  1.0035  0.0953 -0.5078
29642SOL    HW189504   7.080   0.071   8.437  0.1805  1.9785 -0.4017
29642SOL    HW289505   7.198   0.047   8.345  1.3420  0.5857  1.3893
29643SOL     OW89506   5.470   0.763   1.466 -0.0821 -0.8676  0.3653
29643SOL    HW189507   5.447   0.759   1.374 -0.2760 -1.7301  0.4390
29643SOL    HW289508   5.394   0.726   1.512  0.3755 -1.2929  0.7954
29644SOL     OW89509   2.028   9.501   9.161  0.0942  0.0011  0.3970
29644SOL    HW189510   2.050   9.544   9.078  0.6142 -0.7020  0.1618
29644SOL    HW289511   2.102   9.520   9.218 -0.2908  0.5334  0.7272
29645SOL     OW89512   3.728   4.851   4.757  0.5392 -0.3741  0.0646
29645SOL    HW189513   3.743   4.890   4.671 -0.2976 -2.2497 -1.0127
29645SOL    HW289514   3.815   4.820   4.784  0.8090  0.2235 -0.1019
29646SOL     OW89515   3.979   8.702   9.425 -0.6643  0.0462  0.1440
29646SOL    HW189516   3.886   8.718   9.411 -0.2453  1.3779 -1.5592
29646SOL    HW289517   4.018   8.790   9.428  0.9747 -0.4326 -3.0071
29647SOL     OW89518   9.731   3.525   2.675 -0.2623 -0.0265  0.4378
29647SOL    HW189519   9.775   3.524   2.590 -0.1342 -0.5026  0.5078
29647SOL    HW289520   9.676   3.604   2.672 -3.7086 -2.2337 -1.8577
29648SOL     OW89521   8.532   1.172   4.072 -0.1341  0.7035  0.2663
29648SOL    HW189522   8.594   1.207   4.007  0.6691 -1.5502 -0.2602
29648SOL    HW289523   8.447   1.178   4.029  0.3532 -0.4953 -0.9088
29649SOL     OW89524   4.173   8.828   6.105  0.3565  0.8261 -0.6838
29649SOL    HW189525   4.097   8.826   6.047  0.0652  0.8223 -0.3107
29649SOL    HW289526   4.240   8.874   6.056  0.3391  0.2302 -1.2877
29650SOL     OW89527   6.180   6.499   7.519  0.1808 -0.0257  0.2152
29650SOL    HW189528   6.268   6.470   7.495 -0.4348 -0.9840 -1.0649
29650SOL    HW289529   6.185   6.595   7.519  1.0221 -0.0524 -0.7104
29651SOL     OW89530   3.928   2.388   1.947  0.1470 -0.4112  0.4705
29651SOL    HW189531   3.897   2.479   1.953  2.3418  0.3589  0.7795
29651SOL    HW289532   3.949   2.364   2.037  0.0306 -1.0795  0.3222
29652SOL     OW89533   7.479   5.008   9.442  0.0786  0.2264  0.1143
29652SOL    HW189534   7.486   5.103   9.450 -0.8149  0.1899  1.6194
29652SOL    HW289535   7.539   4.986   9.370  1.0184  1.8188  0.3541
29653SOL     OW89536   3.766   5.794   2.189 -0.5239 -0.3985 -0.0227
29653SOL    HW189537   3.673   5.800   2.166 -0.2167 -0.2534 -1.3501
29653SOL    HW289538   3.790   5.881   2.219 -0.6191 -0.1742 -0.5742
29654SOL     OW89539   1.791   7.565   5.706  0.2904 -0.8124  0.4227
29654SOL    HW189540   1.751   7.650   5.721 -0.2602 -1.1473  0.9182
29654SOL    HW289541   1.881   7.574   5.739 -0.0377 -0.6827  1.3213
29655SOL     OW89542   7.988   3.993   2.133  0.1102 -0.0563 -0.0071
29655SOL    HW189543   7.973   4.072   2.082 -1.0414 -0.2674 -0.0444
29655SOL    HW289544   8.066   3.953   2.096  0.5197  0.9013 -0.1866
29656SOL     OW89545   1.602   2.607   2.434  1.3032  0.1587  0.4120
29656SOL    HW189546   1.589   2.694   2.472  0.2626  0.1711  0.0611
29656SOL    HW289547   1.645   2.557   2.504  1.6415  0.8606  0.7248
29657SOL     OW89548   7.119   2.341   8.819 -0.1823  0.1846  0.6257
29657SOL    HW189549   7.142   2.251   8.793 -0.0009  0.0427  1.2519
29657SOL    HW289550   7.194   2.370   8.871  1.3302  1.9115 -2.2496
29658SOL     OW89551   0.549   0.096   5.663 -0.1152  0.0744  0.2338
29658SOL    HW189552   0.581   0.164   5.722 -1.0169  1.2365 -0.5842
29658SOL    HW289553   0.458   0.082   5.690  0.1885 -1.1503  0.6865
29659SOL     OW89554   6.394   4.941   0.984  0.4554  0.5251  0.0172
29659SOL    HW189555   6.411   4.869   1.044 -0.1563 -1.7689 -2.3638
29659SOL    HW289556   6.299   4.954   0.988  0.8159  3.3119  2.5497
29660SOL     OW89557   0.850   9.061   7.586 -0.2619 -1.1189  0.2024
29660SOL    HW189558   0.835   8.995   7.654 -0.2257 -0.3031  1.0238
29660SOL    HW289559   0.769   9.061   7.535 -0.2786 -1.7617  0.2172
29661SOL     OW89560   0.205   7.500   5.517  0.2928 -0.7896  0.1639
29661SOL    HW189561   0.262   7.574   5.496 -0.4165 -0.6037 -1.2544
29661SOL    HW289562   0.191   7.456   5.433 -0.6682 -1.5365  0.6895
29662SOL     OW89563   5.665   7.179   5.042  0.3018 -0.1450  0.2724
29662SOL    HW189564   5.745   7.175   5.095  0.7696  0.1544 -0.3955
29662SOL    HW289565   5.594   7.163   5.105  0.7638  1.1949  1.1806
29663SOL     OW89566   3.483   5.603   5.470  0.2536 -0.1098  0.0872
29663SOL    HW189567   3.426   5.545   5.520 -1.7329  1.7111  0.1060
29663SOL    HW289568   3.455   5.593   5.379 -0.8359  1.4584  0.1973
29664SOL     OW89569   3.338   8.221   2.812  0.0380  0.0794 -0.0130
29664SOL    HW189570   3.320   8.257   2.899  1.0238  0.6508 -0.0327
29664SOL    HW289571   3.403   8.152   2.828  2.3337  1.9859 -0.5297
29665SOL     OW89572   0.482   7.806   3.933 -0.0278 -0.2545  0.1508
29665SOL    HW189573   0.509   7.714   3.935 -2.5151 -1.0618  1.7726
29665SOL    HW289574   0.546   7.851   3.988 -0.2411 -1.5503  1.5483
29666SOL     OW89575   7.501   4.869   7.270 -0.1253 -0.4190 -0.0124
29666SOL    HW189576   7.439   4.872   7.343  2.1131  1.9716  2.0309
29666SOL    HW289577   7.541   4.783   7.277  0.6354  0.0246  2.2938
29667SOL     OW89578   0.573   8.667   5.066 -0.2903  0.6607  0.2080
29667SOL    HW189579   0.667   8.674   5.084  0.0547 -1.3263 -0.5663
29667SOL    HW289580   0.556   8.732   4.997 -0.0085  2.6468  1.9113
29668SOL     OW89581   4.169   1.021   3.348  0.3318  0.0209  0.1330
29668SOL    HW189582   4.141   0.930   3.339 -2.9287  1.0253 -1.6779
29668SOL    HW289583   4.146   1.044   3.438 -3.3691  0.2349 -0.7282
29669SOL     OW89584   2.350   7.009   3.840 -0.5787  0.0021  0.0976
29669SOL    HW189585   2.406   6.941   3.804  0.4790  0.8850  0.0404
29669SOL    HW289586   2.400   7.090   3.830 -1.0155  0.5361  1.8971
29670SOL     OW89587   3.682   0.275   4.886 -0.0318  0.4266 -0.3415
29670SOL    HW189588   3.675   0.203   4.823 -1.4422  0.9328 -0.8022
29670SOL    HW289589   3.714   0.233   4.966 -0.4397 -0.6451 -0.7170
29671SOL     OW89590   9.845   1.261   9.391 -0.4750  0.7152  0.2312
29671SOL    HW189591   9.894   1.183   9.419 -1.2293  0.4957  0.9784
29671SOL    HW289592   9.862   1.326   9.459 -0.2541  1.0464 -0.1341
29672SOL     OW89593   5.620   1.276   2.227  0.3238 -0.4158 -0.4500
29672SOL    HW189594   5.605   1.314   2.313  2.8280  2.5134 -1.1103
29672SOL    HW289595   5.715   1.266   2.222  0.4463  1.1124 -3.3931
29673SOL     OW89596   6.006   5.431   2.129 -0.1951  0.3338 -0.1261
29673SOL    HW189597   6.023   5.525   2.139 -1.8811  0.8034 -1.2438
29673SOL    HW289598   6.052   5.390   2.202  0.0252  2.0933  0.7677
29674SOL     OW89599   9.367   8.143   1.112 -0.2820  0.2612  0.1455
29674SOL    HW189600   9.275   8.170   1.112 -0.2486  0.3864  0.5920
29674SOL    HW289601   9.413   8.218   1.148  0.3080  1.1975 -2.3227
29675SOL     OW89602   3.833   5.280   4.392  0.2205  0.2298 -0.4874
29675SOL    HW189603   3.843   5.248   4.303  0.0423 -0.5004 -0.2549
29675SOL    HW289604   3.900   5.348   4.402 -0.3898  0.9899 -1.4757
29676SOL     OW89605   4.951   3.147   8.504 -0.5198 -0.6605  0.3938
29676SOL    HW189606   4.885   3.116   8.441 -0.4620  0.8935 -0.4772
29676SOL    HW289607   5.018   3.078   8.504 -0.9018 -1.0517 -0.6722
29677SOL     OW89608   0.230   4.882   9.182  0.2403 -0.4794  0.0894
29677SOL    HW189609   0.232   4.945   9.111 -0.2915 -0.9559 -0.3587
29677SOL    HW289610   0.238   4.935   9.262 -1.4210  0.2770 -0.2067
29678SOL     OW89611   8.790   6.715   4.269 -0.4455 -0.1383  0.6942
29678SOL    HW189612   8.810   6.808   4.278 -0.1234 -0.0480 -0.6725
29678SOL    HW289613   8.812   6.677   4.354  1.5124  0.6883  0.6200
29679SOL     OW89614   0.390   6.623   0.895  0.1085 -0.6298 -0.1174
29679SOL    HW189615   0.418   6.544   0.940  0.4540 -0.5334 -0.1548
29679SOL    HW289616   0.310   6.650   0.940 -0.1657 -1.1479 -0.2822
29680SOL     OW89617   8.742   9.643   1.965 -0.5217  0.3537 -0.2428
29680SOL    HW189618   8.687   9.721   1.957 -2.2397 -0.7679  0.0238
29680SOL    HW289619   8.782   9.632   1.879  1.3994  2.6287  0.2587
29681SOL     OW89620   6.524   4.673   7.048  0.0384  0.2424 -0.0319
29681SOL    HW189621   6.432   4.692   7.030  0.0343 -0.0452 -0.3259
29681SOL    HW289622   6.565   4.675   6.962  0.1721 -0.3625  0.0182
29682SOL     OW89623   5.096   3.138   3.034  0.0392  0.6240 -0.6209
29682SOL    HW189624   5.112   3.226   3.068  1.2109  0.4198 -0.6002
29682SOL    HW289625   5.046   3.094   3.103  0.1113  1.0373 -0.3025
29683SOL     OW89626   3.753   9.940   3.718  0.2417  0.5672  0.5883
29683SOL    HW189627   3.747   9.953   3.623 -1.9462 -0.0360  0.6019
29683SOL    HW289628   3.802  10.016   3.749  0.3133  1.1875 -0.9400
29684SOL     OW89629   8.631   2.273   7.315 -0.4751 -0.2075 -0.3423
29684SOL    HW189630   8.651   2.350   7.262 -2.1298  0.0470 -0.6429
29684SOL    HW289631   8.538   2.257   7.301 -0.7141 -0.8140  1.6273
29685SOL     OW89632   9.884   7.770   7.804 -0.1411  0.0629  0.1656
29685SOL    HW189633   9.823   7.759   7.877 -1.1464  2.8591 -0.1107
29685SOL    HW289634   9.970   7.753   7.842 -0.9488 -3.2925  0.7254
29686SOL     OW89635   4.031   7.849   1.754 -0.1022 -0.2826 -0.1880
29686SOL    HW189636   3.942   7.878   1.738 -0.3018 -0.9408 -0.2911
29686SOL    HW289637   4.034   7.759   1.722  0.1851 -0.7800  1.1654
29687SOL     OW89638   0.894   0.978   1.227  0.5125  0.2586  0.2826
29687SOL    HW189639   0.963   1.042   1.242 -0.8337  1.4054  1.8295
29687SOL    HW289640   0.871   0.989   1.134  1.8225  0.4020 -0.0486
29688SOL     OW89641   2.476   8.111   9.977 -0.1284  0.3768 -0.1330
29688SOL    HW189642   2.463   8.023   9.944 -2.1695  0.0464  1.3762
29688SOL    HW289643   2.479   8.166   9.899  1.1976 -0.9826 -1.0924
29689SOL     OW89644   3.047   2.273   3.408 -0.4596  0.5139 -0.0997
29689SOL    HW189645   3.094   2.276   3.324 -0.8418  0.7609 -0.3068
29689SOL    HW289646   2.965   2.319   3.391 -0.2237  1.2272  0.6119
29690SOL     OW89647   9.003   4.787   6.622  0.1041 -0.1012  0.4013
29690SOL    HW189648   8.930   4.830   6.666  1.1673  2.0465  0.1949
29690SOL    HW289649   9.040   4.855   6.565  0.6029 -1.9088 -1.5677
29691SOL     OW89650   2.197   4.932   0.099  0.4255  0.6777 -0.3057
29691SOL    HW189651   2.177   5.002   0.161 -2.8376 -1.6644  1.5949
29691SOL    HW289652   2.291   4.914   0.111  0.1697  1.1184  3.1702
29692SOL     OW89653   9.922   3.311   6.833  0.4030  0.8432 -0.2385
29692SOL    HW189654   9.855   3.352   6.887  1.5090 -0.0987  1.9864
29692SOL    HW289655   9.985   3.381   6.815 -0.3775  1.3591 -1.0499
29693SOL     OW89656   3.886   1.593   6.549 -0.0996  0.7864  0.2867
29693SOL    HW189657   3.928   1.508   6.557  2.3921  2.0372  1.8681
29693SOL    HW289658   3.918   1.629   6.467 -0.8480  0.3974 -0.1895
29694SOL     OW89659   1.635   7.819   8.301 -0.3559 -0.4641  0.1307
29694SOL    HW189660   1.600   7.902   8.332 -0.4985  0.3690 -2.0506
29694SOL    HW289661   1.725   7.840   8.275 -0.6438 -0.7773 -1.1663
29695SOL     OW89662   0.667   3.176   9.465 -0.0642 -0.3717 -0.6707
29695SOL    HW189663   0.651   3.262   9.504 -0.0728 -0.0437 -1.3818
29695SOL    HW289664   0.581   3.146   9.436  0.0795 -0.1726 -1.3196
29696SOL     OW89665   5.864   5.914   2.609 -0.1871 -0.1960  0.6863
29696SOL    HW189666   5.786   5.888   2.560  0.1611  0.1533 -0.0675
29696SOL    HW289667   5.883   5.840   2.667  0.1942 -1.1887 -0.6735
29697SOL     OW89668   5.994   6.826   3.893  0.0282 -0.1043 -0.3703
29697SOL    HW189669   6.058   6.767   3.932 -1.6165 -2.1989 -0.6352
29697SOL    HW289670   6.043   6.906   3.873  2.6094 -1.6873 -0.8281
29698SOL     OW89671   9.662   5.535   6.308 -0.7808 -0.4893  0.3780
29698SOL    HW189672   9.713   5.596   6.362  0.3930 -0.0304 -1.1618
29698SOL    HW289673   9.727   5.495   6.250 -2.1448  0.1471 -1.6935
29699SOL     OW89674   5.897   2.463   2.377  0.0080  0.1162  0.4159
29699SOL    HW189675   5.859   2.405   2.442 -2.7015 -0.6502 -1.6664
29699SOL    HW289676   5.947   2.527   2.428 -1.2733 -0.9075  3.1421
29700SOL     OW89677   6.104   5.154   9.451  0.4397 -0.5315  0.3163
29700SOL    HW189678   6.120   5.113   9.536 -0.3326 -0.3252  0.5667
29700SOL    HW289679   6.104   5.248   9.470 -2.5199 -0.5075  0.6496
29701SOL     OW89680   4.664   6.134   6.607  0.0276 -0.3834  0.3596
29701SOL    HW189681   4.736   6.071   6.612  1.0191  0.8483  2.7601
29701SOL    HW289682   4.612   6.118   6.685  0.6045  2.0463  1.3329
29702SOL     OW89683   2.227   0.545   6.966  0.3133  0.0708 -0.4027
29702SOL    HW189684   2.322   0.554   6.954  0.0988  2.1407 -0.9714
29702SOL    HW289685   2.190   0.581   6.885 -0.9720  0.6543  0.4170
29703SOL     OW89686   7.880   8.284   9.837  0.0657  0.2992  0.3144
29703SOL    HW189687   7.902   8.358   9.781  0.9781 -0.4920 -0.4040
29703SOL    HW289688   7.965   8.246   9.860 -0.3838 -0.3986  0.8476
29704SOL     OW89689   7.537   8.539   4.192 -0.0485  0.3465  0.3002
29704SOL    HW189690   7.625   8.572   4.211  0.2597 -1.0523  1.4863
29704SOL    HW289691   7.478   8.603   4.233  0.4390  0.8993  0.1446
29705SOL     OW89692   0.489   8.675   4.692 -0.2261  0.2077  0.5967
29705SOL    HW189693   0.495   8.765   4.725  0.4582  0.1258  0.7156
29705SOL    HW289694   0.395   8.661   4.676 -0.6548  0.1177  2.8488
29706SOL     OW89695   9.229   6.826   5.052 -0.2167  0.4469 -0.3780
29706SOL    HW189696   9.155   6.776   5.088  0.2140  0.2118  0.1986
29706SOL    HW289697   9.235   6.797   4.961 -1.3278  1.0528 -0.6585
29707SOL     OW89698   7.453   7.920   8.452 -0.3924  0.0794 -0.1358
29707SOL    HW189699   7.375   7.869   8.432 -0.0945 -0.9449  1.1676
29707SOL    HW289700   7.420   7.996   8.500 -0.6429 -0.0625 -0.0804
29708SOL     OW89701   0.762   2.356   7.790 -0.3685  0.3533 -0.4272
29708SOL    HW189702   0.809   2.299   7.729 -2.2009 -2.8517  0.8966
29708SOL    HW289703   0.830   2.400   7.840  1.2250 -1.7473 -0.6297
29709SOL     OW89704   4.442   1.832   9.125 -0.4438  0.0585  0.1141
29709SOL    HW189705   4.487   1.904   9.080  0.1026 -0.1621  0.3027
29709SOL    HW289706   4.358   1.870   9.152  0.1300  0.8482  0.8661
29710SOL     OW89707   3.105   8.254   7.070  0.0565  0.6358  0.3877
29710SOL    HW189708   3.026   8.293   7.034 -1.0955 -2.0014 -0.1299
29710SOL    HW289709   3.088   8.248   7.164 -0.0349  0.7755  0.3804
29711SOL     OW89710   4.104   5.729   8.211 -0.0409  0.1711  0.5105
29711SOL    HW189711   4.028   5.683   8.177  0.2390  0.1076 -0.0279
29711SOL    HW289712   4.179   5.689   8.167  0.2360  0.8471  0.3598
29712SOL     OW89713   0.897   0.671   4.734 -0.3063  0.1433  0.1703
29712SOL    HW189714   0.848   0.602   4.690 -0.3564  0.2474  0.0617
29712SOL    HW289715   0.987   0.638   4.738 -0.3773 -0.0275  0.3281
29713SOL     OW89716   2.929   7.251   7.205 -0.4716  0.0120 -0.4420
29713SOL    HW189717   2.966   7.242   7.117 -0.6643 -1.4132 -0.3950
29713SOL    HW289718   2.861   7.184   7.209  0.5350 -0.9593  1.2964
29714SOL     OW89719   7.216   7.606   2.635 -0.0951  0.0007 -0.5022
29714SOL    HW189720   7.148   7.539   2.647 -0.5884  0.7598  1.3581
29714SOL    HW289721   7.169   7.682   2.602 -0.1602  0.4753  0.6337
29715SOL     OW89722   6.449   0.260   3.879 -0.1638  0.3412 -0.3390
29715SOL    HW189723   6.396   0.262   3.959  1.1392  1.2197  0.5336
29715SOL    HW289724   6.512   0.331   3.891  1.4434 -0.9097 -1.1940
29716SOL     OW89725   0.961   4.658   8.206 -0.7082 -0.0702 -0.1517
29716SOL    HW189726   0.920   4.574   8.182 -0.7876 -0.2079  0.4343
29716SOL    HW289727   0.942   4.667   8.300  2.0459 -0.9695  0.5776
29717SOL     OW89728   2.358   6.581   9.267  0.3519  0.5069  0.3847
29717SOL    HW189729   2.294   6.651   9.282 -0.6193 -0.4944  1.1270
29717SOL    HW289730   2.306   6.510   9.228  1.1606 -0.0792  0.3585
29718SOL     OW89731   2.196   6.789   4.787  0.5105  0.0682  0.1715
29718SOL    HW189732   2.251   6.861   4.819  0.4365  1.1270 -1.9463
29718SOL    HW289733   2.124   6.832   4.742  0.4511 -1.3270 -1.1287
29719SOL     OW89734   0.967   2.510   7.909 -0.3773  0.4298 -0.3704
29719SOL    HW189735   1.034   2.448   7.880 -1.3840 -1.6997  1.5638
29719SOL    HW289736   1.013   2.570   7.968 -0.0074 -0.5417  0.3431
29720SOL     OW89737   6.629   6.955   2.266  0.5770 -0.2297  0.4448
29720SOL    HW189738   6.534   6.950   2.257  0.2863  2.1564  1.6458
29720SOL    HW289739   6.658   6.998   2.186  0.0248  3.5320  2.0834
29721SOL     OW89740   5.862   1.253   1.698  0.1529  0.3054  0.4413
29721SOL    HW189741   5.768   1.258   1.682  0.0282 -0.6130  0.8433
29721SOL    HW289742   5.888   1.167   1.667  1.3231  1.3893 -1.8680
29722SOL     OW89743   7.326   3.003   4.115  0.0704  0.5549  0.1740
29722SOL    HW189744   7.333   2.917   4.074  1.2476  0.1021  1.2334
29722SOL    HW289745   7.275   3.056   4.054  0.0414 -0.6608 -0.8801
29723SOL     OW89746   3.053   3.382   6.278 -0.0354  0.6852 -0.0791
29723SOL    HW189747   3.111   3.350   6.347  0.2658 -1.7129 -1.3400
29723SOL    HW289748   3.111   3.403   6.205 -0.5974 -0.8327 -1.0198
29724SOL     OW89749   1.835   1.019   9.814  0.0179 -0.3015 -0.2348
29724SOL    HW189750   1.806   0.940   9.768 -0.5985 -1.2829  1.7177
29724SOL    HW289751   1.814   1.090   9.754  0.2336 -1.5694 -1.8956
29725SOL     OW89752   8.325   5.150   4.512  0.3553  0.3131  0.1498
29725SOL    HW189753   8.340   5.176   4.603  2.2346  0.9888 -0.2877
29725SOL    HW289754   8.231   5.162   4.498 -0.1430 -0.7574  2.2537
29726SOL     OW89755   8.685   2.284   8.105 -0.1970 -0.6614 -0.4878
29726SOL    HW189756   8.725   2.212   8.056  1.5615 -1.6780  2.2033
29726SOL    HW289757   8.743   2.359   8.089  0.2748 -0.9461 -0.1536
29727SOL     OW89758   2.880   4.526   9.575 -0.4487 -0.1455  0.2915
29727SOL    HW189759   2.817   4.467   9.615 -0.2767 -1.4027 -1.1764
29727SOL    HW289760   2.931   4.470   9.516  1.0275  1.1182  0.2944
29728SOL     OW89761   6.768   8.897   0.925  0.2005 -0.9669  0.0888
29728SOL    HW189762   6.732   8.978   0.962 -0.1845 -0.0673 -2.1113
29728SOL    HW289763   6.755   8.832   0.993 -0.1104  0.6625  1.6658
29729SOL     OW89764   1.980   3.507   2.835  0.1719  0.7505  0.0207
29729SOL    HW189765   1.957   3.562   2.761 -1.3086 -0.3073 -0.3510
29729SOL    HW289766   2.025   3.432   2.796 -0.7950  0.0898  0.1374
29730SOL     OW89767   6.858   4.001   7.202  0.2202  0.6690  0.2721
29730SOL    HW189768   6.786   4.020   7.141  0.8128 -0.0433 -0.6696
29730SOL    HW289769   6.937   4.011   7.149  0.6836 -1.7186  0.4041
29731SOL     OW89770   1.288   8.584   6.997  0.3220  0.4082  0.1732
29731SOL    HW189771   1.238   8.609   7.074  0.8936  0.9739  0.3747
29731SOL    HW289772   1.378   8.577   7.028  0.9192  2.7023 -0.8290
29732SOL     OW89773   0.446   0.818   6.989 -0.0022  0.4156 -0.0926
29732SOL    HW189774   0.413   0.736   6.954 -0.5202  0.7652 -0.4317
29732SOL    HW289775   0.411   0.822   7.079 -0.7842  0.7204 -0.4022
29733SOL     OW89776   8.619   0.642   8.598  0.3600  0.1891 -0.0844
29733SOL    HW189777   8.692   0.661   8.658  1.2097  0.2731 -1.1103
29733SOL    HW289778   8.659   0.641   8.511 -0.7857 -0.2609 -0.6320
29734SOL     OW89779   9.221   9.561   2.161  0.1752  0.0614 -0.2350
29734SOL    HW189780   9.164   9.488   2.136 -0.2301 -0.5369  2.1796
29734SOL    HW289781   9.249   9.599   2.078 -0.8866 -1.8444 -1.5461
29735SOL     OW89782   4.158   6.503   3.722 -0.0301 -0.0009 -0.3511
29735SOL    HW189783   4.157   6.436   3.790 -1.0879  0.7892  0.4502
29735SOL    HW289784   4.185   6.456   3.643  0.4898 -1.0958  0.4485
29736SOL     OW89785   4.390   7.786   3.143 -0.9748 -0.1510 -0.0148
29736SOL    HW189786   4.319   7.794   3.078 -0.1380  1.0077 -0.8309
29736SOL    HW289787   4.441   7.710   3.114 -0.7648  0.1961 -0.5642
29737SOL     OW89788   7.525   1.708   0.839 -0.1567  0.0165  0.2829
29737SOL    HW189789   7.555   1.620   0.815 -0.5174  0.3217 -1.3648
29737SOL    HW289790   7.433   1.710   0.814  0.1132  1.2028 -0.6957
29738SOL     OW89791   3.861   0.793   4.369 -0.0395 -0.0395 -0.1490
29738SOL    HW189792   3.873   0.887   4.376  0.7217 -0.0511 -1.1865
29738SOL    HW289793   3.889   0.759   4.455 -1.1478  0.7296  0.5432
29739SOL     OW89794   2.831   9.469   0.445 -0.2256  0.5570 -0.3285
29739SOL    HW189795   2.764   9.412   0.482  0.6676  0.2748  0.9249
29739SOL    HW289796   2.875   9.414   0.380  0.1661  0.0283  0.3660
29740SOL     OW89797   7.922   3.352   6.850 -0.5108 -0.5508 -0.1697
29740SOL    HW189798   7.894   3.262   6.867 -0.2537 -0.5371  0.3599
29740SOL    HW289799   7.988   3.370   6.918  0.9759 -0.6676 -1.5291
29741SOL     OW89800   4.525   3.913   8.236  0.1478 -0.1581 -0.1919
29741SOL    HW189801   4.548   3.898   8.144 -0.3006 -0.3300 -0.2771
29741SOL    HW289802   4.534   4.007   8.248 -2.3818  0.2657 -1.1428
29742SOL     OW89803   1.009   5.021   1.436 -0.5376  0.6846  0.0109
29742SOL    HW189804   0.961   5.008   1.518 -1.6475  0.6119 -0.6350
29742SOL    HW289805   1.017   4.933   1.399  0.7401  0.5954  0.4475
29743SOL     OW89806   6.921   5.208   6.039 -0.2158  0.2167  0.2306
29743SOL    HW189807   6.896   5.128   5.992  2.7134 -0.6971  0.0284
29743SOL    HW289808   6.917   5.277   5.974  0.2072 -0.3664 -0.4305
29744SOL     OW89809   0.270   2.558   5.245  0.7423  0.2296 -0.6843
29744SOL    HW189810   0.282   2.596   5.158 -1.1058  2.1498 -0.1928
29744SOL    HW289811   0.347   2.586   5.294  0.5715  1.3961 -1.0288
29745SOL     OW89812   9.258   2.540   0.396 -0.1307  0.1049  0.0865
29745SOL    HW189813   9.345   2.519   0.430 -0.5464 -1.1045  0.4917
29745SOL    HW289814   9.267   2.532   0.301  0.1948 -0.0479  0.1278
29746SOL     OW89815   6.603   4.319   7.080  0.4724  0.0269  0.1834
29746SOL    HW189816   6.550   4.369   7.142  0.1212 -1.3127  0.9893
29746SOL    HW289817   6.692   4.350   7.095  0.4939 -0.7313  1.8533
29747SOL     OW89818   4.326   9.639   3.338 -0.0440  0.3094 -0.8016
29747SOL    HW189819   4.288   9.642   3.250 -1.0063  3.9192 -0.3972
29747SOL    HW289820   4.255   9.605   3.393 -0.0243 -0.2718 -1.1186
29748SOL     OW89821   5.465   8.380   4.935 -0.0167 -0.1235 -0.0566
29748SOL    HW189822   5.556   8.407   4.941 -0.3575  0.7533  1.3797
29748SOL    HW289823   5.458   8.304   4.993 -0.1860 -0.2798 -0.2749
29749SOL     OW89824   8.500   2.001   4.569  0.5971 -0.1434  0.4968
29749SOL    HW189825   8.482   2.023   4.477 -1.1645  1.7915  1.2222
29749SOL    HW289826   8.472   1.909   4.577  0.2405 -0.1668 -0.7877
29750SOL     OW89827   0.793   3.673   4.836 -0.3601  0.2163 -0.7900
29750SOL    HW189828   0.734   3.613   4.881 -1.0176  1.9181  0.7048
29750SOL    HW289829   0.740   3.711   4.766 -0.6720  0.8363 -0.2192
29751SOL     OW89830   5.608   0.223   3.447 -0.3388 -0.2185 -0.4018
29751SOL    HW189831   5.605   0.209   3.541 -1.7687 -0.2191 -0.4201
29751SOL    HW289832   5.622   0.318   3.437  0.3843 -0.3014 -0.2025
29752SOL     OW89833   0.495   0.601   4.853  0.4474  0.0284  1.0514
29752SOL    HW189834   0.485   0.636   4.942  0.4167 -0.4521  1.2346
29752SOL    HW289835   0.419   0.544   4.840  0.7148 -0.2933  0.8971
29753SOL     OW89836   3.349   4.599   7.697 -0.2456 -0.1161 -0.1785
29753SOL    HW189837   3.321   4.687   7.721 -0.1894 -0.2218  0.2779
29753SOL    HW289838   3.279   4.566   7.642 -1.1067 -0.4293  1.0696
29754SOL     OW89839   2.381   5.694   9.338 -0.0372 -0.0353  0.5915
29754SOL    HW189840   2.423   5.775   9.364 -0.6120  0.5145 -0.1573
29754SOL    HW289841   2.348   5.711   9.250  2.8973 -2.2022 -1.1089
29755SOL     OW89842   7.229   8.572   2.143 -0.5291 -0.1758  0.6310
29755SOL    HW189843   7.171   8.536   2.209 -0.2562  0.0321  0.9855
29755SOL    HW289844   7.218   8.667   2.150  0.2779 -0.1074  1.0923
29756SOL     OW89845   5.810   3.303   1.571 -0.1470  0.3606 -0.2879
29756SOL    HW189846   5.815   3.350   1.488  0.1764  0.7279 -0.0653
29756SOL    HW289847   5.744   3.351   1.621  0.3048  0.6937  0.0042
29757SOL     OW89848   0.261   3.425   0.398  0.1651 -0.1814  0.1698
29757SOL    HW189849   0.337   3.411   0.341  0.4854 -1.1841  0.8091
29757SOL    HW289850   0.226   3.509   0.371  1.2173  0.0719 -0.4709
29758SOL     OW89851   4.182   8.159   5.783 -0.2215  0.1105  0.4019
29758SOL    HW189852   4.169   8.156   5.877 -1.4893 -0.1569  0.2329
29758SOL    HW289853   4.265   8.206   5.772  1.3221 -2.1243  1.7341
29759SOL     OW89854   6.697   4.867   4.070  0.0954  0.0518  0.7116
29759SOL    HW189855   6.606   4.845   4.050  0.7050 -1.4081 -0.6196
29759SOL    HW289856   6.695   4.962   4.088 -1.3783  0.4258 -1.1486
29760SOL     OW89857   3.256   2.001   0.250 -0.2136  0.0804  0.1418
29760SOL    HW189858   3.267   2.064   0.321 -0.2491  0.7928 -0.4782
29760SOL    HW289859   3.187   2.038   0.195 -1.0168 -1.0391  0.3608
29761SOL     OW89860   9.445   4.043   7.579  0.0990  0.3673  0.1037
29761SOL    HW189861   9.377   4.109   7.579 -1.7396 -1.2954  2.7498
29761SOL    HW289862   9.518   4.084   7.626 -1.1262  0.5164  1.9992
29762SOL     OW89863   9.326   5.023   5.256  0.5466 -0.3415  0.2099
29762SOL    HW189864   9.388   4.969   5.307  1.6666  2.3493  1.9669
29762SOL    HW289865   9.276   5.069   5.323 -0.8876  0.2278 -1.2221
29763SOL     OW89866   5.022   5.365   5.917  0.4820  0.0333 -0.2589
29763SOL    HW189867   5.072   5.297   5.872  1.3734 -0.7964  1.8416
29763SOL    HW289868   5.043   5.352   6.010 -2.3889  0.6860  0.5836
29764SOL     OW89869   1.862   5.356   0.961  0.3406  0.2021 -0.2408
29764SOL    HW189870   1.855   5.263   0.985 -2.4441  0.9452  2.4103
29764SOL    HW289871   1.818   5.362   0.876  0.2834 -0.8519 -0.3050
29765SOL     OW89872   6.149   5.496   5.174  0.5295 -0.3371  0.0604
29765SOL    HW189873   6.104   5.554   5.236 -0.6870  1.5196 -2.3763
29765SOL    HW289874   6.103   5.510   5.091  1.1276 -3.8086 -0.9996
29766SOL     OW89875   1.080   3.976   3.626  0.2418  0.2945 -0.1206
29766SOL    HW189876   0.992   3.975   3.664  0.2987 -1.5310  0.0737
29766SOL    HW289877   1.086   4.060   3.581 -0.5517  1.6856  2.1919
29767SOL     OW89878   7.507   7.007   0.421  0.3987  0.1687 -0.0144
29767SOL    HW189879   7.596   6.985   0.447  0.1849  0.6382  1.1336
29767SOL    HW289880   7.454   6.934   0.453  0.1543  0.6786  0.7624
29768SOL     OW89881   4.543   7.259   8.279 -0.7058 -0.3644 -0.0285
29768SOL    HW189882   4.551   7.354   8.288 -1.1475 -0.4580  1.8331
29768SOL    HW289883   4.633   7.228   8.267 -0.4884  0.2284  0.0536
29769SOL     OW89884   1.324   7.961   1.374  0.1880 -0.4380  0.1588
29769SOL    HW189885   1.353   7.898   1.440 -0.3866  0.4949  1.3325
29769SOL    HW289886   1.289   8.034   1.424 -0.1562  0.3538 -1.1900
29770SOL     OW89887   7.110   4.557   4.045  1.1266 -0.4447  0.1375
29770SOL    HW189888   7.125   4.463   4.032  1.7701 -0.3076 -0.1709
29770SOL    HW289889   7.027   4.574   4.000  0.2411 -1.1376  1.4446
29771SOL     OW89890   4.044   8.728   0.140  0.1863  0.4079  0.4805
29771SOL    HW189891   3.987   8.661   0.102 -0.6109  0.1063  2.1120
29771SOL    HW289892   4.119   8.678   0.174  0.9113  0.6784 -0.6634
29772SOL     OW89893   4.714   7.850   6.740 -0.0041 -0.3358 -0.5882
29772SOL    HW189894   4.697   7.756   6.732 -0.1999 -0.2590 -1.1393
29772SOL    HW289895   4.654   7.879   6.810  2.0074 -1.0913  1.5733
29773SOL     OW89896   5.749   6.373   4.684 -0.2778  0.1543 -0.2198
29773SOL    HW189897   5.715   6.334   4.764 -0.8764 -0.4299 -0.7429
29773SOL    HW289898   5.718   6.464   4.686 -1.6441 -0.2769 -0.5251
29774SOL     OW89899   8.251   5.203   6.774 -0.2104 -0.3167  0.2319
29774SOL    HW189900   8.202   5.266   6.720  0.5812 -0.6439 -0.9083
29774SOL    HW289901   8.323   5.254   6.810 -0.7017 -0.1142  0.9517
29775SOL     OW89902   2.280   1.797   5.994  0.7461 -0.3765  0.0139
29775SOL    HW189903   2.345   1.743   6.039 -0.0151 -1.2894  0.0483
29775SOL    HW289904   2.241   1.738   5.929  0.6410  0.4406 -0.6856
29776SOL     OW89905   1.665   4.777   4.468 -0.4096  0.2765 -0.0156
29776SOL    HW189906   1.735   4.721   4.436 -0.6493 -0.7277  1.1230
29776SOL    HW289907   1.654   4.844   4.401  0.4166 -0.5986 -1.0515
29777SOL     OW89908   5.539   3.305   4.254 -0.5475  0.3270  0.1361
29777SOL    HW189909   5.548   3.214   4.226  0.1448  0.2612  0.5352
29777SOL    HW289910   5.566   3.304   4.346 -0.1898  0.9964  0.0403
29778SOL     OW89911   7.510   0.662   7.096 -0.0927  0.1831  0.0442
29778SOL    HW189912   7.580   0.727   7.088  0.8433 -0.5290  1.9820
29778SOL    HW289913   7.461   0.671   7.014  2.0055  0.9765 -1.2182
29779SOL     OW89914   3.376   8.712   3.336  0.0160 -1.3816 -0.1802
29779SOL    HW189915   3.380   8.714   3.241 -0.2859 -1.4465 -0.1947
29779SOL    HW289916   3.455   8.664   3.362  0.4629 -0.7559 -0.3654
29780SOL     OW89917   4.725   5.943   1.138  0.3108  0.0431 -0.0247
29780SOL    HW189918   4.645   5.893   1.120  1.2694 -1.3532 -0.5904
29780SOL    HW289919   4.695   6.033   1.152 -1.2414 -0.2287 -1.3410
29781SOL     OW89920   0.738   4.413   4.642  0.0130 -0.5977  0.0824
29781SOL    HW189921   0.646   4.416   4.666  0.4247 -0.3101  1.7554
29781SOL    HW289922   0.783   4.455   4.715  1.6035 -2.0358 -0.0071
29782SOL     OW89923   5.096   7.298   4.970  0.3414 -0.1831  0.5109
29782SOL    HW189924   5.163   7.312   4.903  0.8088 -1.2102  0.7350
29782SOL    HW289925   5.056   7.214   4.946 -0.4757  0.1539  0.7003
29783SOL     OW89926   1.799   1.875   6.905  0.2059 -0.2446  0.1775
29783SOL    HW189927   1.856   1.933   6.855 -1.1506 -0.1477 -1.3097
29783SOL    HW289928   1.725   1.930   6.931  0.0881 -0.7221  0.8944
29784SOL     OW89929   6.351   5.342   3.557  0.3897  0.4495 -0.2722
29784SOL    HW189930   6.415   5.287   3.510  0.1779 -1.0403  1.0888
29784SOL    HW289931   6.320   5.404   3.491 -1.2768 -2.6674 -2.7016
29785SOL     OW89932   3.458   1.166   0.660  1.0004 -0.0465  0.1988
29785SOL    HW189933   3.377   1.160   0.710  0.9731  0.6958  0.2466
29785SOL    HW289934   3.459   1.255   0.626  1.2248 -0.4141 -0.7818
29786SOL     OW89935   7.619   7.157   1.244 -0.2002  0.7620 -0.0011
29786SOL    HW189936   7.545   7.113   1.202  0.6309  1.2694 -2.1254
29786SOL    HW289937   7.578   7.220   1.304 -1.4335 -0.2940  0.3250
29787SOL     OW89938   6.227   6.168   3.023 -0.2898 -0.1845  0.3370
29787SOL    HW189939   6.135   6.148   3.009  0.1608 -0.5724 -2.7870
29787SOL    HW289940   6.263   6.087   3.060 -0.9144 -0.5798  0.1047
29788SOL     OW89941   0.182   1.018   8.939  0.7996  0.8954 -0.2681
29788SOL    HW189942   0.148   1.028   8.850  1.6273  0.0545 -0.7020
29788SOL    HW289943   0.271   0.985   8.926  0.5778 -0.2396  0.8816
29789SOL     OW89944   4.540   9.369   7.580  0.0730 -0.3047 -0.4608
29789SOL    HW189945   4.587   9.369   7.663  1.4498  1.9054 -1.1628
29789SOL    HW289946   4.605   9.339   7.516 -0.0278  0.8871 -1.1539
29790SOL     OW89947   0.649   8.565   1.987 -0.6337  0.5819  0.7636
29790SOL    HW189948   0.659   8.536   1.896 -1.4008 -0.1487  0.8938
29790SOL    HW289949   0.609   8.490   2.031 -0.2924  0.9391  1.7020
29791SOL     OW89950   8.502   6.785   3.825  0.3147 -0.1391 -0.2310
29791SOL    HW189951   8.502   6.827   3.911  0.9124 -0.3359 -0.1341
29791SOL    HW289952   8.411   6.791   3.797  0.6477  2.7716 -0.9979
29792SOL     OW89953   5.045   9.553   0.365  0.2487  0.1323 -0.0698
29792SOL    HW189954   5.122   9.539   0.309 -0.0127  0.2936 -0.4727
29792SOL    HW289955   5.072   9.624   0.424  0.6901 -0.3546  0.3297
29793SOL     OW89956   6.413   5.196   8.500 -0.2677  0.1468 -0.4808
29793SOL    HW189957   6.372   5.280   8.523 -0.7964 -0.1103 -0.4683
29793SOL    HW289958   6.352   5.156   8.438 -0.6515 -0.7868  0.4654
29794SOL     OW89959   9.452   0.078   5.716  0.0062 -0.0292 -0.2054
29794SOL    HW189960   9.361   0.051   5.722 -0.1506  0.6993  0.9865
29794SOL    HW289961   9.483   0.040   5.634 -1.5272  0.2032 -0.9173
29795SOL     OW89962   4.284   2.362   1.549  0.2233  0.6674  0.3319
29795SOL    HW189963   4.284   2.428   1.618  2.6561 -0.1377  1.2282
29795SOL    HW289964   4.372   2.367   1.511 -0.5592  0.0399 -1.6833
29796SOL     OW89965   5.578   0.520   4.569 -0.2808  0.0559 -0.1249
29796SOL    HW189966   5.534   0.603   4.589 -1.0779 -0.1797 -0.8249
29796SOL    HW289967   5.580   0.517   4.473  1.7659  0.2983 -0.1314
29797SOL     OW89968   8.344   4.002   4.318  0.0956 -0.0142 -0.5822
29797SOL    HW189969   8.386   3.928   4.274 -0.2822  0.2042 -1.3327
29797SOL    HW289970   8.368   4.078   4.264  1.2838  0.5830  0.7074
29798SOL     OW89971   5.124   9.325   7.658 -0.2938  0.1149  0.1288
29798SOL    HW189972   5.144   9.409   7.616 -0.0815  0.1027  0.2058
29798SOL    HW289973   5.205   9.300   7.701 -0.0927 -0.5650 -0.6259
29799SOL     OW89974   5.448   3.330   1.517  0.0052 -0.3629  0.5951
29799SOL    HW189975   5.399   3.349   1.437  0.7330  0.3137  0.2862
29799SOL    HW289976   5.437   3.408   1.571  1.2708  0.0981  0.2288
29800SOL     OW89977   5.997   4.687   1.375 -0.1749 -0.3348 -0.4988
29800SOL    HW189978   6.008   4.592   1.380  1.1817 -0.2242 -0.8373
29800SOL    HW289979   5.985   4.705   1.282 -0.3765 -0.1684 -0.4406
29801SOL     OW89980   9.521   6.750   9.880  0.1709  0.1349  0.2270
29801SOL    HW189981   9.489   6.840   9.880  0.8314  0.4885  3.0997
29801SOL    HW289982   9.442   6.696   9.876 -0.2593  0.8177 -0.9854
29802SOL     OW89983   9.413   4.351   0.066 -0.2787  0.2795  0.1406
29802SOL    HW189984   9.417   4.445   0.083 -0.2675  0.4724 -0.8683
29802SOL    HW289985   9.323   4.335   0.039 -0.1289  0.1092 -0.2665
29803SOL     OW89986   2.888   0.249   2.635 -0.1359  0.2225  0.2935
29803SOL    HW189987   2.848   0.189   2.572 -0.4141 -0.0421  0.7175
29803SOL    HW289988   2.878   0.205   2.720 -1.0420  1.2090  0.7176
29804SOL     OW89989   1.930   4.918   3.963 -0.4548 -0.6043 -0.3071
29804SOL    HW189990   1.837   4.916   3.940 -0.3336  0.6350 -0.9519
29804SOL    HW289991   1.962   4.831   3.937 -1.0188 -0.3799 -1.8707
29805SOL     OW89992   8.678   5.580   6.171  0.5323  0.3109  0.1801
29805SOL    HW189993   8.628   5.638   6.228  1.6292 -0.6898  2.2831
29805SOL    HW289994   8.748   5.636   6.136 -0.3155  1.0029 -0.4638
29806SOL     OW89995   4.994   0.340   7.061  0.0194 -0.0398  0.6256
29806SOL    HW189996   4.951   0.392   6.994  0.8935  1.1971  1.0015
29806SOL    HW289997   4.945   0.357   7.141  1.0851  1.2820  1.0304
29807SOL     OW89998   3.912   1.099   9.781  0.5195  0.1302  0.2345
29807SOL    HW189999   3.855   1.102   9.704 -0.1319 -0.0935  0.6993
29807SOL    HW290000   3.854   1.121   9.854  1.1237  0.2965  0.6660
29808SOL     OW90001   6.837   8.784   6.625  0.2785 -0.2570 -0.2380
29808SOL    HW190002   6.773   8.853   6.643 -1.3189 -1.6466 -0.3869
29808SOL    HW290003   6.909   8.829   6.580 -0.5520  1.3569 -0.0164
29809SOL     OW90004   5.432   2.228   5.180  0.2531  0.3334 -0.3702
29809SOL    HW190005   5.479   2.170   5.241 -0.0468 -0.8315 -1.2050
29809SOL    HW290006   5.340   2.203   5.189  0.2846 -0.3982 -1.8289
29810SOL     OW90007   1.221   0.718   6.332 -0.6213 -0.4263 -0.2382
29810SOL    HW190008   1.172   0.664   6.395 -1.0809 -0.0733 -0.2818
29810SOL    HW290009   1.284   0.659   6.293 -0.5220 -0.7222  0.3547
29811SOL     OW90010   1.611   5.124   4.733  0.5152 -0.5476  0.7249
29811SOL    HW190011   1.532   5.071   4.718 -1.2097  2.2315 -0.8146
29811SOL    HW290012   1.583   5.193   4.792  2.4610 -0.7101  1.9348
29812SOL     OW90013   2.741   4.117   1.901  0.0256  0.3864  0.5532
29812SOL    HW190014   2.827   4.100   1.862 -1.0441 -1.0444 -1.3167
29812SOL    HW290015   2.739   4.212   1.913  1.0057  0.7232 -1.5136
29813SOL     OW90016   9.703   5.831   7.601  0.5868 -0.9758  0.6361
29813SOL    HW190017   9.713   5.781   7.682 -0.0256 -0.5094  1.0090
29813SOL    HW290018   9.611   5.856   7.600  0.8573  0.0454  0.4063
29814SOL     OW90019   1.128   2.132   0.143 -0.0991 -0.0204  0.2867
29814SOL    HW190020   1.209   2.154   0.190 -0.6481  1.3294  0.6511
29814SOL    HW290021   1.060   2.133   0.210 -0.9535  2.2518 -0.4879
29815SOL     OW90022   4.999   4.971   9.863 -0.0941  0.0788 -0.1342
29815SOL    HW190023   4.941   4.902   9.830  1.1836  0.1611 -2.8681
29815SOL    HW290024   4.964   5.052   9.825 -0.8251  0.8170  1.9963
29816SOL     OW90025   2.662   3.417   9.304 -0.0359  0.5451  0.0160
29816SOL    HW190026   2.691   3.507   9.318 -2.0640  1.3310 -0.4941
29816SOL    HW290027   2.656   3.380   9.393 -0.1053  1.2407  0.3121
29817SOL     OW90028   0.219   1.067   4.126  0.0660 -0.5085 -0.0123
29817SOL    HW190029   0.144   1.103   4.173  0.3494  1.0393 -0.6708
29817SOL    HW290030   0.265   1.013   4.191 -0.4494  0.2471  1.0021
29818SOL     OW90031   6.590   0.128   7.731  0.2185  0.6984 -0.4911
29818SOL    HW190032   6.580   0.035   7.712 -1.8670  1.1391 -1.8661
29818SOL    HW290033   6.684   0.143   7.726  0.6885 -1.4700  0.5957
29819SOL     OW90034   5.867   4.345   5.996 -0.3933 -0.2560  0.3775
29819SOL    HW190035   5.862   4.366   5.903  1.4845 -1.0152  0.0560
29819SOL    HW290036   5.819   4.415   6.040 -0.9616  0.3211 -1.1276
29820SOL     OW90037   2.403   2.787   7.188  0.2970  0.1002 -0.6284
29820SOL    HW190038   2.392   2.707   7.239 -0.5694  0.9002  0.4855
29820SOL    HW290039   2.316   2.803   7.150 -0.9593  2.9402  2.8976
29821SOL     OW90040   5.219   6.317   4.876  0.2794 -0.1412  0.2423
29821SOL    HW190041   5.284   6.375   4.916 -0.3993 -0.0203  1.1965
29821SOL    HW290042   5.160   6.295   4.948  0.8046 -2.4398  0.0297
29822SOL     OW90043   0.807   7.922   1.817  0.0542  0.1356 -0.7915
29822SOL    HW190044   0.723   7.907   1.862 -0.0829  0.6900 -0.8500
29822SOL    HW290045   0.867   7.949   1.887  0.2581 -0.5149 -0.7096
29823SOL     OW90046   5.624   0.755   6.272 -0.0588 -0.0277 -0.0086
29823SOL    HW190047   5.541   0.729   6.232 -0.6116 -0.8964  1.6394
29823SOL    HW290048   5.685   0.685   6.247 -0.0303  0.1662 -0.4967
29824SOL     OW90049   1.896   9.810   3.261 -0.0557  0.0396  0.5434
29824SOL    HW190050   1.830   9.766   3.315 -0.8529 -0.2766 -0.6483
29824SOL    HW290051   1.977   9.763   3.281 -0.5546 -0.8307  0.6036
29825SOL     OW90052   5.684   7.042   4.276  0.0280  0.4347 -0.8904
29825SOL    HW190053   5.685   7.119   4.333 -0.0707  1.3409 -2.0765
29825SOL    HW290054   5.775   7.013   4.274 -0.0310  0.1611  0.0243
29826SOL     OW90055   5.277   0.873   8.534 -0.5645 -0.0010 -0.1114
29826SOL    HW190056   5.262   0.780   8.519 -0.6464 -0.2406  1.3694
29826SOL    HW290057   5.197   0.904   8.576 -0.9410  0.9794 -1.4843
29827SOL     OW90058   1.464   8.090   6.522 -0.2329  0.1641 -0.2449
29827SOL    HW190059   1.434   8.002   6.498  0.7691  0.0146 -1.0214
29827SOL    HW290060   1.421   8.108   6.606 -1.1365 -0.7075 -0.5064
29828SOL     OW90061   3.622   1.858   0.127 -0.1680 -0.3175 -0.4402
29828SOL    HW190062   3.696   1.805   0.155  0.2080 -0.1442 -1.1044
29828SOL    HW290063   3.597   1.823   0.042  2.1810  2.5843 -2.5287
29829SOL     OW90064   7.749   1.413   3.043  0.6555  0.4115 -0.3673
29829SOL    HW190065   7.760   1.395   3.137  1.0522 -1.2084 -0.6878
29829SOL    HW290066   7.838   1.426   3.010  0.5140  1.0250 -0.5284
29830SOL     OW90067   0.212   6.299   6.316  0.2269  0.3437 -0.5259
29830SOL    HW190068   0.218   6.378   6.263 -0.9299  1.2720  0.6563
29830SOL    HW290069   0.128   6.260   6.291  1.6772 -1.6748 -2.5826
29831SOL     OW90070   7.832   0.983   0.953  0.3051  0.1767  0.3426
29831SOL    HW190071   7.913   1.027   0.976 -0.7242  0.9979  2.7138
29831SOL    HW290072   7.849   0.890   0.971  1.5525 -0.1027 -1.9153
29832SOL     OW90073   5.247   7.639   1.371  0.1492  0.2156  0.0089
29832SOL    HW190074   5.267   7.711   1.311 -1.3699  0.8085  0.1714
29832SOL    HW290075   5.239   7.562   1.315 -0.7582  0.6716 -0.5053
29833SOL     OW90076   2.166   5.428   0.748  0.2802 -0.1976  0.3682
29833SOL    HW190077   2.137   5.426   0.839  0.6887 -1.5504  0.4842
29833SOL    HW290078   2.158   5.520   0.722 -0.0435  0.1606  1.6973
29834SOL     OW90079   4.992   3.767   6.288 -0.1311 -0.3229 -0.0023
29834SOL    HW190080   4.934   3.691   6.289  0.8622 -1.0970 -0.1918
29834SOL    HW290081   5.073   3.736   6.247 -0.0427  1.0909 -0.9856
29835SOL     OW90082   4.751   9.745   5.686  0.3370 -0.1060 -0.4326
29835SOL    HW190083   4.843   9.723   5.672  0.0243 -0.6101 -1.8268
29835SOL    HW290084   4.749   9.788   5.772  2.2789  2.3640 -1.5127
29836SOL     OW90085   3.382   5.611   8.323  0.0273 -0.6635  0.3856
29836SOL    HW190086   3.329   5.605   8.244 -0.5814  1.5085  0.5669
29836SOL    HW290087   3.473   5.607   8.292 -0.2183 -0.5146 -0.3545
29837SOL     OW90088   7.053   8.144   6.688  0.1786  0.7593  0.0209
29837SOL    HW190089   7.082   8.223   6.734 -0.8303  1.2268 -0.1100
29837SOL    HW290090   6.987   8.106   6.746  0.9025 -0.1799  0.2363
29838SOL     OW90091   6.014   6.297   1.860  0.8600 -0.5277 -0.3686
29838SOL    HW190092   6.001   6.214   1.814  1.9301 -0.7659 -0.2514
29838SOL    HW290093   6.059   6.353   1.797 -0.2965  0.1584 -0.6278
29839SOL     OW90094   1.449   3.396   7.216 -0.0139 -0.2236 -0.1823
29839SOL    HW190095   1.400   3.314   7.205 -0.4571 -0.0226  0.2659
29839SOL    HW290096   1.385   3.457   7.253  0.4601  0.1665 -0.0012
29840SOL     OW90097   9.963   2.346   0.365 -0.0123 -0.1130 -0.1061
29840SOL    HW190098   9.962   2.410   0.436 -0.7841 -0.2486  0.0138
29840SOL    HW290099   9.982   2.263   0.409  5.5039  0.4730 -0.7008
29841SOL     OW90100   2.003   6.877   7.150  0.3640 -0.2531 -0.0138
29841SOL    HW190101   1.913   6.876   7.180  0.3149 -0.9215 -0.1830
29841SOL    HW290102   2.005   6.819   7.074  0.8485  0.0744 -0.2613
29842SOL     OW90103   6.736   0.545   6.295  0.1300  0.0477 -0.4462
29842SOL    HW190104   6.807   0.602   6.265  1.9248 -1.1911  1.1583
29842SOL    HW290105   6.762   0.458   6.265 -0.8218 -0.4004  0.0047
29843SOL     OW90106   9.455   6.318   3.224 -0.2070 -0.1825  0.2510
29843SOL    HW190107   9.485   6.400   3.264 -0.5089 -0.3584  0.8405
29843SOL    HW290108   9.438   6.342   3.132  0.1152  0.3132  0.3147
29844SOL     OW90109   3.187   6.925   9.185 -0.6095 -0.2230 -0.3051
29844SOL    HW190110   3.113   6.910   9.245  0.5997  1.1149  1.6179
29844SOL    HW290111   3.198   6.841   9.140 -2.7456 -0.7081 -0.0284
29845SOL     OW90112   7.601   0.387   7.108 -0.2779  0.1646 -0.6001
29845SOL    HW190113   7.565   0.474   7.090 -0.4585  0.4630  1.0458
29845SOL    HW290114   7.630   0.355   7.022 -0.3003  1.7972 -1.2585
29846SOL     OW90115   0.065   3.896   0.693  0.4796 -0.0247  0.1569
29846SOL    HW190116   0.011   3.967   0.726  1.3693 -0.3779  2.5904
29846SOL    HW290117   0.020   3.816   0.722  0.4272 -0.4304 -0.9840
29847SOL     OW90118   2.131   8.761   2.628 -0.3778 -0.2955  0.5504
29847SOL    HW190119   2.147   8.835   2.686  1.7716 -1.2687  1.2608
29847SOL    HW290120   2.155   8.684   2.678 -0.9336 -1.3805 -0.7668
29848SOL     OW90121   2.769   9.683   0.852 -0.1119  0.1937 -0.5924
29848SOL    HW190122   2.764   9.755   0.915  0.0935  0.7407 -1.1743
29848SOL    HW290123   2.813   9.613   0.898 -2.2010 -0.3634  0.6960
29849SOL     OW90124   2.713   0.133   7.621 -0.4890 -0.1402  0.4071
29849SOL    HW190125   2.731   0.192   7.695 -0.6483 -0.4569  0.6972
29849SOL    HW290126   2.654   0.183   7.565  1.4302  1.0345 -0.6954
29850SOL     OW90127   2.416   3.894   0.025  0.0786  0.3237 -0.2776
29850SOL    HW190128   2.381   3.806   0.040  0.7420  0.0068 -0.5227
29850SOL    HW290129   2.397   3.942   0.105  2.1078 -0.8473  1.0079
29851SOL     OW90130   9.957   8.247   7.570  0.6486  0.0930  0.2223
29851SOL    HW190131   9.872   8.220   7.537  1.1633 -1.1069 -0.1549
29851SOL    HW290132   9.940   8.331   7.614 -1.0859 -1.0423  1.8540
29852SOL     OW90133   7.653   1.040   3.378  0.2339 -0.2074 -1.1960
29852SOL    HW190134   7.592   0.997   3.318  0.3392 -1.4137 -0.4782
29852SOL    HW290135   7.598   1.102   3.427 -1.4926 -3.9048  2.1853
29853SOL     OW90136   5.189   2.455   6.243 -0.2136  0.7186 -0.4471
29853SOL    HW190137   5.120   2.450   6.309  0.8774 -0.7537  0.6504
29853SOL    HW290138   5.153   2.512   6.175 -1.5992  1.8220  1.1305
29854SOL     OW90139   1.480   0.868   7.136  0.0248 -0.3381  0.1060
29854SOL    HW190140   1.456   0.776   7.122 -0.7895 -0.4071  1.7627
29854SOL    HW290141   1.435   0.915   7.066  2.2552 -1.3547 -2.2008
29855SOL     OW90142   0.691   8.803   1.804  0.0553  0.3182 -0.2181
29855SOL    HW190143   0.723   8.877   1.855  0.4545 -0.0345  0.0578
29855SOL    HW290144   0.628   8.760   1.861 -1.0935  1.1232 -0.8346
29856SOL     OW90145   2.598   8.326   7.770  0.0388  0.4900 -0.2538
29856SOL    HW190146   2.555   8.394   7.718  0.3327 -0.0834 -1.2656
29856SOL    HW290147   2.560   8.336   7.857 -0.7055  1.2598 -0.6458
29857SOL     OW90148   2.314   4.684   0.574  0.5401 -0.0068 -0.2807
29857SOL    HW190149   2.295   4.651   0.662  0.5863  0.1505 -0.2118
29857SOL    HW290150   2.273   4.620   0.515  0.6075 -0.1738 -0.1478
29858SOL     OW90151   9.090   4.480   5.644  0.4507  0.2476  0.2042
29858SOL    HW190152   9.108   4.447   5.556 -0.5918 -0.6940  0.3119
29858SOL    HW290153   9.003   4.445   5.665  0.4849  0.8422  1.4227
29859SOL     OW90154   6.891   8.695   2.010  0.7851  0.0409  0.5066
29859SOL    HW190155   6.948   8.624   1.980  0.0204 -0.2263 -0.3509
29859SOL    HW290156   6.950   8.770   2.018  1.5411 -0.5982  1.0936
29860SOL     OW90157   1.588   1.744   6.740 -0.2045 -0.0694 -0.2059
29860SOL    HW190158   1.674   1.786   6.744 -0.1058 -0.3616  0.8625
29860SOL    HW290159   1.546   1.768   6.822 -0.6913 -0.9074 -0.2028
29861SOL     OW90160   7.730   3.972   1.781  0.4359  0.6348  0.8257
29861SOL    HW190161   7.667   3.912   1.821 -0.3166  0.9538  0.1447
29861SOL    HW290162   7.754   4.031   1.853 -1.4394  1.6425  0.7161
29862SOL     OW90163   3.845   5.956   9.933 -0.0407 -0.1300  0.8107
29862SOL    HW190164   3.898   6.034   9.918  1.1100 -1.1617 -0.7165
29862SOL    HW290165   3.816   5.964  10.024 -0.0312  2.1005  0.6793
29863SOL     OW90166   6.327   4.183   4.628 -0.3393 -0.2571 -0.4251
29863SOL    HW190167   6.369   4.269   4.627 -1.7095  0.4672  0.5465
29863SOL    HW290168   6.399   4.122   4.640  0.6885  0.7241 -1.3008
29864SOL     OW90169   3.519   1.464   7.726  0.0868 -0.0191  0.1035
29864SOL    HW190170   3.584   1.395   7.733 -0.4553 -0.3997  1.7253
29864SOL    HW290171   3.557   1.526   7.664  0.9013 -1.3923 -0.8281
29865SOL     OW90172   2.963   7.711   1.821 -0.4144 -0.2033 -0.0555
29865SOL    HW190173   3.029   7.679   1.881  1.1278  1.4860 -0.7741
29865SOL    HW290174   2.996   7.689   1.734  0.4145  2.5441 -0.5555
29866SOL     OW90175   0.114   9.008   6.850 -0.4751  0.3920  0.4014
29866SOL    HW190176   0.040   9.059   6.882  0.9575  1.9916  1.3061
29866SOL    HW290177   0.138   8.952   6.924  0.8651  1.8224  1.0934
29867SOL     OW90178   6.801   8.688   2.280 -0.3664  0.0287 -0.5721
29867SOL    HW190179   6.829   8.776   2.306 -0.2469  0.0260 -0.6911
29867SOL    HW290180   6.809   8.688   2.185 -0.1208 -0.1932 -0.5535
29868SOL     OW90181   6.602   8.198   3.106 -0.4799  0.0838  0.4596
29868SOL    HW190182   6.619   8.178   3.014  0.4278  0.1847  0.5958
29868SOL    HW290183   6.565   8.118   3.142  0.9812 -0.6191  0.4611
29869SOL     OW90184   5.955   6.820   2.097  0.0761  0.5359 -0.4241
29869SOL    HW190185   5.875   6.770   2.118 -0.0468  1.1829  0.6847
29869SOL    HW290186   6.009   6.758   2.048  0.7038 -1.3585  2.4404
29870SOL     OW90187   7.131   0.526   0.421  0.0044 -0.4881  0.0204
29870SOL    HW190188   7.134   0.596   0.356  1.5215 -0.8286 -0.3031
29870SOL    HW290189   7.041   0.493   0.416 -0.2424  0.2836 -1.0352
29871SOL     OW90190   4.803   8.783   7.353  0.8716 -0.6941 -0.4965
29871SOL    HW190191   4.869   8.829   7.406 -0.6527 -0.5281  1.3830
29871SOL    HW290192   4.750   8.853   7.314 -0.4204 -0.7776  1.0113
29872SOL     OW90193   6.202   4.290   9.881  0.2940  0.3780  0.1527
29872SOL    HW190194   6.264   4.362   9.884  1.2383 -0.3345 -1.1069
29872SOL    HW290195   6.235   4.232   9.812 -1.4892 -0.2917 -0.2120
29873SOL     OW90196   4.289   6.343   1.540  0.4637  0.1180 -0.0646
29873SOL    HW190197   4.261   6.422   1.587 -0.8118  0.1428 -0.8079
29873SOL    HW290198   4.207   6.303   1.511  1.1494 -0.9051 -0.6324
29874SOL     OW90199   4.600   0.770   7.434 -0.7181  0.0693 -0.2944
29874SOL    HW190200   4.583   0.864   7.431 -1.5534 -0.0434  0.4021
29874SOL    HW290201   4.642   0.756   7.519 -0.0743 -0.1176 -0.6339
29875SOL     OW90202   5.742   3.493   5.564  0.2518  0.3213  0.8559
29875SOL    HW190203   5.683   3.470   5.636 -1.2013  1.6632  0.1565
29875SOL    HW290204   5.722   3.584   5.545  2.1356  0.6250  0.1375
29876SOL     OW90205   2.643   5.355   6.244  0.2770  0.1045  0.2520
29876SOL    HW190206   2.634   5.360   6.339 -1.8370  1.2835  0.0369
29876SOL    HW290207   2.685   5.438   6.219  1.8052 -0.6402  0.1978
29877SOL     OW90208   0.299   5.620   3.196  0.0465  0.5598 -0.2825
29877SOL    HW190209   0.275   5.653   3.283 -0.2318  1.7215 -0.7780
29877SOL    HW290210   0.297   5.698   3.140 -0.3119 -0.2600 -1.4397
29878SOL     OW90211   3.519   7.953   1.014  0.2143 -0.8622 -0.1076
29878SOL    HW190212   3.592   7.895   0.992 -0.6453 -2.2674  0.6069
29878SOL    HW290213   3.443   7.895   1.019 -0.9675  0.5552 -0.7993
29879SOL     OW90214   5.596   0.876   3.805  0.0690  0.1626  0.7039
29879SOL    HW190215   5.648   0.904   3.730 -0.3730  0.4907  0.5174
29879SOL    HW290216   5.641   0.797   3.837 -0.0665 -0.3194 -0.2604
29880SOL     OW90217   5.068   3.880   8.564  0.1031  0.4400  0.5620
29880SOL    HW190218   4.988   3.930   8.548  1.1435  2.6499  1.7280
29880SOL    HW290219   5.124   3.941   8.613  1.6949 -1.7249  1.5942
29881SOL     OW90220   9.776   9.649   5.758  0.2513  0.3891 -0.3014
29881SOL    HW190221   9.749   9.656   5.666 -1.1237 -0.2420  0.0284
29881SOL    HW290222   9.722   9.579   5.794  1.8005 -0.3677  0.6465
29882SOL     OW90223   3.784   4.249   6.221 -0.4202  0.1084 -0.6794
29882SOL    HW190224   3.848   4.291   6.163 -2.0460  2.2129 -1.0716
29882SOL    HW290225   3.765   4.165   6.179  3.4001 -1.5485  0.4487
29883SOL     OW90226   1.762   2.853   9.277  0.0705 -0.5185 -0.5639
29883SOL    HW190227   1.707   2.781   9.307 -0.4565 -0.2284 -0.8027
29883SOL    HW290228   1.802   2.888   9.356  1.2580 -1.7953 -0.5581
29884SOL     OW90229   9.400   5.207   7.206  0.4922 -0.4603 -0.3029
29884SOL    HW190230   9.483   5.163   7.226  0.0203 -2.0056 -1.5090
29884SOL    HW290231   9.422   5.270   7.138  0.6100 -1.3207 -1.0936
29885SOL     OW90232   4.492   9.556   4.135  0.2674  0.4478 -0.3647
29885SOL    HW190233   4.475   9.545   4.228 -0.7752  1.4579 -0.4221
29885SOL    HW290234   4.411   9.528   4.092 -0.2191  2.4021 -0.8128
29886SOL     OW90235   3.543   8.094   8.914  0.6559  0.1591  0.4035
29886SOL    HW190236   3.603   8.139   8.974  1.2152 -0.6013  0.4310
29886SOL    HW290237   3.506   8.164   8.860  0.7203  0.7654  1.1300
29887SOL     OW90238   6.699   8.023   8.014 -0.4210  0.3175 -0.1627
29887SOL    HW190239   6.711   8.071   7.932  1.1535  0.5035  0.1332
29887SOL    HW290240   6.679   8.090   8.078  2.3079  0.7795  0.3603
29888SOL     OW90241   4.062   1.287   1.686  0.0994 -0.2207 -0.4020
29888SOL    HW190242   4.149   1.322   1.706 -0.4543  1.3748 -0.6509
29888SOL    HW290243   4.007   1.319   1.757 -0.2809 -1.2973 -0.1996
29889SOL     OW90244   0.034   5.675   4.825 -0.0047 -0.4727 -0.0245
29889SOL    HW190245   0.125   5.645   4.831 -0.0355 -0.8594 -1.2245
29889SOL    HW290246   0.035   5.741   4.756 -0.2938  1.0181  1.3188
29890SOL     OW90247   9.705   6.919   0.046 -0.4232  0.3238 -0.4185
29890SOL    HW190248   9.673   6.848   0.102 -0.6554 -0.5948 -1.6639
29890SOL    HW290249   9.639   6.927  -0.023  0.3509  0.7143 -1.1377
29891SOL     OW90250   1.187   2.752   0.724 -0.0585 -0.4772 -0.1101
29891SOL    HW190251   1.168   2.784   0.812 -1.0322 -0.6327 -0.2544
29891SOL    HW290252   1.281   2.731   0.726  0.3261  1.1605  0.3613
29892SOL     OW90253   5.532   3.672   4.795 -0.4760  0.4003 -0.3109
29892SOL    HW190254   5.490   3.700   4.714 -1.5466  0.5088  0.2727
29892SOL    HW290255   5.561   3.583   4.778 -0.0416  0.6733 -1.0501
29893SOL     OW90256   5.002   9.603   3.337  0.0660 -0.2473 -0.2715
29893SOL    HW190257   4.950   9.537   3.384 -0.6584 -0.0313 -0.7540
29893SOL    HW290258   4.964   9.605   3.249  1.3149 -0.5300 -0.8316
29894SOL     OW90259   1.709   6.546   0.147  0.1081  0.1609 -0.5657
29894SOL    HW190260   1.718   6.451   0.146  1.2516  0.2123  1.0634
29894SOL    HW290261   1.617   6.561   0.168  0.1295 -0.6092  0.1207
29895SOL     OW90262   7.005   6.620   3.523 -0.2797  0.2526 -0.0696
29895SOL    HW190263   7.023   6.629   3.617 -0.6897 -1.0126  0.1495
29895SOL    HW290264   6.925   6.567   3.519 -0.9190  1.2569 -1.1227
29896SOL     OW90265   2.656   8.351   2.064 -0.2121 -0.1384 -0.5107
29896SOL    HW190266   2.748   8.364   2.086 -0.2753 -1.4315  0.6625
29896SOL    HW290267   2.616   8.437   2.075  0.3548 -0.0993  1.6074
29897SOL     OW90268   8.576   1.802   8.179 -0.3613  0.2298  0.0830
29897SOL    HW190269   8.600   1.894   8.192  0.9975  0.0197 -0.6620
29897SOL    HW290270   8.601   1.785   8.088 -0.6724 -0.8507  0.1992
29898SOL     OW90271   0.922   7.565   5.559 -0.6616  0.3330  0.2157
29898SOL    HW190272   0.921   7.552   5.464 -0.6142  1.8584 -0.0183
29898SOL    HW290273   0.886   7.484   5.594 -1.1679 -0.0587 -1.1269
29899SOL     OW90274   7.980   9.527   5.109 -0.5847 -0.7520  0.1349
29899SOL    HW190275   8.041   9.463   5.146  2.0115  0.8997 -0.9820
29899SOL    HW290276   8.017   9.548   5.024 -2.7252  0.4576 -0.5669
29900SOL     OW90277   3.867   3.202   5.840 -0.1570 -0.3450 -0.2652
29900SOL    HW190278   3.841   3.154   5.918  1.4393  0.1649  0.6202
29900SOL    HW290279   3.923   3.273   5.872 -1.5452  1.4707 -1.6457
29901SOL     OW90280   0.582   3.710   2.197  0.4248  0.5013 -0.8212
29901SOL    HW190281   0.670   3.705   2.235  0.3677  1.6377 -0.4959
29901SOL    HW290282   0.593   3.678   2.108  1.0147 -0.0978 -0.5425
29902SOL     OW90283   0.672   4.292   5.007 -0.5597  0.1864 -0.5708
29902SOL    HW190284   0.648   4.383   4.988 -1.7383 -0.4841 -2.6019
29902SOL    HW290285   0.762   4.284   4.975  0.1351  1.0149  1.0796
29903SOL     OW90286   3.580   3.827   0.027 -0.0590 -0.1634  0.7200
29903SOL    HW190287   3.639   3.878  -0.028 -1.3780  1.3581  0.6603
29903SOL    HW290288   3.608   3.846   0.117  0.8804 -1.1580  0.6621
29904SOL     OW90289   1.653   2.892   1.404 -0.1947 -0.2893  0.0556
29904SOL    HW190290   1.710   2.838   1.350 -1.2064  0.7950 -2.2199
29904SOL    HW290291   1.573   2.841   1.414 -0.5001  0.0471 -0.6189
29905SOL     OW90292   7.757   0.827   8.996  0.5376 -0.4228 -0.1455
29905SOL    HW190293   7.672   0.855   8.962  0.5768 -0.6204 -0.4140
29905SOL    HW290294   7.744   0.820   9.090  1.0961  2.5670  0.2567
29906SOL     OW90295   9.894   4.431   8.631 -0.0277 -0.3840 -0.0962
29906SOL    HW190296   9.818   4.422   8.573  1.7351  1.2612 -2.9480
29906SOL    HW290297   9.927   4.342   8.642 -1.2936 -0.9059 -0.3722
29907SOL     OW90298   3.884   8.772   3.225 -0.7348  0.3368  0.5701
29907SOL    HW190299   3.974   8.745   3.206 -0.2559  0.8214  2.0081
29907SOL    HW290300   3.889   8.815   3.311 -2.2571  0.8123  0.4599
29908SOL     OW90301   0.165   9.870   1.855  0.1662  0.2588  0.2810
29908SOL    HW190302   0.187   9.866   1.948  1.5761  0.8252  0.0094
29908SOL    HW290303   0.135   9.960   1.841  1.9287  0.8300 -0.1581
29909SOL     OW90304   8.052   3.821   0.189 -0.0707  0.4963  0.0929
29909SOL    HW190305   7.977   3.763   0.182  0.4726 -0.0217 -2.4757
29909SOL    HW290306   8.028   3.898   0.138  1.2425  0.1518 -1.1043
29910SOL     OW90307   4.835   0.099   4.449  0.3097 -0.1286 -0.1637
29910SOL    HW190308   4.795   0.115   4.364  0.7125  1.8244 -0.0308
29910SOL    HW290309   4.766   0.118   4.512  0.0038 -1.6026 -0.0126
29911SOL     OW90310   6.686   2.547   8.665  0.7058  0.1333  0.3926
29911SOL    HW190311   6.771   2.527   8.703  0.6118 -1.0959 -0.0124
29911SOL    HW290312   6.624   2.535   8.737  0.8230  0.6005  0.5743
29912SOL     OW90313   9.661   5.407   3.862 -0.1895  0.1895  0.2315
29912SOL    HW190314   9.714   5.459   3.922 -1.6450  1.3110  0.5812
29912SOL    HW290315   9.582   5.458   3.848 -0.2955 -0.4708 -1.9368
29913SOL     OW90316   5.803   3.387   8.789  0.2926  0.1245  0.4203
29913SOL    HW190317   5.789   3.420   8.700 -1.5253 -1.6129 -0.0043
29913SOL    HW290318   5.862   3.312   8.777  3.4597  2.2589  1.2484
29914SOL     OW90319   3.008   2.220   5.483 -0.3131 -0.0997  0.2817
29914SOL    HW190320   3.098   2.251   5.472 -0.2349  0.0630  1.2451
29914SOL    HW290321   2.986   2.180   5.399  0.0754  1.3142 -0.5242
29915SOL     OW90322   2.910   8.151   4.786 -0.0435  0.4107  0.0149
29915SOL    HW190323   2.842   8.193   4.734  1.2167  1.1048 -1.1357
29915SOL    HW290324   2.877   8.062   4.801 -1.7000  1.0754  0.4941
29916SOL     OW90325   3.511   1.978   2.386  0.1038  0.1073 -0.2758
29916SOL    HW190326   3.527   1.966   2.293 -0.1626  0.5241 -0.3801
29916SOL    HW290327   3.555   1.905   2.428 -0.5993 -0.6358 -0.8036
29917SOL     OW90328   8.929   1.756   9.128 -0.0504  0.1691 -0.1870
29917SOL    HW190329   8.933   1.702   9.207  0.9641  1.1447  0.4660
29917SOL    HW290330   8.863   1.822   9.148 -1.1271 -0.6530 -0.8980
29918SOL     OW90331   3.870   9.766   2.792  0.0190 -0.6104 -0.1260
29918SOL    HW190332   3.870   9.826   2.718 -1.2205 -0.2123  0.1690
29918SOL    HW290333   3.883   9.679   2.753  0.6247 -0.2817 -0.6717
29919SOL     OW90334   2.638   1.500   5.286  0.0637  0.8706 -0.2618
29919SOL    HW190335   2.587   1.557   5.343 -1.2222 -1.1245  0.6978
29919SOL    HW290336   2.573   1.460   5.228  0.9705  0.5647 -1.0964
29920SOL     OW90337   0.713   6.169   1.842  0.5860 -0.1119 -0.6758
29920SOL    HW190338   0.736   6.142   1.753  1.7238 -0.6947 -0.2223
29920SOL    HW290339   0.722   6.090   1.894  1.7428  0.6080  0.2729
29921SOL     OW90340   9.030   5.299   8.510 -0.0181  0.2707  0.3598
29921SOL    HW190341   9.067   5.386   8.521  1.0814 -0.3374  1.7315
29921SOL    HW290342   9.068   5.267   8.428  1.6466  0.1121  1.1548
29922SOL     OW90343   6.392   9.944   6.585 -0.0282  0.5134  0.0076
29922SOL    HW190344   6.483   9.917   6.603 -0.8112 -2.9474 -0.4490
29922SOL    HW290345   6.387   9.947   6.490 -0.7248 -0.8336 -0.0168
29923SOL     OW90346   6.450   4.548   6.408  0.4216  0.0966 -0.3083
29923SOL    HW190347   6.489   4.510   6.329  2.6822 -1.7319  1.5488
29923SOL    HW290348   6.404   4.475   6.450  0.3788  0.7004  0.7310
29924SOL     OW90349   3.902   0.712   1.745  0.3671  0.1864 -0.2737
29924SOL    HW190350   3.945   0.648   1.689 -2.3414 -2.0302 -0.0840
29924SOL    HW290351   3.867   0.778   1.685 -0.2373 -0.7318 -0.9536
29925SOL     OW90352   1.682   7.842   4.283 -0.6983  0.0006 -0.2704
29925SOL    HW190353   1.709   7.910   4.221 -0.0321 -0.4618 -0.5040
29925SOL    HW290354   1.720   7.762   4.248 -1.8661 -0.5807 -0.2470
29926SOL     OW90355   8.477   8.071   9.547  0.1516 -0.6682  0.1125
29926SOL    HW190356   8.546   8.008   9.570  1.6682  0.6579 -0.6395
29926SOL    HW290357   8.432   8.031   9.472  0.4854 -1.2708  0.2247
29927SOL     OW90358   1.176   8.231   2.926  0.5809 -0.1816 -0.4620
29927SOL    HW190359   1.096   8.179   2.916  0.6559  0.0304 -3.0705
29927SOL    HW290360   1.226   8.186   2.994 -0.8908 -1.4498 -0.1462
29928SOL     OW90361   6.363   6.141   6.814  0.0343  0.7518  0.0446
29928SOL    HW190362   6.435   6.169   6.757  0.2922 -0.8748 -0.4723
29928SOL    HW290363   6.300   6.213   6.809  0.9956  1.5816 -0.6101
29929SOL     OW90364   2.394   5.823   1.475  0.3724  0.5418  0.1069
29929SOL    HW190365   2.471   5.843   1.528  0.7150  1.0780 -0.5887
29929SOL    HW290366   2.324   5.875   1.514 -0.0672 -1.1974  1.7875
29930SOL     OW90367   9.121   3.040   7.098  0.4130  0.1641 -0.0646
29930SOL    HW190368   9.073   3.068   7.020  0.8555  0.3850 -0.2660
29930SOL    HW290369   9.112   2.945   7.099  1.3037  0.0391 -1.0070
29931SOL     OW90370   9.273   2.175   7.873 -0.3427 -0.9986  0.1140
29931SOL    HW190371   9.231   2.258   7.850 -0.1115 -0.7508  0.5831
29931SOL    HW290372   9.220   2.108   7.829  0.2440 -0.5241 -1.3692
29932SOL     OW90373   0.266   1.346   0.483  0.6425  0.8270 -0.2158
29932SOL    HW190374   0.182   1.360   0.526 -0.0910  0.1175 -1.3723
29932SOL    HW290375   0.261   1.256   0.450  2.5076  0.1751  1.0863
29933SOL     OW90376   4.042   8.935   7.210  0.0746 -0.1251 -0.4745
29933SOL    HW190377   3.972   8.962   7.151  0.4073 -2.1633 -1.9565
29933SOL    HW290378   4.120   8.979   7.176 -0.1878  0.8196  0.1312
29934SOL     OW90379   2.838   2.708   4.004  0.3054 -0.0768 -0.0405
29934SOL    HW190380   2.884   2.732   3.924  0.9528  0.6866  0.5471
29934SOL    HW290381   2.904   2.661   4.056  0.1362  0.1475  0.3841
29935SOL     OW90382   3.802   1.559   4.698 -0.5020  0.5990  0.0369
29935SOL    HW190383   3.865   1.537   4.629  1.0803  1.4030  1.1694
29935SOL    HW290384   3.853   1.607   4.763 -2.3656  1.5454  0.8795
29936SOL     OW90385   2.125   6.866   0.623  0.1688  0.2121  0.8166
29936SOL    HW190386   2.172   6.901   0.698  1.1850 -0.8520  0.7110
29936SOL    HW290387   2.193   6.824   0.570 -0.7931 -0.6894  0.2597
29937SOL     OW90388   1.738   1.444   4.991 -0.0405 -0.4702 -0.2912
29937SOL    HW190389   1.713   1.366   5.041 -0.3356  0.3085  0.8042
29937SOL    HW290390   1.829   1.459   5.014 -0.3114  0.1665  0.4142
29938SOL     OW90391   3.859   4.560   4.534  0.2868  0.1749 -0.2091
29938SOL    HW190392   3.906   4.556   4.617  0.1890  1.5237 -0.0583
29938SOL    HW290393   3.927   4.567   4.468  0.3391  0.7533 -0.1000
29939SOL     OW90394   7.850   7.409   3.056 -0.4408  0.1315  0.6270
29939SOL    HW190395   7.839   7.315   3.044 -0.4813  0.1017  0.9030
29939SOL    HW290396   7.912   7.417   3.129  1.4319  0.2922 -0.8997
29940SOL     OW90397   6.317   3.532   6.306 -0.3821 -0.3083 -0.4681
29940SOL    HW190398   6.353   3.485   6.230  0.2541  0.1011 -0.4190
29940SOL    HW290399   6.300   3.620   6.274 -0.4932 -0.2453 -0.2383
29941SOL     OW90400   9.937   5.245   7.905  0.3630  0.2534  0.0703
29941SOL    HW190401   9.966   5.199   7.983  1.4793  1.1440  0.2218
29941SOL    HW290402   9.937   5.338   7.930 -0.3106  0.4681 -0.6685
29942SOL     OW90403   2.930   3.795   8.713  0.9037  0.0804 -0.0878
29942SOL    HW190404   3.021   3.795   8.684  1.0141 -0.5942  0.2431
29942SOL    HW290405   2.932   3.838   8.798  0.7004  1.3091 -0.6775
29943SOL     OW90406   9.965   0.738   0.471  0.4332 -0.3888  0.3350
29943SOL    HW190407  10.020   0.754   0.548  0.2841 -0.3922  0.4420
29943SOL    HW290408   9.925   0.823   0.453  1.3977 -0.0889 -0.4632
29944SOL     OW90409   9.652   0.067   8.393  0.1874  0.0578  0.2561
29944SOL    HW190410   9.636  -0.013   8.445 -0.0284  0.0160  0.1256
29944SOL    HW290411   9.571   0.116   8.400 -0.4030 -0.6340 -1.2732
29945SOL     OW90412   2.857   3.367   4.283  0.6389  0.3823  0.1211
29945SOL    HW190413   2.789   3.317   4.327 -0.4488  0.3128 -1.5419
29945SOL    HW290414   2.911   3.301   4.240 -0.5407  0.5280 -1.7092
29946SOL     OW90415   0.802   2.482   0.841 -1.0456 -0.1201 -0.0975
29946SOL    HW190416   0.835   2.568   0.865 -1.2883 -0.1464  0.3270
29946SOL    HW290417   0.723   2.500   0.790  0.3262 -0.0003 -2.3306
29947SOL     OW90418   2.792   7.364   6.085  0.3431  0.1344  0.0610
29947SOL    HW190419   2.818   7.357   6.177 -0.5421 -0.0863  0.2959
29947SOL    HW290420   2.798   7.275   6.052  1.8553  0.3907 -0.4391
29948SOL     OW90421   1.214   4.708   4.780  0.2739  0.4563  0.7279
29948SOL    HW190422   1.288   4.711   4.720  1.3308 -0.1365  1.9593
29948SOL    HW290423   1.152   4.647   4.740  1.8214 -1.4869  1.1486
29949SOL     OW90424   7.544   4.485   3.330  0.0289 -0.4971  0.6048
29949SOL    HW190425   7.469   4.434   3.358  0.1014 -0.6945  0.4436
29949SOL    HW290426   7.507   4.556   3.276 -0.0376 -0.6146  0.4962
29950SOL     OW90427   2.336   6.262   8.323  0.2834 -0.0166 -0.2787
29950SOL    HW190428   2.258   6.210   8.345  0.0805  0.3332 -0.1762
29950SOL    HW290429   2.338   6.331   8.389  0.4702  0.2014 -0.5133
29951SOL     OW90430   2.832   6.213   3.254 -0.1749  0.5024  0.0357
29951SOL    HW190431   2.789   6.150   3.196  0.3307 -0.3237  0.5317
29951SOL    HW290432   2.863   6.283   3.196  0.0854 -0.1734 -0.6539
29952SOL     OW90433   5.283   5.459   2.212 -0.1668  0.1576 -0.2656
29952SOL    HW190434   5.199   5.485   2.175  0.4890  2.4074 -0.3220
29952SOL    HW290435   5.262   5.428   2.300 -0.9415  2.2007  0.3211
29953SOL     OW90436   1.777   3.776   1.438 -0.1135  0.2881 -0.3275
29953SOL    HW190437   1.786   3.864   1.474 -0.2343  0.6070 -1.0604
29953SOL    HW290438   1.713   3.733   1.496  1.1194  0.1385  0.9840
29954SOL     OW90439   4.793   4.297   8.739  0.1608 -0.4129  0.3014
29954SOL    HW190440   4.819   4.388   8.753 -0.2661 -0.5876  2.6896
29954SOL    HW290441   4.698   4.298   8.740  0.1465 -0.8367 -0.1472
29955SOL     OW90442   7.429   5.416   3.660  0.3789 -0.4136 -0.4228
29955SOL    HW190443   7.415   5.350   3.592  1.9639  0.1715 -1.3792
29955SOL    HW290444   7.361   5.399   3.725  0.1197 -2.3194 -1.1397
29956SOL     OW90445   4.523  -0.002   0.981  0.4190 -0.0234 -0.4645
29956SOL    HW190446   4.525   0.092   0.967 -0.3634  0.0305 -0.2785
29956SOL    HW290447   4.463  -0.014   1.055 -1.8129 -0.8365 -2.2771
29957SOL     OW90448   0.610   5.244   0.258  0.2237 -0.1476  0.3962
29957SOL    HW190449   0.654   5.197   0.329 -1.8907  0.0400  1.9608
29957SOL    HW290450   0.525   5.201   0.249 -0.2430  0.9335 -0.8269
29958SOL     OW90451   2.327   1.902   2.308 -0.4516 -0.5804  0.8851
29958SOL    HW190452   2.292   1.813   2.302  0.6279 -1.0717  1.5113
29958SOL    HW290453   2.420   1.892   2.284 -0.9811  0.9212 -2.3945
29959SOL     OW90454   1.699   5.643   3.950  0.8929  0.1524  0.5084
29959SOL    HW190455   1.734   5.597   3.873  0.4013  0.5955  0.0125
29959SOL    HW290456   1.620   5.595   3.972  0.1672  0.9715 -0.2479
29960SOL     OW90457   0.578   0.126   4.058  0.2530  0.2952 -0.0940
29960SOL    HW190458   0.669   0.118   4.029  0.4617 -1.0500  0.8359
29960SOL    HW290459   0.529   0.142   3.978  1.0548 -1.2518 -0.9512
29961SOL     OW90460   1.958   7.831   3.350  0.2213  0.4220  0.5488
29961SOL    HW190461   1.892   7.788   3.404  1.1021 -1.7225 -0.0146
29961SOL    HW290462   1.961   7.921   3.384 -3.0112  0.6556  0.5172
29962SOL     OW90463   9.414   5.811   3.699  0.1684  0.1606 -0.1356
29962SOL    HW190464   9.371   5.883   3.745 -0.0697  0.6659 -1.1269
29962SOL    HW290465   9.346   5.745   3.688 -0.0023  0.4006 -0.5240
29963SOL     OW90466   7.867   3.061   4.784  0.4608 -0.4937  0.0242
29963SOL    HW190467   7.888   3.102   4.701 -0.6612 -1.7335 -0.9146
29963SOL    HW290468   7.923   3.106   4.848 -0.3323  2.0967 -0.9801
29964SOL     OW90469   1.112   6.612   0.350  0.7193 -0.6736 -0.2537
29964SOL    HW190470   1.170   6.624   0.426 -0.8509 -0.5187  0.9615
29964SOL    HW290471   1.043   6.677   0.361  0.2406 -0.9105 -1.6312
29965SOL     OW90472   1.570   1.148   0.981 -0.0153  0.4405 -0.4675
29965SOL    HW190473   1.499   1.172   1.040 -0.3461  0.2291 -0.7730
29965SOL    HW290474   1.539   1.068   0.937  0.4035  0.3556 -0.6130
29966SOL     OW90475   1.821   8.708   0.111 -0.4029 -0.0442  0.3926
29966SOL    HW190476   1.795   8.651   0.038  1.0905  0.8127 -0.8577
29966SOL    HW290477   1.901   8.668   0.145 -0.8655 -0.2031  1.3171
29967SOL     OW90478   5.270   3.029   5.336 -0.7641 -0.1521 -0.1569
29967SOL    HW190479   5.308   3.116   5.324 -0.3688 -0.3574 -0.4138
29967SOL    HW290480   5.184   3.045   5.374 -0.4573  0.3267  0.3465
29968SOL     OW90481   7.892   4.182   4.486  0.1997 -0.3203 -0.3135
29968SOL    HW190482   7.926   4.221   4.567  0.9400 -0.6839 -0.4421
29968SOL    HW290483   7.971   4.160   4.436 -0.2318 -1.3051 -0.5631
29969SOL     OW90484   1.028   0.352   5.138  0.0365  0.4091 -0.1785
29969SOL    HW190485   1.038   0.270   5.090  1.2427 -0.0660  0.8249
29969SOL    HW290486   1.118   0.385   5.147 -0.1002  0.3194  1.9870
29970SOL     OW90487   8.421   9.485   0.367  0.4048 -0.4777 -0.1700
29970SOL    HW190488   8.429   9.577   0.391  1.2642 -0.9859  1.5731
29970SOL    HW290489   8.453   9.481   0.277  0.8985  0.8240 -0.0670
29971SOL     OW90490   8.440   5.158   5.041  1.0416 -0.1997 -0.5125
29971SOL    HW190491   8.504   5.200   5.099  0.9171 -0.3595 -0.2566
29971SOL    HW290492   8.432   5.069   5.075  0.4006 -0.0665 -0.3115
29972SOL     OW90493   1.581   0.497   6.563 -0.5160 -0.3209 -0.3526
29972SOL    HW190494   1.663   0.471   6.522 -0.1798  0.2062 -0.0314
29972SOL    HW290495   1.517   0.432   6.534  0.1306 -1.0529 -0.1641
29973SOL     OW90496   3.773   2.226   9.691  0.4438 -0.0119 -0.0893
29973SOL    HW190497   3.758   2.189   9.604 -0.9709  0.4660 -0.0579
29973SOL    HW290498   3.735   2.162   9.751 -0.6231  0.7341  0.0463
29974SOL     OW90499   7.222   9.962   2.260  0.2314  0.3503  0.1714
29974SOL    HW190500   7.174   9.899   2.314 -0.0084  1.6256  1.4968
29974SOL    HW290501   7.158   9.992   2.196  0.5907 -1.3723 -1.0910
29975SOL     OW90502   8.080   7.042   5.901  0.4223  0.3153 -0.4696
29975SOL    HW190503   8.043   7.026   5.987 -0.0055  0.0153 -0.7093
29975SOL    HW290504   8.112   7.132   5.905 -0.7250  0.7293 -0.4024
29976SOL     OW90505   7.002   0.308   9.958 -0.8587 -0.7502  0.6004
29976SOL    HW190506   6.918   0.307  10.004 -0.9670  0.7792  0.5006
29976SOL    HW290507   6.979   0.293   9.867 -1.0874  0.0563  0.5161
29977SOL     OW90508   6.373   8.514   2.472  0.0945  0.6609 -0.1189
29977SOL    HW190509   6.463   8.538   2.452  0.5656  0.5775  1.7553
29977SOL    HW290510   6.369   8.420   2.454  0.8314  0.3564  1.1810
29978SOL     OW90511   8.430   0.122   3.108  0.2672  0.1152 -0.3915
29978SOL    HW190512   8.458   0.207   3.142 -0.4977  0.3354 -0.3100
29978SOL    HW290513   8.402   0.140   3.019  1.5230 -0.3265 -0.9054
29979SOL     OW90514   8.183   8.042   2.948 -0.0413  0.0511 -0.2425
29979SOL    HW190515   8.276   8.035   2.969  0.2416  1.0060 -1.0871
29979SOL    HW290516   8.154   7.951   2.934  1.2517 -0.1434 -1.9241
29980SOL     OW90517   2.873   2.289   7.991  0.0648 -0.1406 -0.5369
29980SOL    HW190518   2.802   2.312   8.051 -0.8461 -1.3707 -1.0977
29980SOL    HW290519   2.896   2.371   7.949 -1.9530  0.0886 -1.3005
29981SOL     OW90520   6.006   9.238   2.230  0.2972 -0.0144 -0.0606
29981SOL    HW190521   6.026   9.211   2.140  4.2579 -1.7100  1.1043
29981SOL    HW290522   5.975   9.328   2.221 -0.1597 -0.3662 -3.1440
29982SOL     OW90523   6.161   2.126   2.654  0.1016 -0.3810  0.6496
29982SOL    HW190524   6.095   2.185   2.618 -0.4717 -2.3750 -1.8925
29982SOL    HW290525   6.244   2.159   2.620 -0.3185 -1.5155 -1.7130
29983SOL     OW90526   1.826   2.507   5.557  0.0923  0.4887 -0.4545
29983SOL    HW190527   1.742   2.481   5.594  1.5119 -2.9491  0.7775
29983SOL    HW290528   1.823   2.476   5.466 -0.6551  2.2632 -1.0805
29984SOL     OW90529   8.705   2.422   1.436  0.3216  0.0947  0.8502
29984SOL    HW190530   8.681   2.397   1.525  1.1231  1.0983  1.3664
29984SOL    HW290531   8.625   2.461   1.400 -0.0360 -0.4132  1.0928
29985SOL     OW90532   0.369   0.597   8.531 -0.1820  0.2876 -0.3714
29985SOL    HW190533   0.397   0.561   8.446  0.9279  0.9604 -0.3137
29985SOL    HW290534   0.451   0.619   8.575 -0.7749  2.5012 -0.2538
29986SOL     OW90535   8.972   2.329   7.631  0.3214 -0.3609 -0.3907
29986SOL    HW190536   9.013   2.325   7.545  0.2075  0.6537 -0.5094
29986SOL    HW290537   8.887   2.287   7.621  1.8509 -3.9431  0.2301
29987SOL     OW90538   2.953   8.983   6.652  0.3451 -0.2639 -0.3675
29987SOL    HW190539   3.030   8.993   6.709  2.1772  0.1754 -2.7820
29987SOL    HW290540   2.905   9.065   6.663  2.4840  1.3196 -1.8635
29988SOL     OW90541   2.972   2.444   2.607  0.5927 -0.2962  0.3995
29988SOL    HW190542   2.931   2.357   2.609  1.2872 -0.6332  0.3063
29988SOL    HW290543   3.039   2.440   2.676 -1.4839  1.2474  2.6893
29989SOL     OW90544   4.901   5.620   1.743 -0.1847  0.1307  0.2944
29989SOL    HW190545   4.886   5.535   1.701  1.1115  0.2977 -0.5479
29989SOL    HW290546   4.894   5.601   1.837 -1.9842 -0.4773  0.0731
29990SOL     OW90547   5.806   4.406   3.349 -0.6420  0.5976 -0.7254
29990SOL    HW190548   5.881   4.372   3.301 -0.6853  0.9019 -1.0084
29990SOL    HW290549   5.843   4.440   3.430 -0.3298  1.6505 -1.2904
29991SOL     OW90550   6.647   2.703   9.955  0.0086 -0.1085 -0.5106
29991SOL    HW190551   6.564   2.750   9.949 -0.5947 -0.9777  0.4905
29991SOL    HW290552   6.704   2.760  10.006 -0.2033  0.1901 -0.6053
29992SOL     OW90553   8.799   0.230   0.369  0.1055 -0.4244 -0.5935
29992SOL    HW190554   8.780   0.238   0.276  1.3508  0.3838 -0.7993
29992SOL    HW290555   8.736   0.166   0.401 -1.0611  0.1069 -1.7609
29993SOL     OW90556   4.524   1.106   2.761 -0.0460  0.1223 -0.4420
29993SOL    HW190557   4.577   1.027   2.773 -0.5330 -0.2918 -0.9374
29993SOL    HW290558   4.524   1.121   2.666  0.1141  0.7680 -0.3429
29994SOL     OW90559   6.175   4.988   7.710 -0.0399 -0.1345  0.3605
29994SOL    HW190560   6.113   5.053   7.743  1.9627  1.3674  1.3824
29994SOL    HW290561   6.252   5.039   7.686  1.3972 -2.0795  0.6029
29995SOL     OW90562   3.144   6.574   3.014  0.6550  0.1588  0.4962
29995SOL    HW190563   3.135   6.641   2.946 -0.6397 -0.3850  0.0805
29995SOL    HW290564   3.066   6.584   3.068  1.9009  0.8961  2.2352
29996SOL     OW90565   5.041   3.393   6.466  0.3665  0.3099 -0.2532
29996SOL    HW190566   5.107   3.373   6.533  0.3192  0.9617  0.0014
29996SOL    HW290567   5.050   3.488   6.452 -0.7998  0.4825  0.0885
29997SOL     OW90568   6.983   4.144   6.920  0.5028 -0.4455 -0.5817
29997SOL    HW190569   7.075   4.126   6.943  0.3079  0.6597  1.2503
29997SOL    HW290570   6.987   4.222   6.866  0.5220  1.5856  2.1353
29998SOL     OW90571   7.097   4.945   2.140  0.1355 -0.3666  0.0448
29998SOL    HW190572   7.169   5.007   2.127 -0.8952  1.2185  1.4753
29998SOL    HW290573   7.130   4.862   2.104  2.4685  0.4108  0.2255
29999SOL     OW90574   4.781   5.522   0.400  0.0861 -0.3136 -0.0334
29999SOL    HW190575   4.726   5.593   0.431  0.3741 -0.2423  0.3232
29999SOL    HW290576   4.804   5.473   0.478 -0.3220 -0.9565 -0.3099
30000SOL     OW90577   7.386   8.899   3.537 -0.0471 -0.0211  0.2484
30000SOL    HW190578   7.402   8.986   3.501 -0.9056  0.6002  1.3310
30000SOL    HW290579   7.452   8.889   3.606  0.5047 -0.5367 -0.3277
30001SOL     OW90580   3.433   2.779   1.690 -0.1012  0.6523 -0.1597
30001SOL    HW190581   3.385   2.728   1.624  1.5088 -0.7537 -0.3118
30001SOL    HW290582   3.525   2.761   1.671  0.4563 -1.2421  3.5024
30002SOL     OW90583   7.475   1.053   8.383  0.3613 -0.8351  0.2638
30002SOL    HW190584   7.453   1.080   8.294  0.5028  0.0405  0.4800
30002SOL    HW290585   7.493   0.959   8.376  0.1485 -0.8226 -0.5831
30003SOL     OW90586   1.367   9.807   3.217 -0.0546  0.4184 -0.2542
30003SOL    HW190587   1.387   9.770   3.303  0.2508  0.1029 -0.4605
30003SOL    HW290588   1.350   9.899   3.234  0.1163  0.3809  0.1292
30004SOL     OW90589   3.947   7.878   5.859  0.4744 -0.1150 -0.2713
30004SOL    HW190590   3.880   7.835   5.914  0.8918  1.8420  1.9427
30004SOL    HW290591   4.029   7.860   5.904  0.9052  1.0916 -0.5595
30005SOL     OW90592   2.915   3.706   7.869 -0.2066 -0.4194  0.1375
30005SOL    HW190593   3.004   3.692   7.902  0.4518  2.3306 -0.1838
30005SOL    HW290594   2.921   3.693   7.775 -0.3289 -0.9557  0.2017
30006SOL     OW90595   3.995   4.456   2.447 -0.2121  0.5924 -0.3207
30006SOL    HW190596   4.068   4.402   2.478 -0.8349 -0.1606 -0.1392
30006SOL    HW290597   3.918   4.419   2.491 -0.6715  1.5429 -0.3071
30007SOL     OW90598   0.503   7.594   4.222  0.4853  0.2788  0.5011
30007SOL    HW190599   0.537   7.569   4.136 -0.1792  1.0568  0.0046
30007SOL    HW290600   0.571   7.649   4.260  1.0860 -0.6212  0.7826
30008SOL     OW90601   2.065   3.180   2.511 -0.1550 -0.2114 -0.1895
30008SOL    HW190602   2.008   3.257   2.518 -1.4310 -1.1111 -0.4047
30008SOL    HW290603   2.153   3.217   2.501 -0.8205  1.2396 -1.1228
30009SOL     OW90604   6.359   6.423   9.946  0.3968 -0.2355  0.2125
30009SOL    HW190605   6.449   6.392   9.943  0.6420  0.4807  0.1296
30009SOL    HW290606   6.307   6.349   9.913  1.0263 -0.3611 -0.5212
30010SOL     OW90607   4.738   8.174   8.377 -0.4573  0.1994 -0.4080
30010SOL    HW190608   4.834   8.178   8.382 -0.4530 -0.1509 -0.2243
30010SOL    HW290609   4.708   8.197   8.465 -0.6359  3.1715 -1.1323
30011SOL     OW90610   3.108   7.871   3.269  0.1511 -0.1055  0.4200
30011SOL    HW190611   3.076   7.894   3.357  0.1772 -0.2147  0.4577
30011SOL    HW290612   3.180   7.811   3.285 -1.1969 -1.8453  0.2820
30012SOL     OW90613   4.912   3.877   9.631 -0.0285  0.4195 -0.3565
30012SOL    HW190614   4.912   3.873   9.536 -1.0518 -1.8327 -0.3227
30012SOL    HW290615   4.984   3.820   9.657  0.0145  0.7362  0.2430
30013SOL     OW90616   5.786   9.278   1.505  0.4137 -1.0108 -0.2721
30013SOL    HW190617   5.713   9.304   1.448  0.0561  0.7012  0.8734
30013SOL    HW290618   5.748   9.213   1.564 -0.5183  0.5513  0.9324
30014SOL     OW90619   6.156   2.582   4.108  0.1765 -0.5427 -0.1469
30014SOL    HW190620   6.076   2.591   4.058 -0.2326 -2.2477  0.1351
30014SOL    HW290621   6.226   2.585   4.043 -0.1549  0.2312 -0.4738
30015SOL     OW90622   0.951   1.276   3.511  0.0554  0.9587  0.2083
30015SOL    HW190623   1.033   1.229   3.524 -0.0811  0.8552  0.7136
30015SOL    HW290624   0.907   1.271   3.596 -1.2533 -0.4833 -0.4846
30016SOL     OW90625   9.615   4.380   2.368 -0.3292 -0.6616  0.6932
30016SOL    HW190626   9.691   4.438   2.368 -0.9727  0.1873  1.2568
30016SOL    HW290627   9.542   4.434   2.399 -1.5319 -0.9827 -1.3496
30017SOL     OW90628   9.583   7.355   0.325 -0.4412  0.5052 -0.3784
30017SOL    HW190629   9.577   7.395   0.411 -1.0814  1.0963 -0.6914
30017SOL    HW290630   9.616   7.425   0.268 -1.6288  0.6182 -0.9433
30018SOL     OW90631   2.459   7.218   5.829  0.2858 -1.1216  0.2905
30018SOL    HW190632   2.409   7.144   5.796  0.4370 -0.0452 -2.6954
30018SOL    HW290633   2.550   7.190   5.824  0.4104 -0.5684 -1.6702
30019SOL     OW90634   3.162   2.476   3.962 -0.1549 -0.0748  0.2733
30019SOL    HW190635   3.114   2.393   3.954 -3.2075  1.4369  1.2111
30019SOL    HW290636   3.154   2.517   3.876 -2.0553  0.8259  0.8110
30020SOL     OW90637   6.436   5.251   4.340  0.3883 -0.3883  0.1913
30020SOL    HW190638   6.353   5.274   4.381 -2.4708 -3.8838 -2.7866
30020SOL    HW290639   6.449   5.318   4.273 -0.3793 -0.0797  0.3393
30021SOL     OW90640   1.058   6.456   2.224  0.6259 -0.0847 -0.6091
30021SOL    HW190641   0.998   6.443   2.151 -0.2872  1.6348 -0.2214
30021SOL    HW290642   1.010   6.426   2.301  0.9412 -0.3308 -0.5041
30022SOL     OW90643   7.781   8.182   6.479 -0.0070  0.3299 -0.7097
30022SOL    HW190644   7.844   8.197   6.549  0.9754 -1.6146 -1.1171
30022SOL    HW290645   7.696   8.186   6.522  0.5300  0.2818  0.3811
30023SOL     OW90646   9.528   1.613   2.549  0.1521  0.4009  0.1695
30023SOL    HW190647   9.563   1.684   2.603  0.7103  0.0999  0.2049
30023SOL    HW290648   9.453   1.652   2.504  0.5706  1.0665  0.0390
30024SOL     OW90649   2.157   8.536   2.462 -0.1393  0.1247  0.4172
30024SOL    HW190650   2.127   8.625   2.481  0.9377  0.7716 -0.7200
30024SOL    HW290651   2.232   8.523   2.520 -0.4265 -0.1362  0.7353
30025SOL     OW90652   6.568   3.552   7.985 -0.0911  0.0186 -0.1064
30025SOL    HW190653   6.657   3.532   7.957  0.0564  0.5681 -0.0347
30025SOL    HW290654   6.578   3.621   8.050 -0.4785 -0.8057  0.8556
30026SOL     OW90655   1.176   6.097   6.705  0.1827 -0.0626  0.4521
30026SOL    HW190656   1.177   6.015   6.753 -1.9307 -0.4424 -0.0662
30026SOL    HW290657   1.263   6.102   6.665  0.4156 -1.9524  0.6217
30027SOL     OW90658   3.890   4.757   0.593  0.2529 -0.4390  0.0163
30027SOL    HW190659   3.881   4.757   0.688 -0.5621 -3.3058  0.0111
30027SOL    HW290660   3.835   4.830   0.564  2.1126  1.8201  1.7489
30028SOL     OW90661   3.557   1.177   5.401  0.1714 -0.0511  0.0733
30028SOL    HW190662   3.587   1.086   5.391  0.5955  0.1986 -1.0115
30028SOL    HW290663   3.621   1.217   5.459  0.7365 -0.1024 -0.5070
30029SOL     OW90664   1.527   1.173   4.890 -0.4537 -0.0474 -0.5777
30029SOL    HW190665   1.553   1.164   4.982 -0.9098 -0.0921 -0.4494
30029SOL    HW290666   1.606   1.153   4.840 -0.4008 -0.8227 -0.2050
30030SOL     OW90667   3.100   1.097   2.472  0.5411 -0.4962 -0.1751
30030SOL    HW190668   3.148   1.177   2.451 -0.3354 -0.0229 -0.4121
30030SOL    HW290669   3.168   1.029   2.477  1.7209  0.7049  2.8387
30031SOL     OW90670   8.011   0.096   7.177 -0.3873 -0.2498  0.4070
30031SOL    HW190671   8.099   0.125   7.154 -0.4464  0.3646  0.9409
30031SOL    HW290672   7.971   0.171   7.221 -0.6454 -1.0384  1.5675
30032SOL     OW90673   5.527   1.642   9.273  0.0877  0.2926  0.0969
30032SOL    HW190674   5.470   1.677   9.342  0.2257 -1.1827  1.0059
30032SOL    HW290675   5.499   1.687   9.193 -1.0806  0.9628  0.8565
30033SOL     OW90676   4.532   2.779   1.985 -0.4080 -0.0973 -0.0282
30033SOL    HW190677   4.478   2.796   1.908  1.2199  1.1407 -0.9764
30033SOL    HW290678   4.578   2.862   2.000 -0.7790 -0.2659  2.3777
30034SOL     OW90679   8.380   3.462   9.230 -0.3973 -0.3769  0.3863
30034SOL    HW190680   8.372   3.481   9.324  0.5087  1.7136  0.1026
30034SOL    HW290681   8.474   3.462   9.213 -0.5119  3.0536 -1.1069
30035SOL     OW90682   8.870   7.200   8.284 -0.1692  0.1263 -0.2777
30035SOL    HW190683   8.802   7.171   8.345 -0.4634 -1.7626 -1.4247
30035SOL    HW290684   8.942   7.228   8.341 -0.7280 -0.8085  0.9460
30036SOL     OW90685   6.414   7.439   2.301 -0.1759 -0.1977  0.6093
30036SOL    HW190686   6.451   7.522   2.271  0.0484 -1.1233 -1.8447
30036SOL    HW290687   6.489   7.393   2.339 -0.5975  1.2597  3.5371
30037SOL     OW90688   4.946   5.781   7.337  0.5520  0.1268  0.3207
30037SOL    HW190689   5.027   5.730   7.333  0.6927  0.2808  0.9873
30037SOL    HW290690   4.950   5.825   7.422  0.0433  0.5989  0.1073
30038SOL     OW90691   4.824   9.218   5.368 -0.1873 -0.2941  0.3730
30038SOL    HW190692   4.818   9.125   5.390  1.9810 -0.5535  0.1495
30038SOL    HW290693   4.860   9.219   5.279 -1.7080  0.7780 -0.2739
30039SOL     OW90694   2.546   4.745   0.279  0.0313 -0.1577 -0.4505
30039SOL    HW190695   2.525   4.702   0.362  0.7112 -1.1586 -0.7708
30039SOL    HW290696   2.606   4.816   0.303 -1.9352  1.3690  0.2147
30040SOL     OW90697   9.499   5.095   7.895 -0.9544  0.4600  0.0118
30040SOL    HW190698   9.425   5.038   7.876  0.1754  0.0429 -3.9743
30040SOL    HW290699   9.468   5.183   7.872 -0.9852  0.6878  0.8832
30041SOL     OW90700   8.468   3.633   7.399 -0.3194 -0.5714  0.5630
30041SOL    HW190701   8.399   3.628   7.333  0.8943  2.2514 -1.0908
30041SOL    HW290702   8.444   3.707   7.454  0.5305 -0.6265  1.0324
30042SOL     OW90703   2.011   7.522   3.578  0.1109 -0.3655  0.0631
30042SOL    HW190704   2.033   7.514   3.485 -0.8088 -0.9137 -0.1259
30042SOL    HW290705   1.939   7.460   3.590 -0.7331  0.7210  0.8220
30043SOL     OW90706   6.272   4.127   1.049  0.0201 -0.1125  0.4783
30043SOL    HW190707   6.307   4.212   1.020 -1.0742 -0.0716 -0.8449
30043SOL    HW290708   6.309   4.064   0.988 -2.2987 -0.0310 -1.1455
30044SOL     OW90709   2.813   8.287   9.642 -0.1432 -0.0022  0.1618
30044SOL    HW190710   2.876   8.237   9.693  0.7238 -0.8379 -1.6530
30044SOL    HW290711   2.729   8.271   9.686  0.7597  0.6713  2.2734
30045SOL     OW90712   8.554   7.452   8.210  0.3796  0.1523  0.1592
30045SOL    HW190713   8.526   7.465   8.300  1.1254 -0.7383  0.5430
30045SOL    HW290714   8.521   7.365   8.187  1.0070 -0.0310 -0.0848
30046SOL     OW90715   6.167   5.112   0.989 -0.3647  0.1843 -0.5609
30046SOL    HW190716   6.120   5.178   1.039 -0.1802 -0.1379  0.0529
30046SOL    HW290717   6.108   5.089   0.917 -0.6461  0.6314 -0.4720
30047SOL     OW90718   9.190   7.118   7.056  0.6315  0.6140 -0.0692
30047SOL    HW190719   9.261   7.133   6.994  0.4124 -1.5230 -0.9072
30047SOL    HW290720   9.224   7.053   7.117 -0.3722  0.0209 -0.1109
30048SOL     OW90721   9.284   3.546   1.747  0.3798 -0.1241 -0.3076
30048SOL    HW190722   9.245   3.633   1.758 -3.0042 -1.5185 -0.1082
30048SOL    HW290723   9.346   3.538   1.820 -1.7000  0.9579  1.7311
30049SOL     OW90724   0.926   5.889   2.751  0.0833 -0.2329 -0.5129
30049SOL    HW190725   0.977   5.848   2.821  0.5637 -0.8631 -1.2279
30049SOL    HW290726   0.965   5.975   2.740  1.1093 -0.7778 -1.1770
30050SOL     OW90727   5.171   8.514   2.189  0.3207 -0.7168  0.1574
30050SOL    HW190728   5.244   8.556   2.234  0.0846  0.7362 -0.7691
30050SOL    HW290729   5.159   8.564   2.109 -0.3702 -2.2050 -0.7219
30051SOL     OW90730   4.810   3.671   0.126  0.0895  0.2745  0.2565
30051SOL    HW190731   4.830   3.585   0.091  1.1455  0.4350  0.4477
30051SOL    HW290732   4.787   3.655   0.218  0.3944  0.2128  0.3206
30052SOL     OW90733   8.701   8.358   1.321 -0.1649  0.4447 -0.2792
30052SOL    HW190734   8.609   8.364   1.296 -0.3548  1.1129  0.5134
30052SOL    HW290735   8.703   8.291   1.390  0.0709 -0.1054 -0.8077
30053SOL     OW90736   4.130   6.031   5.554  0.0056  0.1421 -0.0887
30053SOL    HW190737   4.112   6.038   5.648  0.4457  1.5502 -0.0828
30053SOL    HW290738   4.218   6.067   5.544 -0.2059  0.3941 -1.0966
30054SOL     OW90739   7.961   5.400   9.096 -0.0575  0.2521 -0.4444
30054SOL    HW190740   8.046   5.389   9.139  0.3044  0.9544 -0.9686
30054SOL    HW290741   7.933   5.488   9.121 -0.3824  0.2261 -0.7127
30055SOL     OW90742   1.365   9.787   0.497 -0.1768 -0.2698 -0.4141
30055SOL    HW190743   1.312   9.709   0.483  0.7290 -0.8967 -0.4220
30055SOL    HW290744   1.336   9.849   0.430 -0.9726 -0.5470 -0.3381
30056SOL     OW90745   2.365   1.308   7.697  0.7806  0.5870  0.0686
30056SOL    HW190746   2.293   1.276   7.643  0.9710 -0.0695  0.1888
30056SOL    HW290747   2.322   1.337   7.778  0.4855  1.6683 -0.4593
30057SOL     OW90748   9.069   1.562   6.450 -0.0393  0.0708 -0.1455
30057SOL    HW190749   8.987   1.561   6.401  0.8515 -0.0657 -1.7114
30057SOL    HW290750   9.137   1.573   6.383  1.2217  0.2859  1.1113
30058SOL     OW90751   7.415   8.311   4.046 -0.3025  0.5621 -0.0116
30058SOL    HW190752   7.467   8.376   4.093  0.0366  1.2873 -1.3186
30058SOL    HW290753   7.326   8.345   4.050 -0.5526 -0.2117  1.4494
30059SOL     OW90754   8.035   9.812   4.809  0.4841  0.0458 -0.0016
30059SOL    HW190755   8.055   9.869   4.884  0.7357  1.4547 -1.1103
30059SOL    HW290756   8.083   9.850   4.736  0.0453 -1.1696 -0.9599
30060SOL     OW90757   5.672   2.822   7.942 -0.0116 -0.1051  0.2369
30060SOL    HW190758   5.725   2.890   7.899 -1.3693  0.2292 -0.9917
30060SOL    HW290759   5.655   2.758   7.873  0.0286 -0.9684  1.0125
30061SOL     OW90760   1.503   6.465   8.657  0.1532  0.2647 -0.0460
30061SOL    HW190761   1.498   6.553   8.696  1.9971  0.9879 -1.3501
30061SOL    HW290762   1.565   6.418   8.712  0.1681  0.1864 -0.1305
30062SOL     OW90763   4.861   1.865   8.551 -0.3526  0.2452  0.0772
30062SOL    HW190764   4.832   1.828   8.634  1.7728 -1.3290  0.1978
30062SOL    HW290765   4.946   1.905   8.571  0.6809 -1.0505 -1.4833
30063SOL     OW90766   1.674   5.040   1.553  0.5150  0.3612 -0.1205
30063SOL    HW190767   1.722   5.103   1.498 -0.6614  1.6435  0.2669
30063SOL    HW290768   1.648   5.091   1.630 -0.2199 -0.6803  0.3351
30064SOL     OW90769   2.320   5.833   7.625 -0.7464 -0.4833  0.1869
30064SOL    HW190770   2.372   5.827   7.705  0.6521 -0.2230 -0.6727
30064SOL    HW290771   2.334   5.922   7.594 -2.1864 -0.2123  0.2167
30065SOL     OW90772   6.852   9.227   8.723  0.3277  0.4652 -0.6815
30065SOL    HW190773   6.790   9.291   8.758  0.3989  0.4145 -0.4645
30065SOL    HW290774   6.807   9.143   8.728 -0.6079  0.7546 -2.9421
30066SOL     OW90775   9.632   4.864   0.804 -0.3001 -0.0516  0.7742
30066SOL    HW190776   9.639   4.946   0.854 -0.5045 -0.2100  1.0599
30066SOL    HW290777   9.557   4.819   0.841 -1.9873  0.9196 -1.2713
30067SOL     OW90778   5.215   0.392   1.152  0.1709 -0.4126  0.0250
30067SOL    HW190779   5.178   0.449   1.085  1.1391 -0.1915 -0.3392
30067SOL    HW290780   5.299   0.364   1.116  0.0348 -1.4900  0.5099
30068SOL     OW90781   9.505   5.554   9.599  0.1098  0.6635 -0.3988
30068SOL    HW190782   9.501   5.604   9.517 -0.9272 -0.5920 -1.1468
30068SOL    HW290783   9.431   5.586   9.650 -0.5195 -0.0219 -0.8544
30069SOL     OW90784   6.499   4.129   6.358  0.0330  0.4853 -0.8463
30069SOL    HW190785   6.456   4.210   6.386  1.0638  0.9852 -0.6709
30069SOL    HW290786   6.585   4.132   6.400 -0.0432 -0.8709 -0.5615
30070SOL     OW90787   3.292   4.550   3.252 -0.3378  0.3712 -0.2056
30070SOL    HW190788   3.206   4.583   3.275 -0.1586 -0.5155  2.0156
30070SOL    HW290789   3.293   4.460   3.286  1.4158  0.3350 -0.2401
30071SOL     OW90790   4.674   6.994   1.825 -0.6423 -0.0747 -0.2744
30071SOL    HW190791   4.756   7.038   1.803 -0.1670  0.9973  3.0246
30071SOL    HW290792   4.686   6.965   1.916 -3.5236 -0.8739 -0.0517
30072SOL     OW90793   5.901   4.154   9.509 -0.0239 -0.4684 -0.1070
30072SOL    HW190794   5.968   4.085   9.511 -0.4882 -0.9754 -1.0956
30072SOL    HW290795   5.906   4.194   9.595  2.5037  0.4220 -0.5654
30073SOL     OW90796   1.481   5.525   4.701  0.1082  0.0423 -0.0124
30073SOL    HW190797   1.509   5.461   4.767 -0.8114  1.7823  2.1775
30073SOL    HW290798   1.556   5.584   4.692 -0.1248  0.3936  0.2860
30074SOL     OW90799   0.320   3.061   5.637 -0.2663 -0.1491 -0.1744
30074SOL    HW190800   0.347   3.007   5.711 -1.9689  0.5282  1.0075
30074SOL    HW290801   0.399   3.069   5.583  0.5494 -2.1259  0.6375
30075SOL     OW90802   9.244   4.335   4.924  0.3472  0.0603  0.1900
30075SOL    HW190803   9.227   4.330   4.830 -0.6511 -0.3987  0.3696
30075SOL    HW290804   9.322   4.389   4.933  0.1569  0.5258 -0.8748
30076SOL     OW90805   7.740   0.300   3.199 -0.3266  0.5773 -0.0897
30076SOL    HW190806   7.651   0.311   3.233  0.5437  2.0229  1.8768
30076SOL    HW290807   7.781   0.238   3.258  0.8387  2.2009  0.8987
30077SOL     OW90808   4.327   9.187   7.583  0.1211  0.1394  0.7645
30077SOL    HW190809   4.384   9.110   7.573  1.0667  0.8330  0.7425
30077SOL    HW290810   4.387   9.260   7.598 -0.6705  1.1455 -0.7227
30078SOL     OW90811   0.300   6.380   0.398  0.0502 -0.3261 -0.1238
30078SOL    HW190812   0.286   6.289   0.421  0.9944 -0.3514  0.3713
30078SOL    HW290813   0.309   6.426   0.481 -2.4266  0.5911 -0.2723
30079SOL     OW90814   3.476   6.779   5.417  0.3123  0.4129 -0.1723
30079SOL    HW190815   3.466   6.683   5.417  0.1447  0.4016  1.7385
30079SOL    HW290816   3.387   6.812   5.425  0.2326  0.8107 -2.1628
30080SOL     OW90817   9.884   7.799   8.936 -0.2678 -0.1147  0.6446
30080SOL    HW190818   9.887   7.704   8.927 -2.0222 -0.2078  0.6198
30080SOL    HW290819   9.790   7.819   8.941 -0.0629  1.8184 -1.6264
30081SOL     OW90820   6.983   0.871   9.478 -0.0747 -0.3991  0.1342
30081SOL    HW190821   7.006   0.823   9.399  1.7125  0.1682  0.2450
30081SOL    HW290822   7.056   0.853   9.538 -0.1149  1.1828  0.7119
30082SOL     OW90823   5.142   2.995   3.762 -0.2941 -0.2231 -0.5170
30082SOL    HW190824   5.157   3.082   3.801 -0.6740 -0.1330 -0.5660
30082SOL    HW290825   5.092   3.013   3.682  2.1158 -0.2342 -2.1191
30083SOL     OW90826   5.942   8.148   1.610  0.1223  0.2008  0.2809
30083SOL    HW190827   5.905   8.170   1.524  0.8966 -0.8757 -0.3476
30083SOL    HW290828   5.875   8.093   1.651  0.6544 -1.1242 -0.5534
30084SOL     OW90829   7.472   2.512   9.298  0.2674 -0.5405 -0.0192
30084SOL    HW190830   7.423   2.430   9.291  0.3843 -0.7496  1.2593
30084SOL    HW290831   7.564   2.486   9.295  0.3106 -0.5305  0.8527
30085SOL     OW90832   5.913   0.982   2.129  0.0342 -0.3555 -0.0364
30085SOL    HW190833   5.977   1.028   2.075  0.1032 -0.5327 -0.1091
30085SOL    HW290834   5.883   0.910   2.074 -0.2412 -0.2606 -0.0078
30086SOL     OW90835   8.266   7.746   1.000  0.0948  0.2044 -0.2228
30086SOL    HW190836   8.279   7.652   0.991 -0.8763  0.0630 -0.2405
30086SOL    HW290837   8.181   7.763   0.959 -0.9549  0.6821  1.9845
30087SOL     OW90838   9.766   9.656   1.646 -0.2356 -0.2249 -0.3859
30087SOL    HW190839   9.694   9.593   1.646 -0.6127  0.2052 -0.1274
30087SOL    HW290840   9.829   9.620   1.584  0.2401 -1.6410  0.8609
30088SOL     OW90841   5.630   0.251   6.289  0.3724 -0.4762 -0.7660
30088SOL    HW190842   5.557   0.291   6.242 -0.2302  2.8948  2.6120
30088SOL    HW290843   5.707   0.299   6.258  0.4142 -0.3966 -0.5381
30089SOL     OW90844   2.551   0.193   1.546 -0.1598  0.3561 -0.2205
30089SOL    HW190845   2.529   0.111   1.590  0.6038 -0.0984 -0.6691
30089SOL    HW290846   2.607   0.239   1.608 -0.0184  0.2288 -0.2545
30090SOL     OW90847   3.884   5.866   6.315  0.0203  0.1622 -0.1070
30090SOL    HW190848   3.975   5.896   6.320  0.5947 -1.6192  1.0414
30090SOL    HW290849   3.876   5.828   6.228  1.2409 -2.1091  0.7040
30091SOL     OW90850   0.818   4.259   1.912  0.0205 -0.6648  0.1760
30091SOL    HW190851   0.747   4.322   1.904  1.1992  0.9102  1.4933
30091SOL    HW290852   0.896   4.312   1.929  1.2292 -2.4177  0.3879
30092SOL     OW90853   0.431   5.184   7.305  0.3111 -0.3864 -0.6257
30092SOL    HW190854   0.358   5.153   7.251 -1.7012  0.8324  1.2048
30092SOL    HW290855   0.414   5.146   7.391  1.7073  0.1437 -0.0974
30093SOL     OW90856   7.474   0.077   8.713  0.1197  0.3498  0.2949
30093SOL    HW190857   7.488   0.026   8.793  0.0583 -1.6880 -0.9210
30093SOL    HW290858   7.381   0.065   8.692  0.5080 -0.6268 -1.0042
30094SOL     OW90859   4.008   6.352   1.440 -0.0068  1.0805 -0.2936
30094SOL    HW190860   3.985   6.444   1.455 -0.6007  0.7593  0.9171
30094SOL    HW290861   3.956   6.304   1.504 -1.3481 -0.3082 -2.3206
30095SOL     OW90862   3.441   4.277   0.414 -0.0086  0.1080 -0.4894
30095SOL    HW190863   3.484   4.336   0.351  0.8867 -1.8727 -1.8435
30095SOL    HW290864   3.481   4.299   0.498  1.5501  0.3153 -1.2397
30096SOL     OW90865   6.440   8.416   9.823  0.4668 -0.0705 -0.2509
30096SOL    HW190866   6.503   8.422   9.751 -0.6114  0.0098 -1.2103
30096SOL    HW290867   6.425   8.507   9.849 -0.4050  0.0398 -1.0732
30097SOL     OW90868   8.672   5.218   3.926  0.1231  0.4634 -0.6546
30097SOL    HW190869   8.645   5.129   3.951 -1.0592  0.7013 -1.0231
30097SOL    HW290870   8.732   5.245   3.996 -2.1185  0.6471  1.3425
30098SOL     OW90871   8.558   5.978   6.722  0.2686  0.8731 -0.6360
30098SOL    HW190872   8.492   6.013   6.662 -0.7993  1.2297  0.6883
30098SOL    HW290873   8.511   5.968   6.805  1.2704 -1.1503 -0.2704
30099SOL     OW90874   3.020   9.814   1.968 -0.0494  0.0041 -0.0028
30099SOL    HW190875   3.027   9.759   1.890  2.2010 -1.1970  0.9410
30099SOL    HW290876   2.999   9.901   1.934  0.1124 -0.6329 -1.8776
30100SOL     OW90877   3.871   7.817   9.335 -0.0367 -0.0077  0.3663
30100SOL    HW190878   3.913   7.731   9.340 -0.5852 -0.2608  0.7388
30100SOL    HW290879   3.851   7.828   9.242  0.0826 -0.2596  0.3088
30101SOL     OW90880   9.613   3.742   9.884  0.0739 -0.0634 -0.3880
30101SOL    HW190881   9.681   3.738   9.952  0.4710  0.2648 -0.7516
30101SOL    HW290882   9.633   3.669   9.826 -1.1966 -1.3056  0.6700
30102SOL     OW90883   2.712   5.569   1.409 -0.6604  0.2044 -0.7067
30102SOL    HW190884   2.797   5.534   1.383  0.5163  2.1837  0.2118
30102SOL    HW290885   2.696   5.641   1.348 -0.7006  1.1060  0.3307
30103SOL     OW90886   0.795   7.845   3.678 -0.0208 -0.2706 -0.2820
30103SOL    HW190887   0.741   7.821   3.754 -0.3938 -0.9852 -0.7644
30103SOL    HW290888   0.885   7.836   3.709 -0.1601  0.6114  0.4294
30104SOL     OW90889   5.490   6.398   7.783  0.5044 -0.4151 -0.2224
30104SOL    HW190890   5.559   6.422   7.846 -0.7373  0.8572  0.7038
30104SOL    HW290891   5.451   6.319   7.819  0.9534 -0.6991 -0.3466
30105SOL     OW90892   6.087   4.623   3.851 -0.2660  0.2603  0.0142
30105SOL    HW190893   6.109   4.689   3.916  0.7182 -1.4727  1.5339
30105SOL    HW290894   6.031   4.561   3.898 -0.9285 -0.1461 -1.2743
30106SOL     OW90895   7.518   7.901   4.104  0.3889  0.4073  0.0423
30106SOL    HW190896   7.427   7.900   4.133  0.2329  1.2112 -0.3965
30106SOL    HW290897   7.541   7.808   4.092 -0.3617  0.2009  0.1826
30107SOL     OW90898   0.414   1.969   0.398 -0.1060  0.0556  0.1302
30107SOL    HW190899   0.502   2.006   0.396  0.5949 -1.5198  0.3813
30107SOL    HW290900   0.416   1.899   0.333 -1.1484 -0.0645  0.2112
30108SOL     OW90901   0.042   7.888   3.198  0.3194 -0.6483 -0.4789
30108SOL    HW190902   0.038   7.809   3.145  1.5975 -0.3754 -1.0203
30108SOL    HW290903   0.112   7.940   3.158  2.6709 -1.2476  2.5110
30109SOL     OW90904   1.935   2.746   7.903 -0.2613 -0.1315  0.3465
30109SOL    HW190905   2.012   2.698   7.874  0.0791  0.8835 -0.5145
30109SOL    HW290906   1.958   2.839   7.892 -0.8850  0.2574  1.9769
30110SOL     OW90907   1.768   7.717   3.554  0.2504 -0.4479  0.5658
30110SOL    HW190908   1.774   7.748   3.644 -1.7992 -1.8140  1.2474
30110SOL    HW290909   1.767   7.621   3.561  0.4374 -0.5879 -0.9437
30111SOL     OW90910   3.656   6.738   4.709  0.1509 -0.0377 -0.6180
30111SOL    HW190911   3.699   6.718   4.625 -1.1987 -1.5006 -1.0191
30111SOL    HW290912   3.679   6.665   4.766  1.6646  1.3076  0.5871
30112SOL     OW90913   9.237   1.216   2.309  0.1467 -0.2323 -0.4399
30112SOL    HW190914   9.308   1.158   2.336 -0.0516  0.3421  1.5161
30112SOL    HW290915   9.158   1.174   2.342 -0.0964  0.6081  0.0965
30113SOL     OW90916   9.313   2.033   9.775 -0.0008  0.1685  0.1861
30113SOL    HW190917   9.258   2.076   9.840  1.8884  2.0758  0.6549
30113SOL    HW290918   9.360   1.966   9.824  0.2254  0.5138  0.4511
30114SOL     OW90919   4.847   8.858   0.135 -0.1876 -0.1513 -0.6160
30114SOL    HW190920   4.869   8.921   0.067  2.4745  0.7455  0.8957
30114SOL    HW290921   4.879   8.775   0.102  0.9976  0.2598 -0.5555
30115SOL     OW90922   6.373   7.523   5.997  0.1157 -0.0810  0.3740
30115SOL    HW190923   6.402   7.604   5.956  0.5921  0.2870  1.3940
30115SOL    HW290924   6.388   7.455   5.931  0.1308  0.5951 -0.3237
30116SOL     OW90925   6.234   6.191   1.980 -0.4597 -0.0825 -0.1213
30116SOL    HW190926   6.291   6.207   1.905  0.9117 -0.8724  0.7078
30116SOL    HW290927   6.150   6.230   1.955  0.9071  2.7664 -0.6593
30117SOL     OW90928   6.300   8.866   5.048 -0.1616 -0.2826  0.6451
30117SOL    HW190929   6.330   8.859   4.958 -0.9148  0.2996  0.3426
30117SOL    HW290930   6.353   8.801   5.096  0.5143 -0.3203 -0.1310
30118SOL     OW90931   9.945   9.292   8.375  0.5999 -0.3611 -0.7707
30118SOL    HW190932   9.989   9.211   8.398  3.2817  0.2463 -3.2121
30118SOL    HW290933   9.913   9.278   8.285  1.8292  1.4506 -1.5635
30119SOL     OW90934   6.609   6.213   9.622  0.4464  0.2104  0.2096
30119SOL    HW190935   6.568   6.134   9.586 -0.5955  1.2974 -1.1035
30119SOL    HW290936   6.668   6.243   9.552  0.1178  1.0957  0.2997
30120SOL     OW90937   9.496   4.925   4.454 -0.1821  0.2500 -0.7117
30120SOL    HW190938   9.512   4.857   4.389  0.7869 -0.8750  0.6291
30120SOL    HW290939   9.401   4.935   4.456 -0.3217 -0.8774 -1.1292
30121SOL     OW90940   7.222   3.700   5.699 -0.1743  0.3880  0.0514
30121SOL    HW190941   7.276   3.725   5.774  0.5019 -1.7521  0.3490
30121SOL    HW290942   7.284   3.685   5.628 -0.6655  0.8243 -0.4798
30122SOL     OW90943   9.031   3.500   3.818  0.2422  0.0397 -0.4502
30122SOL    HW190944   8.952   3.548   3.795  0.0165 -0.2204 -0.2253
30122SOL    HW290945   9.003   3.409   3.826  0.4322  0.0385  0.2767
30123SOL     OW90946   8.315   2.769   4.116  0.1231  0.1189  0.0232
30123SOL    HW190947   8.271   2.690   4.146  0.3053  0.8834  2.6346
30123SOL    HW290948   8.251   2.839   4.131  0.3391  0.6013 -1.2409
30124SOL     OW90949   1.914   2.769   9.870  0.9540 -0.1639 -0.0498
30124SOL    HW190950   1.887   2.817   9.949 -0.9723 -0.2287 -0.6180
30124SOL    HW290951   1.988   2.819   9.836 -0.4276  1.9388 -0.1333
30125SOL     OW90952   0.180   8.156   0.425 -0.7722  0.2226  0.2141
30125SOL    HW190953   0.203   8.090   0.360  0.5856  0.4382  0.4471
30125SOL    HW290954   0.264   8.195   0.451 -1.3781  0.8193  1.3706
30126SOL     OW90955   3.343   3.574   2.330  0.1499 -0.0632  0.2301
30126SOL    HW190956   3.422   3.520   2.333 -0.1775 -0.5287  0.4796
30126SOL    HW290957   3.321   3.589   2.422  0.8408  1.3988  0.2033
30127SOL     OW90958   7.002   3.243   4.958 -0.1364 -0.0454 -0.1070
30127SOL    HW190959   7.076   3.245   5.019 -1.3918 -1.2478  1.5435
30127SOL    HW290960   6.955   3.324   4.976  0.2274  0.2416 -0.4418
30128SOL     OW90961   9.867   0.606   6.509  0.0814  0.0422  0.4233
30128SOL    HW190962   9.883   0.559   6.427  0.1767  0.6894  0.0690
30128SOL    HW290963   9.814   0.681   6.484  1.1953  0.9708  0.7398
30129SOL     OW90964   9.440   3.219   7.389  0.2962  0.3644 -0.0532
30129SOL    HW190965   9.470   3.310   7.391  0.4092  0.3284 -0.0542
30129SOL    HW290966   9.519   3.169   7.369  0.3987  0.2027  0.7202
30130SOL     OW90967   9.622   3.992   7.823  0.1823 -0.3902  0.0683
30130SOL    HW190968   9.714   3.998   7.799  0.4948  0.1801  1.3124
30130SOL    HW290969   9.609   3.901   7.847  0.4644 -0.4414  0.0245
30131SOL     OW90970   3.304   9.158   2.003 -0.0039 -0.0327 -0.1898
30131SOL    HW190971   3.316   9.064   2.012  1.8115  0.0988 -0.9026
30131SOL    HW290972   3.251   9.183   2.079 -1.9846 -1.8477 -0.8883
30132SOL     OW90973   4.961   8.300   3.579 -0.0552 -0.4312 -0.3986
30132SOL    HW190974   4.935   8.230   3.519 -0.9191 -1.4858  1.1426
30132SOL    HW290975   4.892   8.365   3.570 -1.4181 -1.5928  1.0188
30133SOL     OW90976   4.706   2.599   5.571 -0.7274 -0.1027  0.1076
30133SOL    HW190977   4.772   2.538   5.605 -0.5749 -0.2364 -0.4214
30133SOL    HW290978   4.688   2.658   5.644 -0.3320 -0.3271  0.3894
30134SOL     OW90979   7.034   3.576   3.779 -0.2807 -0.3609 -0.1930
30134SOL    HW190980   7.111   3.630   3.763 -0.2147 -0.6410 -0.8410
30134SOL    HW290981   7.067   3.498   3.822 -0.5799  0.8570  2.4563
30135SOL     OW90982   9.461   9.689   2.690 -0.1402  0.2917  0.5267
30135SOL    HW190983   9.472   9.595   2.680 -0.0857  0.2723  0.7788
30135SOL    HW290984   9.523   9.727   2.627 -0.0844  0.1620  0.5025
30136SOL     OW90985   2.316   1.678   3.607  0.3602 -0.4210 -0.5945
30136SOL    HW190986   2.341   1.597   3.562  0.8553  0.1409 -1.3327
30136SOL    HW290987   2.360   1.748   3.559 -0.8131  0.3903 -0.5452
30137SOL     OW90988   8.664   1.086   6.115  0.5224  0.4528 -0.3897
30137SOL    HW190989   8.649   1.099   6.021 -0.1629  1.4558 -0.1606
30137SOL    HW290990   8.608   1.012   6.138 -2.3380  2.5209 -0.0699
30138SOL     OW90991   7.315   1.777   5.004  0.1191 -0.1623 -0.8428
30138SOL    HW190992   7.335   1.684   5.017  1.3927  0.3710  1.8106
30138SOL    HW290993   7.395   1.813   4.966  0.2881  0.1100 -0.2496
30139SOL     OW90994   8.037   0.892   4.593  0.1930  0.5261 -0.2560
30139SOL    HW190995   8.062   0.806   4.557 -0.9230  0.1341 -0.1133
30139SOL    HW290996   8.118   0.926   4.631  0.3718 -1.0549  0.8829
30140SOL     OW90997   5.355   1.543   9.750 -0.3681 -0.1643  0.2472
30140SOL    HW190998   5.399   1.560   9.833  1.1004 -1.4459 -0.2156
30140SOL    HW290999   5.368   1.449   9.734 -0.0014  0.1678 -1.7423
30141SOL     OW91000   4.832   4.487   3.648 -0.3596 -0.2268  0.2473
30141SOL    HW191001   4.769   4.497   3.578 -1.7788  1.2248  1.6581
30141SOL    HW291002   4.916   4.511   3.609 -0.5694 -2.3346 -1.6968
30142SOL     OW91003   6.522   3.637   4.158  0.4585  0.1270  0.4770
30142SOL    HW191004   6.529   3.557   4.106  0.3953  0.7061 -0.4496
30142SOL    HW291005   6.435   3.632   4.198  0.2528 -0.0361  0.0181
30143SOL     OW91006   4.416   3.517   9.830 -0.0178 -0.6465 -0.1983
30143SOL    HW191007   4.359   3.441   9.816  0.4196 -0.7750 -1.3344
30143SOL    HW291008   4.471   3.521   9.752 -0.6146  1.3668 -0.5464
30144SOL     OW91009   6.093   6.779   9.634 -0.6407 -0.2227  0.1468
30144SOL    HW191010   6.135   6.726   9.566  2.3336  1.1608  0.7382
30144SOL    HW291011   6.042   6.717   9.686  3.4151 -2.8586  1.4289
30145SOL     OW91012   7.364   3.495   7.812  0.2046  0.2870 -0.4656
30145SOL    HW191013   7.314   3.549   7.751 -0.9723 -1.2976 -0.9755
30145SOL    HW291014   7.324   3.409   7.805  0.4971 -0.1191  2.0252
30146SOL     OW91015   5.899   2.626   3.947 -0.0932 -0.5639 -0.3872
30146SOL    HW191016   5.851   2.704   3.974 -0.3862 -0.3837 -1.3744
30146SOL    HW291017   5.929   2.646   3.858  1.0303 -1.0362 -0.1397
30147SOL     OW91018   4.637   2.706   8.667 -0.0216  0.4294  0.1284
30147SOL    HW191019   4.707   2.690   8.730 -0.8260  0.4335  1.0625
30147SOL    HW291020   4.579   2.767   8.712 -0.3270  0.8799 -0.8526
30148SOL     OW91021   1.657   5.888   7.366  0.0017  0.0659 -0.1190
30148SOL    HW191022   1.700   5.809   7.399  0.9362  0.8312  0.5412
30148SOL    HW291023   1.718   5.923   7.301  1.3007  2.1070  2.0573
30149SOL     OW91024   2.801   3.051   6.064 -0.2157 -0.1332  0.0992
30149SOL    HW191025   2.786   3.051   6.159  0.3334 -0.7317  0.1895
30149SOL    HW291026   2.810   3.144   6.042 -2.2773  0.1570  0.2996
30150SOL     OW91027   2.084   8.160   7.396  0.0629  0.1158 -0.1436
30150SOL    HW191028   2.123   8.082   7.356 -0.2812  0.2266 -0.6980
30150SOL    HW291029   2.153   8.227   7.390  0.3896 -0.1624  0.4100
30151SOL     OW91030   2.589   0.474   5.790  0.1738  0.3698 -0.2995
30151SOL    HW191031   2.632   0.558   5.810  1.5565 -0.2900 -0.4478
30151SOL    HW291032   2.577   0.475   5.695  2.3884 -0.5876 -0.6411
30152SOL     OW91033   7.232   6.136   5.788  0.3821 -0.3041  0.3806
30152SOL    HW191034   7.159   6.195   5.810 -0.2291  0.1389 -2.4504
30152SOL    HW291035   7.288   6.188   5.730  2.4439 -1.0165  1.6220
30153SOL     OW91036   8.578   0.976   5.167 -0.7135  0.2881  0.2810
30153SOL    HW191037   8.519   1.028   5.113  0.8233 -0.3465 -2.1650
30153SOL    HW291038   8.585   0.892   5.121  0.2157 -0.5295  1.8132
30154SOL     OW91039   5.834   0.726   4.495  0.2008  0.2920  0.1288
30154SOL    HW191040   5.743   0.735   4.522 -0.3002 -3.6679  0.3154
30154SOL    HW291041   5.884   0.730   4.577  0.2239  2.0208  0.0675
30155SOL     OW91042   9.726   5.488   4.281  0.8057 -0.5134  0.1367
30155SOL    HW191043   9.811   5.532   4.271 -0.1490  0.9950 -2.2918
30155SOL    HW291044   9.697   5.471   4.192 -0.7964 -2.4171  0.9407
30156SOL     OW91045   4.833   3.664   2.625  0.2723  0.1512 -0.0766
30156SOL    HW191046   4.909   3.625   2.583  0.0370 -1.5107  0.9383
30156SOL    HW291047   4.839   3.637   2.717 -0.4673  1.6985  0.4697
30157SOL     OW91048   3.501   6.746   7.904 -0.2225 -0.4906  0.2443
30157SOL    HW191049   3.442   6.705   7.966 -0.8920  0.3621  0.1940
30157SOL    HW291050   3.555   6.674   7.870 -0.3890 -1.0819  1.2084
30158SOL     OW91051   5.783   6.557   6.525  0.2215  0.3170 -0.4900
30158SOL    HW191052   5.701   6.532   6.569  1.4052 -2.3908  0.3542
30158SOL    HW291053   5.778   6.516   6.439  0.2160  1.1196 -0.8796
30159SOL     OW91054   5.452   4.831   0.458 -0.4800 -0.3555  0.1243
30159SOL    HW191055   5.379   4.835   0.520 -2.4264  0.2994 -2.0754
30159SOL    HW291056   5.440   4.748   0.412  0.5114 -0.4906  0.0871
30160SOL     OW91057   5.517   6.475   9.930 -0.3591  0.2692 -0.0855
30160SOL    HW191058   5.535   6.545   9.868  0.7708 -0.1551 -0.2613
30160SOL    HW291059   5.484   6.403   9.876  1.2471 -0.3318 -0.3223
30161SOL     OW91060   3.261   2.823   5.932  0.6937  0.1350 -0.0492
30161SOL    HW191061   3.181   2.875   5.944  0.3872 -0.3336 -0.0406
30161SOL    HW291062   3.234   2.733   5.951  1.2230 -0.0260 -0.0564
30162SOL     OW91063   2.323   4.961   7.093 -0.0872  0.1359 -0.5064
30162SOL    HW191064   2.291   4.871   7.095  3.4046 -1.2141  0.7606
30162SOL    HW291065   2.355   4.977   7.181  1.7896  1.6776 -1.4001
30163SOL     OW91066   7.558   6.390   1.097  0.0970 -0.0712 -0.0697
30163SOL    HW191067   7.497   6.362   1.165 -0.5635  0.6480 -0.3432
30163SOL    HW291068   7.637   6.416   1.145 -1.3263  3.1979  0.7995
30164SOL     OW91069   7.711   5.755   9.121 -0.0920 -0.3055  0.9298
30164SOL    HW191070   7.795   5.724   9.155  1.2304  1.0546 -0.8580
30164SOL    HW291071   7.648   5.736   9.190  1.4536 -2.4999  1.8402
30165SOL     OW91072   3.985   7.879   3.237 -0.0596 -0.5792 -0.0280
30165SOL    HW191073   3.978   7.829   3.155 -0.3526  0.7680 -0.8613
30165SOL    HW291074   4.076   7.871   3.263  0.3741  0.0762 -1.2427
30166SOL     OW91075   3.271   0.146   1.872  0.7746 -0.7424  0.4885
30166SOL    HW191076   3.250   0.166   1.781 -0.8896  0.6430  1.0986
30166SOL    HW291077   3.288   0.052   1.874 -0.3514 -1.0109 -1.0502
30167SOL     OW91078   2.103   3.203   1.594  0.4303 -0.1132  0.1597
30167SOL    HW191079   2.148   3.119   1.585 -1.5654 -1.3059  0.5217
30167SOL    HW291080   2.010   3.182   1.579  0.0469  2.3664 -1.5710
30168SOL     OW91081   6.319   6.384   0.704  0.4193 -0.0850  0.1759
30168SOL    HW191082   6.308   6.289   0.706 -1.0069  0.0110 -1.0052
30168SOL    HW291083   6.389   6.399   0.640 -1.3243 -0.2820 -1.8898
30169SOL     OW91084   7.373   2.933   3.629  0.6284 -0.4397 -0.8514
30169SOL    HW191085   7.285   2.970   3.629  0.9266  0.4264  1.0488
30169SOL    HW291086   7.364   2.848   3.670  0.9935  0.7944  2.0217
30170SOL     OW91087   1.994   6.205   2.243  0.4128 -0.5695 -0.6356
30170SOL    HW191088   2.067   6.158   2.282  0.6011  0.4756  0.3105
30170SOL    HW291089   2.033   6.285   2.208 -0.2022 -0.2236 -0.5453
30171SOL     OW91090   4.552   6.471   1.934  0.0817 -0.5501  0.9047
30171SOL    HW191091   4.500   6.417   1.875 -0.9132 -0.3202  1.5420
30171SOL    HW291092   4.614   6.411   1.976 -0.6070 -1.0899  1.1565
30172SOL     OW91093   8.136   0.585   7.264 -0.0815 -0.0249 -0.0021
30172SOL    HW191094   8.226   0.557   7.277 -0.0142  0.8072  1.5350
30172SOL    HW291095   8.138   0.680   7.270 -1.0241  0.0298 -0.2613
30173SOL     OW91096   0.076   3.379   5.119  0.1177 -0.2663  0.3804
30173SOL    HW191097   0.083   3.360   5.212  0.3002  1.8730  0.8392
30173SOL    HW291098  -0.014   3.407   5.106 -0.4061 -2.1952 -0.4540
30174SOL     OW91099   9.018   0.144   1.998  0.1480 -0.2564 -0.3368
30174SOL    HW191100   9.094   0.186   2.038  0.1597 -0.1088 -0.5133
30174SOL    HW291101   8.951   0.145   2.067  0.3025 -0.3846 -0.1819
30175SOL     OW91102   4.191   3.512   4.765 -0.0091 -0.1631 -0.8334
30175SOL    HW191103   4.109   3.550   4.734 -0.5662 -0.8596 -0.2548
30175SOL    HW291104   4.238   3.586   4.804 -0.5614  0.1620 -0.7732
30176SOL     OW91105   9.562   5.662   3.521 -0.5030 -1.0697  0.1327
30176SOL    HW191106   9.519   5.721   3.583 -0.8874  0.9678 -1.9399
30176SOL    HW291107   9.490   5.618   3.476 -0.2537 -1.6536  0.2918
30177SOL     OW91108   2.225   3.296   7.697  0.3690 -0.3131 -0.1697
30177SOL    HW191109   2.302   3.353   7.694 -0.9702  1.5646 -0.9566
30177SOL    HW291110   2.239   3.234   7.625  1.3785 -0.3273  0.0280
30178SOL     OW91111   0.571   6.967   3.206  0.0154 -0.2141 -0.1200
30178SOL    HW191112   0.483   6.954   3.239  0.3558  0.5242  1.1493
30178SOL    HW291113   0.597   6.881   3.171 -1.3224 -0.3315 -0.8814
30179SOL     OW91114   3.000   6.619   1.142 -0.0184 -0.2724  0.3703
30179SOL    HW191115   3.025   6.612   1.050 -1.6080  0.3381 -0.1324
30179SOL    HW291116   3.061   6.560   1.187  1.3637  0.0724 -0.9316
30180SOL     OW91117   8.301   3.284   0.020  0.1867  0.1746  0.5021
30180SOL    HW191118   8.217   3.244  -0.006  0.6397 -1.5376  1.5079
30180SOL    HW291119   8.341   3.219   0.078  1.9551  1.2210  0.5127
30181SOL     OW91120   5.253   6.411   4.428  0.0039 -0.2616  0.0890
30181SOL    HW191121   5.303   6.434   4.350 -1.4373  0.3492 -0.6913
30181SOL    HW291122   5.171   6.373   4.394 -0.4777 -0.3553  1.3009
30182SOL     OW91123   8.116   4.662   6.183 -0.5536  0.0481 -0.2167
30182SOL    HW191124   8.193   4.609   6.202 -1.6449 -1.5643 -0.0385
30182SOL    HW291125   8.091   4.637   6.094 -1.2713  0.0116 -0.0121
30183SOL     OW91126   6.635   0.484   7.858 -0.4670 -0.4435 -0.2653
30183SOL    HW191127   6.685   0.428   7.798 -1.9384  0.0763 -2.0820
30183SOL    HW291128   6.577   0.423   7.904  0.1190 -0.7570  0.0735
30184SOL     OW91129   6.303   6.039   4.790 -0.0204  0.0439 -0.3160
30184SOL    HW191130   6.322   6.131   4.805 -0.9540  0.0423  1.0671
30184SOL    HW291131   6.209   6.030   4.808  0.1804 -1.2702  0.2193
30185SOL     OW91132   7.216   0.279   4.764 -0.3082 -0.3070  0.1937
30185SOL    HW191133   7.210   0.225   4.843 -2.4918 -0.3721  0.0505
30185SOL    HW291134   7.231   0.368   4.796  1.4484 -0.6803  0.5161
30186SOL     OW91135   3.669   4.032   4.020  0.3273 -0.8063  0.5390
30186SOL    HW191136   3.682   4.006   3.929 -1.2849 -0.0862  0.0728
30186SOL    HW291137   3.751   4.075   4.044  0.3569  0.0359 -0.9513
30187SOL     OW91138   6.450   6.019   5.039 -0.0434  0.6611  0.2122
30187SOL    HW191139   6.475   5.928   5.050 -1.2262  0.0478 -1.6917
30187SOL    HW291140   6.404   6.022   4.955  0.1106  3.0464  0.1313
30188SOL     OW91141   7.535   9.301   9.438 -0.2903  0.4439 -0.3327
30188SOL    HW191142   7.597   9.246   9.485 -1.3585  0.4068  1.0974
30188SOL    HW291143   7.589   9.347   9.373  1.4756  1.3109  1.6152
30189SOL     OW91144   2.523   8.848   7.163 -0.0858 -0.0077  0.1701
30189SOL    HW191145   2.619   8.850   7.168  0.1433  1.2862 -2.6170
30189SOL    HW291146   2.494   8.904   7.235  1.2909  0.2233  0.5750
30190SOL     OW91147   5.214   6.144   1.542 -0.0413  0.6506 -0.0312
30190SOL    HW191148   5.141   6.191   1.500  1.0464  0.8139 -1.8318
30190SOL    HW291149   5.222   6.185   1.628 -1.9399  0.7586  0.1463
30191SOL     OW91150   4.663   1.119   8.290 -0.7859  0.1913 -0.3346
30191SOL    HW191151   4.622   1.182   8.230 -0.7187  0.0175 -0.5632
30191SOL    HW291152   4.616   1.037   8.274  0.4049 -0.2985 -1.4189
30192SOL     OW91153   2.696   1.497   0.204 -0.4440 -0.2673  0.5750
30192SOL    HW191154   2.717   1.464   0.116 -0.5894 -0.2252  0.5246
30192SOL    HW291155   2.760   1.453   0.261 -0.6099 -0.6097  0.5024
30193SOL     OW91156   5.126   7.521   9.528 -0.0856 -0.7671  0.2989
30193SOL    HW191157   5.068   7.458   9.570 -0.6170 -0.1921  0.4493
30193SOL    HW291158   5.117   7.601   9.580  0.6688 -0.5978  0.1857
30194SOL     OW91159   1.704   8.447   7.368  0.1906  0.0305  0.0558
30194SOL    HW191160   1.737   8.441   7.278 -1.1622  1.6361 -0.5998
30194SOL    HW291161   1.729   8.535   7.396  1.0637 -0.6456  1.4734
30195SOL     OW91162   7.940   7.171   3.189  0.5644  0.3082 -0.2811
30195SOL    HW191163   7.949   7.193   3.282 -0.2769  3.7380 -0.8769
30195SOL    HW291164   8.030   7.169   3.157  0.8007  0.2885  0.3607
30196SOL     OW91165   0.360   1.157   7.466  0.0119 -0.2054 -0.0557
30196SOL    HW191166   0.266   1.156   7.446 -0.3019  0.1630  1.3106
30196SOL    HW291167   0.389   1.245   7.441  0.2417 -0.6378 -1.4249
30197SOL     OW91168   2.993   7.134   6.227 -0.3489 -0.0269  0.2496
30197SOL    HW191169   2.973   7.129   6.320 -1.3935 -0.6270  0.0057
30197SOL    HW291170   3.013   7.044   6.202 -1.5855 -0.1348 -0.4201
30198SOL     OW91171   2.588   1.209   7.561  0.4767 -0.2072  0.2798
30198SOL    HW191172   2.659   1.216   7.624  0.1975 -1.6657  0.8019
30198SOL    HW291173   2.509   1.207   7.614  0.2239 -1.1271 -0.1034
30199SOL     OW91174   3.709   2.503   9.738 -0.0282 -0.3506 -0.3793
30199SOL    HW191175   3.737   2.414   9.758 -0.2829 -0.1474  1.0016
30199SOL    HW291176   3.618   2.495   9.712  0.1494 -0.5612 -0.9532
30200SOL     OW91177   0.930   2.457   0.487  0.2574 -0.6140  0.0258
30200SOL    HW191178   0.836   2.469   0.478  0.4173  0.3525 -0.5919
30200SOL    HW291179   0.944   2.444   0.581 -0.5388 -1.3754  0.0484
30201SOL     OW91180   2.057   5.355   7.846 -0.6278  0.3955  0.0903
30201SOL    HW191181   2.076   5.401   7.928 -0.8229 -0.5236  0.6640
30201SOL    HW291182   2.123   5.388   7.784 -0.4422  1.0540  0.6272
30202SOL     OW91183   2.587   6.012   0.602  0.4768 -0.2172  0.5847
30202SOL    HW191184   2.555   6.064   0.675  2.7911  0.5491  1.1514
30202SOL    HW291185   2.582   6.071   0.526 -2.5177 -1.2140 -0.1138
30203SOL     OW91186   8.378   4.580   2.773  0.0781  0.3977 -0.4586
30203SOL    HW191187   8.451   4.556   2.830 -0.3921  0.7494  0.3112
30203SOL    HW291188   8.348   4.664   2.807 -0.8689  0.1175 -0.5757
30204SOL     OW91189   9.381   9.868   0.110  0.5907 -0.6572  0.4789
30204SOL    HW191190   9.359   9.946   0.059  0.0627  0.0338  1.7137
30204SOL    HW291191   9.324   9.799   0.074 -0.5951  0.0964  0.8458
30205SOL     OW91192   4.949   4.027   4.012  0.2840 -0.1511  0.3226
30205SOL    HW191193   4.958   4.103   3.954 -1.4148 -0.0201  0.1780
30205SOL    HW291194   5.036   3.988   4.014  1.3587  2.0571  0.7640
30206SOL     OW91195   9.659   7.069   7.528 -0.1906 -0.1611  0.2350
30206SOL    HW191196   9.673   7.021   7.446 -1.3164 -0.0753 -0.0169
30206SOL    HW291197   9.710   7.020   7.592  1.5698  0.3618 -0.6886
30207SOL     OW91198   9.860   9.096   7.415 -0.7026  0.4686  0.6899
30207SOL    HW191199   9.821   9.135   7.337 -1.1470  1.0002  1.1726
30207SOL    HW291200   9.911   9.166   7.454  0.6964 -0.1765  0.1350
30208SOL     OW91201   7.876   7.840   5.606 -0.2977  0.5981  0.0836
30208SOL    HW191202   7.879   7.896   5.684  0.5000 -0.5803  0.9380
30208SOL    HW291203   7.966   7.841   5.573 -0.6993  1.3348 -1.0177
30209SOL     OW91204   5.167   4.018   6.623 -0.6968  0.1695 -0.5110
30209SOL    HW191205   5.085   4.014   6.673 -0.7878  0.5960 -0.6247
30209SOL    HW291206   5.145   4.068   6.544 -0.5558 -0.5008 -0.9881
30210SOL     OW91207   8.882   9.500   6.288  0.5348 -0.2799 -0.6942
30210SOL    HW191208   8.796   9.511   6.250  1.3466  2.7214 -1.9626
30210SOL    HW291209   8.904   9.586   6.324 -0.1129 -2.5522  7.0175
30211SOL     OW91210   6.634   8.213   8.210  0.0702 -0.5326  0.3802
30211SOL    HW191211   6.674   8.289   8.168  0.2134 -0.4455  0.6724
30211SOL    HW291212   6.654   8.223   8.303  1.3219 -1.6593  0.2766
30212SOL     OW91213   0.143   4.307   5.469 -0.2817  0.2839 -0.3026
30212SOL    HW191214   0.090   4.369   5.519 -2.4096  2.2378 -4.4126
30212SOL    HW291215   0.079   4.246   5.431  0.8202  0.2550 -2.2800
30213SOL     OW91216   1.225   0.288   2.752  0.0430  0.4185 -0.2813
30213SOL    HW191217   1.302   0.291   2.696  0.4792 -0.1860  0.2804
30213SOL    HW291218   1.214   0.196   2.774  0.8211  0.7868  1.8929
30214SOL     OW91219   6.665   9.085   4.197 -0.8817 -0.1914 -0.1285
30214SOL    HW191220   6.731   9.053   4.135 -0.5522  0.4535 -0.1154
30214SOL    HW291221   6.658   9.015   4.263  1.5509  0.7043  1.1980
30215SOL     OW91222   9.498   6.281   0.480 -0.8399  0.0278  0.3825
30215SOL    HW191223   9.404   6.279   0.499 -0.6951  1.0483  1.3147
30215SOL    HW291224   9.534   6.211   0.535 -1.0275 -0.2326  0.1763
30216SOL     OW91225   9.427   3.252   0.735  0.0825  0.0989 -0.2283
30216SOL    HW191226   9.436   3.346   0.747  0.0711  0.0079  0.5530
30216SOL    HW291227   9.346   3.230   0.781  1.0138 -0.5511  1.1839
30217SOL     OW91228   8.340   0.537   6.100 -0.3987 -0.1593 -0.2595
30217SOL    HW191229   8.422   0.580   6.075 -0.0908 -0.5760  0.0198
30217SOL    HW291230   8.365   0.447   6.120 -0.8540 -0.1784  0.2555
30218SOL     OW91231   8.714   0.368   6.604  0.3395 -0.2269  0.3262
30218SOL    HW191232   8.702   0.288   6.553 -2.1506  0.7556 -0.7608
30218SOL    HW291233   8.627   0.408   6.608  0.8874  0.9307  3.4417
30219SOL     OW91234   7.952   5.883   5.413  0.0589 -0.3485  0.6079
30219SOL    HW191235   7.932   5.955   5.353 -1.8995 -1.1792  0.1842
30219SOL    HW291236   8.020   5.833   5.369 -0.4962 -0.2561 -0.3862
30220SOL     OW91237   1.573   1.467   3.200 -0.1423  0.0696 -0.0533
30220SOL    HW191238   1.505   1.533   3.207  0.2425  0.5860 -1.0182
30220SOL    HW291239   1.544   1.396   3.258 -1.1724  0.5515  0.0353
30221SOL     OW91240   8.162   2.184   0.224 -0.6859  0.1520  0.2236
30221SOL    HW191241   8.251   2.156   0.204 -0.1175  1.6379  0.5372
30221SOL    HW291242   8.106   2.118   0.183  0.5462 -0.8950  0.1562
30222SOL     OW91243   8.405   7.287   0.463  0.3930  0.0500  0.3387
30222SOL    HW191244   8.400   7.201   0.421  1.2048 -0.0382  0.4169
30222SOL    HW291245   8.456   7.341   0.402  0.7879  0.1782  0.7725
30223SOL     OW91246   0.144   7.746   8.437 -0.1544 -0.4781 -0.2728
30223SOL    HW191247   0.069   7.799   8.465  0.9366  0.8155  0.3145
30223SOL    HW291248   0.193   7.804   8.379  1.4157 -0.5883  0.8991
30224SOL     OW91249   5.690   8.945   6.985  0.0722 -0.1375 -0.0381
30224SOL    HW191250   5.750   8.994   7.042 -0.0245 -0.0286 -0.0304
30224SOL    HW291251   5.738   8.937   6.903  0.3252 -0.5333  0.1400
30225SOL     OW91252   0.783   8.517   3.025 -0.1773  0.1515  0.4295
30225SOL    HW191253   0.797   8.597   3.076 -0.3857  0.8482 -0.5664
30225SOL    HW291254   0.724   8.464   3.078 -0.1143  0.7073  1.0635
30226SOL     OW91255   1.725   6.580   7.213 -0.2062  0.4597  0.1348
30226SOL    HW191256   1.642   6.591   7.259 -0.8760  0.2971 -0.9820
30226SOL    HW291257   1.704   6.597   7.121  1.0487  0.6350 -0.1420
30227SOL     OW91258   9.822   8.511   4.438 -0.2547  0.0079 -0.1615
30227SOL    HW191259   9.818   8.444   4.507 -1.6183 -1.2779 -1.4263
30227SOL    HW291260   9.759   8.578   4.466  1.6170  1.2056  1.4605
30228SOL     OW91261   5.921   9.835   4.189  0.3085 -0.1185 -0.3841
30228SOL    HW191262   5.853   9.860   4.126  1.5396  0.4280 -1.5356
30228SOL    HW291263   5.901   9.887   4.267 -1.3524 -0.9547 -0.1888
30229SOL     OW91264   9.237   3.181   1.243  0.7338 -0.2245 -0.2287
30229SOL    HW191265   9.157   3.207   1.288  1.2832 -1.3563  1.5151
30229SOL    HW291266   9.257   3.255   1.185 -1.3271  0.2314 -0.4320
30230SOL     OW91267   0.228   1.522   3.245  1.1829  0.4168 -0.4756
30230SOL    HW191268   0.260   1.440   3.283 -0.3896 -1.0411 -2.0756
30230SOL    HW291269   0.143   1.536   3.285  0.2348 -0.2658 -2.1273
30231SOL     OW91270   9.397   9.934   4.512 -0.0266 -0.3888 -0.0538
30231SOL    HW191271   9.349   9.969   4.436  1.2078 -0.3480 -0.8396
30231SOL    HW291272   9.329   9.903   4.571 -1.1248  1.8017 -0.0794
30232SOL     OW91273   3.815   6.247   4.706 -0.5207 -0.0502  0.1736
30232SOL    HW191274   3.829   6.217   4.796 -0.8005 -0.0780  0.2076
30232SOL    HW291275   3.895   6.222   4.660 -1.1034 -1.7014 -0.0195
30233SOL     OW91276   7.301   5.102   2.957 -0.0215 -0.0618 -0.1091
30233SOL    HW191277   7.210   5.125   2.938 -0.0246  0.7977  0.8442
30233SOL    HW291278   7.348   5.121   2.876 -0.7692 -1.0751 -0.8033
30234SOL     OW91279   9.033   9.032   1.491 -0.0440 -0.0775 -0.5691
30234SOL    HW191280   9.009   8.957   1.437 -0.1730 -0.7670  0.4149
30234SOL    HW291281   9.122   9.054   1.465  0.2631 -1.0394 -0.3714
30235SOL     OW91282   4.860   2.500   9.661 -0.2527 -0.5224  0.4318
30235SOL    HW191283   4.789   2.530   9.717 -0.6648  0.9351 -0.8188
30235SOL    HW291284   4.934   2.557   9.681  0.3127 -1.4263  1.0430
30236SOL     OW91285   5.000   8.852   2.119 -0.6161  0.3157  0.4705
30236SOL    HW191286   5.012   8.897   2.035  0.3912  2.0388  1.4732
30236SOL    HW291287   5.038   8.912   2.184 -1.0676 -1.1113  2.1296
30237SOL     OW91288   0.290   9.808   6.732  0.3606  0.3986 -0.3040
30237SOL    HW191289   0.305   9.715   6.747 -0.1826  0.4244  0.4290
30237SOL    HW291290   0.377   9.843   6.713  0.4728 -0.3713 -1.2443
30238SOL     OW91291   2.342   9.632   7.876 -0.3315  0.7217 -0.3036
30238SOL    HW191292   2.315   9.587   7.956 -0.6438  0.2140 -0.6867
30238SOL    HW291293   2.416   9.582   7.844 -0.4524  0.6946 -0.5417
30239SOL     OW91294   5.940   4.432   3.631 -0.5724  0.2506  0.1823
30239SOL    HW191295   5.921   4.420   3.724 -0.4401 -1.5039  0.0197
30239SOL    HW291296   5.974   4.347   3.602 -0.5400  0.7793 -1.4563
30240SOL     OW91297   0.351   7.059   8.900 -0.0937 -0.2350 -0.7838
30240SOL    HW191298   0.283   7.116   8.863  1.0870  0.4540 -2.0036
30240SOL    HW291299   0.343   7.070   8.994 -0.2897  1.5251 -0.9695
30241SOL     OW91300   8.535   6.946   0.634  0.0608 -0.3747  0.1046
30241SOL    HW191301   8.595   7.014   0.601 -0.6507 -0.0668 -0.5982
30241SOL    HW291302   8.515   6.893   0.557 -1.7173  0.4143 -0.0173
30242SOL     OW91303   5.654   2.735   4.981  0.5253 -0.0681 -0.5305
30242SOL    HW191304   5.565   2.763   4.961 -0.9551 -2.9398  1.3705
30242SOL    HW291305   5.681   2.685   4.904 -0.1814 -0.5759 -0.4573
30243SOL     OW91306   8.824   4.261   0.106  0.0254 -0.0339  0.1406
30243SOL    HW191307   8.919   4.256   0.098  0.0684 -1.6253  1.1160
30243SOL    HW291308   8.793   4.277   0.017  1.2709  3.1629  0.1603
30244SOL     OW91309   7.444   3.496   6.390 -0.0371  0.1995 -0.2669
30244SOL    HW191310   7.453   3.472   6.482  2.9858 -1.0113 -0.7435
30244SOL    HW291311   7.388   3.574   6.391 -1.6057 -0.8208  2.3617
30245SOL     OW91312   6.382   8.281   7.313 -0.2031  0.0106  0.5005
30245SOL    HW191313   6.390   8.300   7.219 -1.0055 -3.1041 -0.3238
30245SOL    HW291314   6.362   8.366   7.353  2.4341  1.8685 -1.7652
30246SOL     OW91315   4.510   4.082   1.724  0.1796 -0.9601  0.0995
30246SOL    HW191316   4.579   4.065   1.788 -1.1668  0.6268  2.1202
30246SOL    HW291317   4.520   4.175   1.702 -0.5202 -1.0390 -0.5930
30247SOL     OW91318   2.287   1.520   2.598 -0.2666  0.6697  0.1091
30247SOL    HW191319   2.349   1.480   2.659  0.6235  1.3959 -0.2895
30247SOL    HW291320   2.311   1.482   2.513 -0.1358  1.2191 -0.1011
30248SOL     OW91321   3.185   5.209   7.712  0.3556 -0.3050 -0.2918
30248SOL    HW191322   3.143   5.231   7.628  1.1862  1.3282 -0.3280
30248SOL    HW291323   3.277   5.235   7.700  0.5629 -0.3710  1.0118
30249SOL     OW91324   6.215   2.852   6.297 -0.1536 -0.0017 -0.4160
30249SOL    HW191325   6.133   2.817   6.263 -0.4608 -0.3985  0.6930
30249SOL    HW291326   6.193   2.938   6.332  0.2018  0.4899 -1.3653
30250SOL     OW91327   1.714   9.721   2.391 -0.2004  0.3625  0.4944
30250SOL    HW191328   1.680   9.638   2.423 -2.0114  0.6530 -0.5716
30250SOL    HW291329   1.677   9.787   2.449 -0.7861  0.6170 -0.1593
30251SOL     OW91330   0.780   9.487   0.366 -0.3001 -0.5984 -0.0610
30251SOL    HW191331   0.731   9.472   0.448 -0.7911 -0.5679 -0.3426
30251SOL    HW291332   0.730   9.439   0.300 -0.2472 -0.1184 -0.4507
30252SOL     OW91333   3.292   1.128   5.704 -0.3715  0.2177  0.8911
30252SOL    HW191334   3.353   1.060   5.733  0.0866 -0.0046 -0.5596
30252SOL    HW291335   3.234   1.083   5.642 -0.7153  0.9104  0.7011
30253SOL     OW91336   3.354   9.317   7.795 -0.3164  0.2714 -0.5324
30253SOL    HW191337   3.387   9.309   7.705  1.2983 -0.0793  0.0460
30253SOL    HW291338   3.432   9.303   7.850 -1.2242  0.6977  0.9178
30254SOL     OW91339   4.784   6.672   9.935  0.2715  0.3966  0.0348
30254SOL    HW191340   4.730   6.619   9.994 -0.8219 -0.5932 -1.7817
30254SOL    HW291341   4.736   6.754   9.926 -0.4110 -0.0759 -0.7362
30255SOL     OW91342   3.017   4.462   3.879 -0.1231  0.5863  0.5315
30255SOL    HW191343   2.975   4.412   3.808  0.1518 -0.2403  0.9393
30255SOL    HW291344   2.990   4.417   3.959  1.6661 -0.0814  0.7927
30256SOL     OW91345   3.940   2.813   3.633 -0.2658 -0.5518 -0.2988
30256SOL    HW191346   3.921   2.887   3.690 -0.8148 -1.2860  0.4844
30256SOL    HW291347   4.020   2.775   3.669 -1.3198 -1.8050  0.8268
30257SOL     OW91348   1.706   2.200   1.008  0.1414  0.4629  0.0485
30257SOL    HW191349   1.793   2.207   0.966  0.8146  0.9949  1.4766
30257SOL    HW291350   1.659   2.277   0.976  1.3954  2.0631  1.8453
30258SOL     OW91351   1.176   8.376   9.441  0.2298 -0.9813  0.0028
30258SOL    HW191352   1.221   8.435   9.502  0.6911 -0.2564 -1.0109
30258SOL    HW291353   1.144   8.305   9.496  0.1305 -0.0636  1.1880
30259SOL     OW91354   9.927   3.455   4.063  0.2485  0.1210 -0.0520
30259SOL    HW191355   9.949   3.427   3.974 -0.3132  1.1006 -0.5054
30259SOL    HW291356   9.872   3.384   4.097 -0.8899  0.4881 -1.0721
30260SOL     OW91357   6.003   8.897   3.582 -0.3862  0.3658 -0.4747
30260SOL    HW191358   6.072   8.948   3.541 -1.0698  3.1566  1.5338
30260SOL    HW291359   6.046   8.816   3.611  1.3648  0.8465 -1.5975
30261SOL     OW91360   2.361   6.282   3.425 -0.3978 -0.0793  0.0513
30261SOL    HW191361   2.411   6.309   3.347  0.3903  1.6037  1.0580
30261SOL    HW291362   2.410   6.208   3.461  0.0216  0.0243 -0.2985
30262SOL     OW91363   0.047   8.140   8.892  0.1161  0.0070 -0.0322
30262SOL    HW191364   0.026   8.229   8.862  0.4435  0.4205  0.9317
30262SOL    HW291365  -0.036   8.094   8.889  0.3646 -0.4929 -3.1428
30263SOL     OW91366   8.838   3.904   8.752 -0.2144 -0.3941 -0.6908
30263SOL    HW191367   8.863   3.852   8.828  0.4845 -0.0052 -0.6464
30263SOL    HW291368   8.876   3.990   8.768 -2.4305  0.5606 -0.1490
30264SOL     OW91369   2.171   0.439   3.426  0.0413  0.0149  0.0681
30264SOL    HW191370   2.224   0.362   3.450 -1.3311 -1.1159 -0.3506
30264SOL    HW291371   2.232   0.498   3.383  1.0450 -1.0775 -0.0744
30265SOL     OW91372   8.465   2.842   6.237  0.1365  0.0607 -0.0265
30265SOL    HW191373   8.418   2.898   6.298 -1.6611 -0.5759 -0.7563
30265SOL    HW291374   8.547   2.888   6.220  0.7895  0.2131  2.9076
30266SOL     OW91375   7.208   8.927   5.993 -0.0116  0.2520 -0.5514
30266SOL    HW191376   7.205   8.964   5.904  1.2687  0.3317 -0.5854
30266SOL    HW291377   7.298   8.942   6.021 -0.1945 -0.4959  0.4642
30267SOL     OW91378   2.875   4.047   9.894  0.1208  0.3579  0.4378
30267SOL    HW191379   2.971   4.045   9.896  0.1516  0.6980 -0.5619
30267SOL    HW291380   2.853   4.135   9.865 -0.5055  0.2875  0.6799
30268SOL     OW91381   7.052   4.495   6.002  0.1536 -0.3450  0.4425
30268SOL    HW191382   7.013   4.564   6.055  2.7366  2.0006 -0.4101
30268SOL    HW291383   6.999   4.493   5.922 -0.4885  0.0314  0.8557
30269SOL     OW91384   4.170   0.820   7.434 -0.0497  0.0679  0.1919
30269SOL    HW191385   4.078   0.796   7.448 -0.4204  2.0952  1.5425
30269SOL    HW291386   4.172   0.855   7.345 -1.1696  2.2806  0.9602
30270SOL     OW91387   1.794   4.483   2.974  0.7542 -0.5450 -0.4137
30270SOL    HW191388   1.849   4.480   3.052  0.4253  3.7412  0.2222
30270SOL    HW291389   1.717   4.431   2.997  0.9930  0.0147  1.8761
30271SOL     OW91390   9.316   6.682   9.256  0.8526  0.0903 -0.0253
30271SOL    HW191391   9.294   6.609   9.197  0.1588  0.3468 -0.0841
30271SOL    HW291392   9.236   6.698   9.306  0.6837  1.4446 -0.6862
30272SOL     OW91393   8.963   5.008   4.481 -0.1125  0.6458  0.5869
30272SOL    HW191394   8.906   5.068   4.432  1.0404  1.3465  0.0508
30272SOL    HW291395   8.916   4.925   4.480 -0.2671  0.7000 -1.5097
30273SOL     OW91396   5.421   7.876   7.825 -0.4896  0.3474  0.3732
30273SOL    HW191397   5.398   7.787   7.852 -2.5324  0.4878 -0.7099
30273SOL    HW291398   5.349   7.930   7.858 -0.2723  1.2999 -0.6562
30274SOL     OW91399   2.167   8.678   1.043 -0.1029  0.1817 -0.1383
30274SOL    HW191400   2.142   8.688   1.135 -1.3870 -0.5865 -0.3715
30274SOL    HW291401   2.134   8.591   1.018 -1.0240  0.9236 -1.6816
30275SOL     OW91402   5.959   9.317   3.746 -0.0392 -0.5826  0.0171
30275SOL    HW191403   5.896   9.307   3.674  0.1511 -1.3300 -0.0589
30275SOL    HW291404   5.946   9.239   3.800  0.6906 -0.6521  0.0989
30276SOL     OW91405   5.583   8.150   7.923 -0.1677  0.3956  0.4976
30276SOL    HW191406   5.645   8.103   7.868  2.0473  0.3050  2.8546
30276SOL    HW291407   5.510   8.090   7.934  0.0275 -0.1693 -1.0343
30277SOL     OW91408   9.053   0.899   7.337 -0.3921 -0.1404 -0.1740
30277SOL    HW191409   9.077   0.989   7.313  0.6236 -0.8626 -2.1018
30277SOL    HW291410   9.103   0.844   7.277  0.7768 -2.1436  2.4279
30278SOL     OW91411   8.644   3.956   2.672  0.5815  0.2596  0.0444
30278SOL    HW191412   8.656   4.041   2.713  2.1132  0.2859 -0.3720
30278SOL    HW291413   8.579   3.970   2.604  0.5861  1.0234  0.1933
30279SOL     OW91414   3.077   4.088   3.682  0.1138  0.6528 -0.0368
30279SOL    HW191415   3.014   4.157   3.703 -0.5550 -0.3430  1.3716
30279SOL    HW291416   3.023   4.013   3.657  0.5505 -0.7878  2.9000
30280SOL     OW91417   2.788   1.580   1.442 -0.0456 -0.2755  0.6470
30280SOL    HW191418   2.762   1.530   1.519 -0.1415 -1.5756 -0.1894
30280SOL    HW291419   2.813   1.513   1.378  0.4445  0.7837 -0.3038
30281SOL     OW91420   4.613   4.478   0.601 -0.1282 -0.1928  0.5876
30281SOL    HW191421   4.525   4.515   0.591  0.5489  1.2014 -0.4864
30281SOL    HW291422   4.605   4.419   0.676 -2.2225 -0.8737 -0.0948
30282SOL     OW91423   4.345   2.309   9.291 -0.1364 -0.5874 -0.0519
30282SOL    HW191424   4.255   2.330   9.319  0.2984  0.9051  0.3532
30282SOL    HW291425   4.400   2.356   9.354  0.9123 -0.1610 -1.2577
30283SOL     OW91426   7.301   7.019   9.773  0.1070 -0.1218 -0.5188
30283SOL    HW191427   7.248   6.963   9.717 -0.2966  0.0753 -0.3394
30283SOL    HW291428   7.283   6.988   9.862 -1.4164  1.3281 -0.2642
30284SOL     OW91429   8.235   9.167   4.763  0.1489  0.2259  0.0402
30284SOL    HW191430   8.154   9.179   4.813  0.5624 -0.9592  1.0479
30284SOL    HW291431   8.205   9.133   4.678 -0.4044 -0.4523  0.4963
30285SOL     OW91432   6.551   0.865   4.406 -0.4657 -0.0617  0.0953
30285SOL    HW191433   6.595   0.942   4.443  0.5302 -0.1139 -0.9261
30285SOL    HW291434   6.515   0.819   4.481  1.6600 -0.2796  1.0458
30286SOL     OW91435   6.922   3.692   7.280  0.6196 -0.2286  0.1238
30286SOL    HW191436   6.945   3.607   7.243  1.4150 -0.2320  0.5945
30286SOL    HW291437   6.976   3.755   7.232  0.9396 -0.1303  0.6040
30287SOL     OW91438   8.883   3.376   7.530  0.2445  0.4963  0.8610
30287SOL    HW191439   8.889   3.413   7.442 -1.8646  0.8701  0.8168
30287SOL    HW291440   8.855   3.449   7.585 -0.4448 -0.1901  1.4469
30288SOL     OW91441   5.727   1.794   2.371  0.4061 -0.1597  0.8209
30288SOL    HW191442   5.765   1.858   2.311  1.7755  1.1638  2.9591
30288SOL    HW291443   5.704   1.720   2.315  1.5373  1.0106 -1.3343
30289SOL     OW91444   3.131   4.636   2.243  0.3944  0.3219 -0.7668
30289SOL    HW191445   3.074   4.577   2.293 -1.4738  1.4320 -1.4639
30289SOL    HW291446   3.183   4.578   2.188  1.4284 -0.8387  1.3195
30290SOL     OW91447   5.241   8.791   4.650 -0.1911 -0.5337  0.6921
30290SOL    HW191448   5.270   8.705   4.682 -0.5638 -1.2368 -0.7699
30290SOL    HW291449   5.319   8.847   4.658  0.5766 -1.4719  0.0440
30291SOL     OW91450   1.608   7.332   6.042  0.0292  0.3670  0.0732
30291SOL    HW191451   1.703   7.327   6.055  0.1220  0.0567 -0.6961
30291SOL    HW291452   1.597   7.363   5.952 -0.5998  0.2252  0.0953
30292SOL     OW91453   1.642   2.923   6.894 -0.1283  0.3527  0.0889
30292SOL    HW191454   1.548   2.915   6.879 -0.1214 -0.1837  0.3083
30292SOL    HW291455   1.660   3.016   6.885 -0.7355  0.4985  0.3484
30293SOL     OW91456   4.919   1.007   7.836 -0.8812  0.0200  0.1874
30293SOL    HW191457   4.902   0.960   7.917 -0.6172 -0.0267  0.2166
30293SOL    HW291458   4.973   1.081   7.862 -1.6399  0.5776  0.2039
30294SOL     OW91459   1.837   8.496   8.188 -0.0368 -0.4295 -0.0089
30294SOL    HW191460   1.791   8.416   8.212 -1.3045  0.3359  0.2046
30294SOL    HW291461   1.830   8.500   8.092  1.1620 -1.2172 -0.1469
30295SOL     OW91462   0.100   4.967   1.855 -0.2715  0.4025 -0.2600
30295SOL    HW191463   0.056   4.892   1.895  0.2628  0.4706  0.4854
30295SOL    HW291464   0.159   4.928   1.790  1.5022 -0.0195  1.5204
30296SOL     OW91465   5.296   6.784   9.962 -0.2458 -0.6137  0.2820
30296SOL    HW191466   5.225   6.728   9.929 -0.9277  0.4940 -0.2151
30296SOL    HW291467   5.276   6.871   9.926  0.8665 -0.0824  0.8964
30297SOL     OW91468   9.300   0.530   9.043  0.1179 -0.2504 -0.1450
30297SOL    HW191469   9.378   0.487   9.008  0.4259  0.4900 -0.3888
30297SOL    HW291470   9.333   0.613   9.077 -0.1625 -0.9162  1.8922
30298SOL     OW91471   5.646   4.662   7.253  0.0017 -0.6268 -0.1394
30298SOL    HW191472   5.723   4.646   7.199 -0.1186  0.5009 -0.6777
30298SOL    HW291473   5.594   4.726   7.203 -0.7149 -0.4915  0.7427
30299SOL     OW91474   6.311   9.067   2.462  0.5426  0.0773 -0.0268
30299SOL    HW191475   6.393   9.057   2.509  0.0030  0.2225  0.9850
30299SOL    HW291476   6.313   8.999   2.395  0.6901 -1.1609  1.1805
30300SOL     OW91477   3.048   4.317   9.517 -0.0305 -0.0237 -0.2320
30300SOL    HW191478   3.132   4.290   9.479 -0.1820 -1.1760  0.2017
30300SOL    HW291479   3.047   4.275   9.603 -1.2002 -0.3259 -0.3774
30301SOL     OW91480   2.771   7.325   8.982  0.2782  0.0628  0.0461
30301SOL    HW191481   2.798   7.274   8.906 -1.0144 -0.5270 -0.0423
30301SOL    HW291482   2.722   7.398   8.947  0.7230  0.4689  0.2597
30302SOL     OW91483   6.925   9.841   3.895  0.5536  1.1139 -0.2955
30302SOL    HW191484   6.899   9.804   3.979 -0.1944  1.3794 -0.4035
30302SOL    HW291485   6.975   9.772   3.852  0.1582  0.6485 -0.0140
30303SOL     OW91486   2.471   6.993   9.555  0.0614 -0.3031 -0.0453
30303SOL    HW191487   2.399   6.963   9.499  0.1767 -1.1470  0.2400
30303SOL    HW291488   2.480   6.924   9.621  0.1606  0.4946  0.8081
30304SOL     OW91489   1.071   8.959   0.559  0.3432 -0.1582  0.3078
30304SOL    HW191490   1.107   8.993   0.477  0.3551 -1.2995 -0.1698
30304SOL    HW291491   1.115   9.011   0.627  0.7795  0.3870 -0.3730
30305SOL     OW91492   0.076   7.016   8.601 -0.2876  0.0999 -0.1778
30305SOL    HW191493   0.129   7.087   8.636 -0.6576  0.1671  0.2546
30305SOL    HW291494   0.029   7.055   8.528 -1.3066  0.5986  0.7188
30306SOL     OW91495   1.509   2.241   4.626  0.0827  0.0097  0.2317
30306SOL    HW191496   1.432   2.279   4.668 -0.7897 -1.5044  0.1056
30306SOL    HW291497   1.578   2.247   4.692  0.2194  2.4506 -0.0695
30307SOL     OW91498   9.796   5.696   9.944  0.1737 -0.6979 -0.7330
30307SOL    HW191499   9.720   5.648   9.910 -1.9787  1.6784  0.3612
30307SOL    HW291500   9.816   5.760   9.876  0.4625 -0.5671 -0.5283
30308SOL     OW91501   1.372   9.185   3.119 -0.1168 -0.8120 -0.3514
30308SOL    HW191502   1.321   9.179   3.199 -0.7151  0.5278 -0.5996
30308SOL    HW291503   1.371   9.097   3.082  1.8385 -1.9865  2.0787
30309SOL     OW91504   8.972   2.533   7.072 -0.0421 -0.0739  0.3048
30309SOL    HW191505   8.930   2.448   7.086 -1.2941  0.1394 -1.8166
30309SOL    HW291506   9.015   2.525   6.987 -0.1715  1.4099  0.0813
30310SOL     OW91507   0.511   5.873   3.676  0.3178 -0.2052  0.1839
30310SOL    HW191508   0.602   5.868   3.648  0.6076  0.0294  1.0578
30310SOL    HW291509   0.512   5.932   3.751 -0.2450 -1.7161  1.4324
30311SOL     OW91510   9.141   0.762   7.740  0.5288 -0.1831 -0.3400
30311SOL    HW191511   9.208   0.729   7.679  1.4978 -1.1681  1.1563
30311SOL    HW291512   9.171   0.850   7.763 -0.1302  0.4034 -1.6547
30312SOL     OW91513   8.711   8.446   8.911 -0.4152  0.6344  0.3932
30312SOL    HW191514   8.801   8.450   8.878 -0.9409  0.0301 -1.1649
30312SOL    HW291515   8.720   8.409   8.999  1.0929  3.0783  1.4019
30313SOL     OW91516   2.209   1.368   3.975  0.7804  0.3480 -0.2498
30313SOL    HW191517   2.200   1.356   3.881  1.1341  2.7689 -0.6686
30313SOL    HW291518   2.136   1.425   3.999  0.0575 -1.0949  1.1790
30314SOL     OW91519   0.384   0.680   6.535 -0.1774 -0.3910 -0.4038
30314SOL    HW191520   0.453   0.634   6.583 -1.5829 -1.0418  1.0571
30314SOL    HW291521   0.371   0.761   6.583  0.1266  0.1375 -1.1832
30315SOL     OW91522   4.120   3.824   3.817  0.3833  0.4121 -0.0646
30315SOL    HW191523   4.164   3.739   3.807  1.0980  0.7945 -0.2763
30315SOL    HW291524   4.180   3.886   3.776  0.5447  1.2185  1.3268
30316SOL     OW91525   2.479   3.044   7.172  0.7391  0.1122  0.1219
30316SOL    HW191526   2.464   2.950   7.163 -0.6907  0.1921  1.2598
30316SOL    HW291527   2.570   3.057   7.146  0.8351 -1.5132 -0.4565
30317SOL     OW91528   2.331   6.633   0.204 -0.5690  0.2515 -0.0085
30317SOL    HW191529   2.332   6.718   0.160 -0.4849 -0.8980 -2.3623
30317SOL    HW291530   2.299   6.571   0.138  1.7197 -1.9750  0.7780
30318SOL     OW91531   1.859   9.474   2.570 -0.3008  0.4231 -0.0624
30318SOL    HW191532   1.767   9.481   2.545 -0.1112 -0.0165 -0.9308
30318SOL    HW291533   1.864   9.517   2.655 -1.4963 -0.3908  0.4482
30319SOL     OW91534   5.597   8.801   6.548 -0.2636  0.3988 -0.5440
30319SOL    HW191535   5.687   8.796   6.580  0.2360  0.8937 -1.8222
30319SOL    HW291536   5.550   8.847   6.617  0.5304  0.4356 -0.0107
30320SOL     OW91537   7.260   6.877   5.150 -0.3840  0.2922 -0.1008
30320SOL    HW191538   7.291   6.867   5.239  1.1958 -1.0809 -0.7619
30320SOL    HW291539   7.211   6.960   5.151  1.7901  1.6778  1.4457
30321SOL     OW91540   7.497   6.172   3.101  0.1470 -0.2849 -0.5496
30321SOL    HW191541   7.571   6.196   3.158  1.0445 -0.7011 -1.5053
30321SOL    HW291542   7.473   6.253   3.057  0.6905 -0.3332 -0.9544
30322SOL     OW91543   7.220   4.184   9.115  0.2303  0.0230 -0.2011
30322SOL    HW191544   7.171   4.105   9.092  0.3338  0.1215 -0.7540
30322SOL    HW291545   7.195   4.201   9.206  0.0598 -0.5352 -0.1394
30323SOL     OW91546   4.285   8.807   6.907 -0.5192 -0.2734 -0.3967
30323SOL    HW191547   4.238   8.726   6.925 -0.1914 -0.1396  1.2895
30323SOL    HW291548   4.241   8.872   6.963  1.2803 -0.0367  0.8337
30324SOL     OW91549   0.392   5.077   8.778 -0.0183 -0.0968  0.4959
30324SOL    HW191550   0.388   5.045   8.688 -0.5124  1.4138 -0.0538
30324SOL    HW291551   0.462   5.026   8.819 -0.1377 -1.1638 -0.5848
30325SOL     OW91552   2.821   2.406   0.982  0.3939  0.0959 -0.0183
30325SOL    HW191553   2.744   2.363   0.945  0.4696 -0.7815  0.8161
30325SOL    HW291554   2.804   2.499   0.971 -0.9557 -0.0758  0.5051
30326SOL     OW91555   3.144   9.493   5.836 -0.3294 -0.5027  0.7074
30326SOL    HW191556   3.214   9.549   5.869  0.0270  0.3442 -1.3119
30326SOL    HW291557   3.064   9.535   5.866 -0.0245 -0.1660  1.0698
30327SOL     OW91558   5.244   4.609   9.350 -0.0570  0.3822 -0.2480
30327SOL    HW191559   5.312   4.558   9.394  1.2637  1.6233 -0.7860
30327SOL    HW291560   5.174   4.616   9.415  2.2066  2.9582  2.1619
30328SOL     OW91561   0.800   2.798   2.231  0.1446  0.5391  0.2713
30328SOL    HW191562   0.744   2.847   2.171  1.0299  2.4679  0.9488
30328SOL    HW291563   0.849   2.865   2.280 -0.6223 -0.8943  3.2662
30329SOL     OW91564   4.508   4.430   4.987  0.4777  0.5885 -0.6921
30329SOL    HW191565   4.442   4.485   5.031 -0.4949 -0.4033 -0.8563
30329SOL    HW291566   4.464   4.400   4.908  0.7912 -0.8263 -0.3557
30330SOL     OW91567   9.767   0.800   2.591  0.2518 -0.3776 -0.2221
30330SOL    HW191568   9.778   0.713   2.552  0.8105 -0.7302  0.6888
30330SOL    HW291569   9.765   0.784   2.686  0.0485  0.5714 -0.0552
30331SOL     OW91570   6.804   4.114   0.148  0.1516 -0.3411 -0.2454
30331SOL    HW191571   6.820   4.183   0.084 -2.2575  0.3896 -0.1387
30331SOL    HW291572   6.815   4.158   0.233 -0.9885 -0.1754 -0.1778
30332SOL     OW91573   7.790   0.551   4.375  0.1428 -0.3385 -0.1559
30332SOL    HW191574   7.731   0.577   4.446 -0.4686 -4.3571  1.0655
30332SOL    HW291575   7.742   0.572   4.295 -0.1294  2.2042  0.5852
30333SOL     OW91576   3.947   1.735   5.549  0.1909 -0.3024  0.2202
30333SOL    HW191577   3.934   1.693   5.464  0.8394 -0.0760  0.0021
30333SOL    HW291578   3.872   1.795   5.557  1.6031  1.8946 -1.5792
30334SOL     OW91579   9.059   2.841   7.391  0.6172 -0.6611 -0.3924
30334SOL    HW191580   9.079   2.809   7.303  1.6148 -1.5425  0.1330
30334SOL    HW291581   9.124   2.910   7.407 -0.9866  1.1351 -1.1868
30335SOL     OW91582   1.511   5.241   9.917  0.4257  0.5629  0.3728
30335SOL    HW191583   1.578   5.211   9.979 -0.3176 -0.3235  0.7663
30335SOL    HW291584   1.441   5.177   9.925  0.5475  0.1119 -1.8202
30336SOL     OW91585   6.179   0.694   7.887 -0.0246  0.3587  0.7996
30336SOL    HW191586   6.110   0.750   7.853  0.1061  0.5825  0.9005
30336SOL    HW291587   6.133   0.617   7.922 -0.0454 -0.9163 -1.8064
30337SOL     OW91588   8.540   8.963   7.609 -0.4170 -0.3652  0.0756
30337SOL    HW191589   8.570   9.046   7.572  0.3252  0.0203  1.4514
30337SOL    HW291590   8.465   8.939   7.556  0.9365 -0.1737 -2.0295
30338SOL     OW91591   4.755   6.628   1.143  0.8524 -0.1397 -0.0784
30338SOL    HW191592   4.807   6.555   1.177  0.1332 -1.0727 -0.8880
30338SOL    HW291593   4.776   6.631   1.049 -0.2356 -0.3013 -0.3463
30339SOL     OW91594   8.058   7.884   4.361  0.0746  0.5161 -0.2973
30339SOL    HW191595   8.125   7.893   4.428  0.6416 -0.0183 -0.7728
30339SOL    HW291596   8.060   7.967   4.313 -1.1210  1.3511  1.0197
30340SOL     OW91597   3.203   5.889   5.494  0.2201  0.1801  0.4890
30340SOL    HW191598   3.146   5.814   5.512 -1.5620  1.4735  0.5070
30340SOL    HW291599   3.175   5.955   5.558  2.7561  0.4023  1.4754
30341SOL     OW91600   6.862   4.033   4.303  0.3172  0.6050 -0.4592
30341SOL    HW191601   6.841   4.126   4.301 -0.3771  0.5062 -3.7663
30341SOL    HW291602   6.794   3.992   4.250  1.0019 -1.7241  0.3415
30342SOL     OW91603   1.094   7.688   5.811 -0.1344  0.5286  0.6573
30342SOL    HW191604   1.088   7.608   5.759  0.7469 -0.2509  1.7091
30342SOL    HW291605   1.050   7.667   5.893 -1.0531  1.5755  0.4574
30343SOL     OW91606   8.571   2.933   2.361 -0.5701  0.1408  0.3940
30343SOL    HW191607   8.564   2.986   2.440 -1.1369 -1.3600  1.3879
30343SOL    HW291608   8.542   2.991   2.290 -1.5796  1.0191  1.4863
30344SOL     OW91609   4.053   9.338   3.674 -0.9362  0.0382  0.3735
30344SOL    HW191610   4.139   9.326   3.713 -0.5407  1.2598 -0.0878
30344SOL    HW291611   4.045   9.433   3.660 -1.3452 -0.2707 -1.8521
30345SOL     OW91612   1.911   4.981   2.033  0.0709  0.0002 -0.0088
30345SOL    HW191613   1.908   5.055   1.971  0.3576 -0.2379 -0.3112
30345SOL    HW291614   1.899   4.904   1.978  1.8276 -0.3295  0.0148
30346SOL     OW91615   6.396   2.765   8.614  0.2039 -0.7823  0.0476
30346SOL    HW191616   6.488   2.757   8.639  0.1258 -1.5207  0.0994
30346SOL    HW291617   6.350   2.703   8.670 -0.5124  0.5190  0.9754
30347SOL     OW91618   0.627   6.248   5.985  0.0502 -0.3276 -0.3783
30347SOL    HW191619   0.717   6.229   5.961  0.3508  0.6770 -0.0829
30347SOL    HW291620   0.589   6.162   6.004  0.3256 -0.9824 -2.5205
30348SOL     OW91621   3.149   7.289   2.812 -0.6728 -0.1833 -0.7540
30348SOL    HW191622   3.208   7.355   2.776 -0.6859 -0.6995 -1.7429
30348SOL    HW291623   3.207   7.221   2.845 -0.6866 -0.1428 -0.6446
30349SOL     OW91624   2.578   5.749   6.791 -0.5992  0.0881 -0.5406
30349SOL    HW191625   2.548   5.726   6.703 -0.6393  1.9280 -1.0550
30349SOL    HW291626   2.607   5.666   6.829 -2.9206 -1.1895 -1.3391
30350SOL     OW91627   1.111   7.928   2.152  0.1893  0.0432 -0.1301
30350SOL    HW191628   1.041   7.981   2.190 -0.3760  0.3654 -1.5362
30350SOL    HW291629   1.140   7.977   2.075 -0.6036 -1.7892 -1.6996
30351SOL     OW91630   9.614   4.210   0.559 -0.0989  0.4855  0.0630
30351SOL    HW191631   9.631   4.277   0.492 -0.4370  0.0931 -0.4242
30351SOL    HW291632   9.619   4.257   0.642  3.9875  0.3402  0.0887
30352SOL     OW91633   0.076   3.943   0.233  0.0715  0.1140 -0.1798
30352SOL    HW191634   0.168   3.969   0.228 -0.1178  0.8622  0.0429
30352SOL    HW291635   0.029   4.007   0.179 -0.3573 -0.0300  0.0127
30353SOL     OW91636   5.830   6.728   5.335 -0.2574  0.3754  0.9703
30353SOL    HW191637   5.846   6.653   5.392 -2.3956 -0.4177  0.6297
30353SOL    HW291638   5.873   6.706   5.252 -2.0811 -1.2446  0.3679
30354SOL     OW91639   3.929   2.710   4.959 -0.0521 -0.1257 -0.5616
30354SOL    HW191640   3.944   2.749   4.873  0.3760  0.2034 -0.3457
30354SOL    HW291641   3.838   2.680   4.957 -0.7577  1.8494 -0.3668
30355SOL     OW91642   3.221   1.828   5.107  0.6421 -0.1400 -0.0508
30355SOL    HW191643   3.130   1.842   5.135  0.6151  2.4493 -1.0824
30355SOL    HW291644   3.253   1.758   5.163 -0.3263  2.4872  4.3322
30356SOL     OW91645   8.924   5.774   0.597  0.3633  0.5571  0.1456
30356SOL    HW191646   8.981   5.838   0.555  0.7859  1.6645  2.2746
30356SOL    HW291647   8.974   5.692   0.596  0.2520  0.4744 -1.6380
30357SOL     OW91648   5.862   5.901   1.226  0.3711 -0.0785 -0.7193
30357SOL    HW191649   5.801   5.882   1.297  0.4718 -1.4005 -0.9501
30357SOL    HW291650   5.817   5.871   1.147  0.7562  0.2258 -1.0559
30358SOL     OW91651   8.685   0.756   5.059  0.1255 -0.5307  0.4398
30358SOL    HW191652   8.682   0.749   4.964  0.4311 -0.9382  0.4553
30358SOL    HW291653   8.630   0.684   5.090 -2.0145  1.0660  0.5640
30359SOL     OW91654   7.593   3.064   6.351 -0.4537 -0.2223 -0.5550
30359SOL    HW191655   7.627   3.024   6.270  1.1111 -2.0192  0.8783
30359SOL    HW291656   7.655   3.134   6.371 -0.3097 -0.3743 -0.4595
30360SOL     OW91657   7.029   2.829   6.010 -0.3009 -0.3127  0.2453
30360SOL    HW191658   7.038   2.871   6.096 -0.7495 -1.7445  1.0221
30360SOL    HW291659   6.941   2.852   5.981 -0.2560 -0.0690  0.2989
30361SOL     OW91660   3.433   6.212   5.699 -0.0257  0.3839  0.0817
30361SOL    HW191661   3.410   6.159   5.776 -0.9586  2.0519  1.0063
30361SOL    HW291662   3.528   6.215   5.700  0.0135 -0.5016  0.5352
30362SOL     OW91663   1.642   5.434   0.759 -0.6431 -0.5543 -0.2074
30362SOL    HW191664   1.657   5.380   0.681 -0.5135 -0.9997  0.1182
30362SOL    HW291665   1.551   5.462   0.752 -0.7022 -0.7902 -0.3999
30363SOL     OW91666   3.570   9.396   2.315 -0.1564  0.3756 -0.3946
30363SOL    HW191667   3.581   9.343   2.394  0.5295  0.2307 -0.5775
30363SOL    HW291668   3.625   9.353   2.250  1.0212  1.7062 -0.3487
30364SOL     OW91669   0.509   1.027   6.110 -0.3876  0.5089 -0.2141
30364SOL    HW191670   0.556   1.074   6.041 -0.6294  1.3799  0.2040
30364SOL    HW291671   0.576   0.976   6.155 -0.1536  0.2925 -0.7940
30365SOL     OW91672   0.470   0.313   6.924 -0.1508 -0.0317 -0.2225
30365SOL    HW191673   0.532   0.297   6.995 -1.8945  0.7440  1.5658
30365SOL    HW291674   0.418   0.233   6.920 -0.8042  0.3725  0.1626
30366SOL     OW91675   9.147   4.616   8.220  0.3206  0.7073  0.1537
30366SOL    HW191676   9.235   4.652   8.208  0.8871 -0.5075  0.4619
30366SOL    HW291677   9.116   4.654   8.302  2.0456 -1.5874  1.9858
30367SOL     OW91678   8.030   7.231   0.820  0.1992  0.6832  0.4682
30367SOL    HW191679   8.116   7.194   0.801 -0.0632  0.5648 -0.5126
30367SOL    HW291680   8.007   7.193   0.905 -0.1261 -1.6136 -0.5530
30368SOL     OW91681   1.269   1.026   6.088  0.0544 -0.1183  0.1716
30368SOL    HW191682   1.275   1.007   6.181 -1.6380  0.1609  0.3750
30368SOL    HW291683   1.336   1.092   6.072  2.1902 -2.0672  0.6030
30369SOL     OW91684   9.517   6.075   0.136  0.1765  0.6278 -0.1650
30369SOL    HW191685   9.518   6.157   0.185 -0.0133 -1.6178  4.0589
30369SOL    HW291686   9.598   6.030   0.162 -0.0163 -0.8395 -1.8436
30370SOL     OW91687   5.870   9.291   0.085 -0.2840  0.0354 -0.0232
30370SOL    HW191688   5.864   9.203   0.048  0.1066 -0.4649  1.0327
30370SOL    HW291689   5.823   9.347   0.024 -0.4603 -0.8933 -0.7611
30371SOL     OW91690   5.269   4.813   0.142  0.3604  0.1511  0.4589
30371SOL    HW191691   5.238   4.783   0.228  1.7163 -0.6928  0.6822
30371SOL    HW291692   5.328   4.744   0.112  1.4407  1.3476 -0.2728
30372SOL     OW91693   3.522   1.275   4.689 -0.4813 -0.2239 -0.3229
30372SOL    HW191694   3.517   1.357   4.639  2.0327  0.0861 -0.1936
30372SOL    HW291695   3.475   1.294   4.771  0.1333  1.1287 -0.2564
30373SOL     OW91696   8.033   6.115   3.118  0.3774 -0.4872  0.1164
30373SOL    HW191697   7.985   6.049   3.168  0.8372 -0.4211  0.6493
30373SOL    HW291698   8.063   6.178   3.183 -0.0319  0.2439 -0.3851
30374SOL     OW91699   2.631   1.257   1.828  0.4997  0.1524  0.4714
30374SOL    HW191700   2.699   1.190   1.830 -1.7271 -2.2748  2.3834
30374SOL    HW291701   2.629   1.293   1.917 -0.9455 -0.1308  0.5806
30375SOL     OW91702   4.286   2.531   9.592 -0.0548 -0.2678 -0.4841
30375SOL    HW191703   4.228   2.513   9.667 -0.7089  1.4200 -0.5613
30375SOL    HW291704   4.374   2.516   9.627 -0.3930 -0.2653  0.4018
30376SOL     OW91705   4.179   0.657   6.677  0.3284 -0.2400 -0.0389
30376SOL    HW191706   4.264   0.614   6.680  0.2269 -0.6480 -1.8510
30376SOL    HW291707   4.159   0.665   6.583 -0.8071  1.4728  0.2902
30377SOL     OW91708   7.735   0.162   1.343 -0.2636  0.6079  0.1319
30377SOL    HW191709   7.812   0.131   1.294  0.5390 -0.6445  2.0791
30377SOL    HW291710   7.762   0.247   1.377  2.0478 -1.3913  4.1451
30378SOL     OW91711   4.355   7.128   6.580  0.2105  0.1244  0.2385
30378SOL    HW191712   4.385   7.199   6.637  0.8817 -0.1543  0.2533
30378SOL    HW291713   4.399   7.050   6.616  0.8609 -0.0097 -0.8245
30379SOL     OW91714   4.274   1.075   0.155 -0.0749  0.0594 -0.0505
30379SOL    HW191715   4.223   1.047   0.231 -0.4379  1.7231  0.3558
30379SOL    HW291716   4.210   1.081   0.084 -0.2684  1.1437  0.2033
30380SOL     OW91717   8.551   0.374   8.201  0.1014 -0.1113  0.0491
30380SOL    HW191718   8.581   0.436   8.135 -3.2811  2.1301  0.3206
30380SOL    HW291719   8.551   0.289   8.157  2.6685  0.4174 -1.1138
30381SOL     OW91720   9.973   8.149   4.955 -1.0294  0.2377 -0.4105
30381SOL    HW191721   9.906   8.209   4.922 -1.0235  0.5500  0.1316
30381SOL    HW291722   9.925   8.083   5.004 -0.9064  0.8362  0.5491
30382SOL     OW91723   1.849   8.097   5.879 -0.4261 -0.3364  0.0375
30382SOL    HW191724   1.851   8.144   5.963 -0.7465  0.9919 -0.6588
30382SOL    HW291725   1.816   8.162   5.817  0.8032 -0.9606 -1.3243
30383SOL     OW91726   4.734   1.669   8.723 -0.9085 -0.1408  0.1618
30383SOL    HW191727   4.651   1.707   8.694 -1.0150  0.0890  0.7546
30383SOL    HW291728   4.709   1.588   8.767 -0.6989 -0.8079 -0.8998
30384SOL     OW91729   9.553   9.883   2.294 -0.0807  0.0999  0.3112
30384SOL    HW191730   9.514   9.939   2.227 -0.8837 -1.1707 -0.3296
30384SOL    HW291731   9.483   9.870   2.358 -1.4566 -3.5217 -1.6581
30385SOL     OW91732   2.150   8.020   3.833 -0.4046  0.1145 -0.5818
30385SOL    HW191733   2.184   7.956   3.770  0.5190 -0.1163  0.1262
30385SOL    HW291734   2.162   7.978   3.918 -1.2858  0.5779 -0.2200
30386SOL     OW91735   4.759   3.227   9.247 -0.4060 -0.0392  0.0619
30386SOL    HW191736   4.840   3.270   9.218 -0.0200 -1.0674 -0.4509
30386SOL    HW291737   4.735   3.171   9.174 -1.9325  0.6948 -0.0298
30387SOL     OW91738   4.000   1.212   3.251 -0.4674 -0.0022  0.2461
30387SOL    HW191739   3.970   1.271   3.182 -2.7974 -0.8345  0.4526
30387SOL    HW291740   3.997   1.125   3.211  1.5821 -0.1677  0.3650
30388SOL     OW91741   0.419   1.294   9.349 -0.6921  0.1204  0.7940
30388SOL    HW191742   0.382   1.333   9.429  0.3043  1.0436  0.8172
30388SOL    HW291743   0.495   1.347   9.329 -1.0743  0.0628 -0.9436
30389SOL     OW91744   2.066   2.215   8.441 -0.5346  0.3972 -0.5508
30389SOL    HW191745   2.141   2.275   8.445 -0.0546 -0.2045 -0.5050
30389SOL    HW291746   2.037   2.206   8.531  0.6793 -1.0387 -0.2629
30390SOL     OW91747   9.719   0.057   4.428  0.0727  0.3325 -0.2103
30390SOL    HW191748   9.764  -0.026   4.413 -1.8024 -0.7216 -0.3212
30390SOL    HW291749   9.647   0.035   4.488 -0.7985  1.7586 -0.6769
30391SOL     OW91750   9.858   8.968   0.582 -0.3519 -0.7972  0.5179
30391SOL    HW191751   9.879   8.874   0.584 -0.2641 -0.8274 -1.0930
30391SOL    HW291752   9.781   8.974   0.526 -1.1250 -0.0112  1.6030
30392SOL     OW91753   3.409   9.009   9.613 -0.3925 -0.2088 -0.1553
30392SOL    HW191754   3.489   8.983   9.567 -0.5808  0.1801 -0.7302
30392SOL    HW291755   3.436   9.082   9.669 -0.3145 -0.1729 -0.2402
30393SOL     OW91756   8.486   1.675   0.237  0.0201  0.5572 -0.1296
30393SOL    HW191757   8.415   1.612   0.235 -0.2706  0.8866 -0.1677
30393SOL    HW291758   8.556   1.630   0.285 -0.5263  0.5621  0.6819
30394SOL     OW91759   7.900   1.923   3.618  0.1729 -0.2884  0.1902
30394SOL    HW191760   7.807   1.924   3.641 -0.0754  1.1901 -0.7091
30394SOL    HW291761   7.906   1.862   3.544 -0.4006  0.7953 -0.7907
30395SOL     OW91762   8.107   8.488   2.221 -0.4003  0.7409  0.0063
30395SOL    HW191763   8.143   8.512   2.135 -2.1799  0.1422 -0.9672
30395SOL    HW291764   8.096   8.393   2.216 -1.7530  0.8618  0.3633
30396SOL     OW91765   0.311   5.083   9.388 -0.4012 -0.5658  0.2827
30396SOL    HW191766   0.223   5.099   9.421  0.1831  1.2788  1.0746
30396SOL    HW291767   0.363   5.066   9.466  0.2647  0.0534 -0.0138
30397SOL     OW91768   3.650   9.081   5.464 -0.3526  0.2109  0.0935
30397SOL    HW191769   3.701   9.097   5.543 -0.4112 -0.4496  0.2697
30397SOL    HW291770   3.596   9.005   5.485 -0.6974  0.3034 -0.4287
30398SOL     OW91771   3.736   9.854   6.387  0.0023 -0.2285  0.4926
30398SOL    HW191772   3.725   9.916   6.315 -0.8896  2.4295  2.7324
30398SOL    HW291773   3.825   9.867   6.419  0.5654 -1.7435 -0.3390
30399SOL     OW91774   3.763   3.702   0.915 -0.4176  0.6550  0.3140
30399SOL    HW191775   3.692   3.745   0.961  1.2226  0.9832  2.7568
30399SOL    HW291776   3.756   3.610   0.940  0.2746  0.7747  0.9966
30400SOL     OW91777   5.830   2.788   2.903  0.0002 -0.0539  0.1747
30400SOL    HW191778   5.817   2.751   2.990  1.7160 -0.7378  0.1751
30400SOL    HW291779   5.795   2.721   2.844  0.4540 -0.3930  0.2850
30401SOL     OW91780   5.618   0.746   7.544 -0.2556 -0.1816 -0.0824
30401SOL    HW191781   5.524   0.728   7.540 -0.3047 -0.9298  2.4292
30401SOL    HW291782   5.625   0.841   7.544 -1.2772 -0.0397  2.1325
30402SOL     OW91783   4.395   1.160   1.344 -0.4320  0.0454 -0.1388
30402SOL    HW191784   4.383   1.217   1.268 -2.7149 -1.7975 -1.2986
30402SOL    HW291785   4.345   1.201   1.414 -0.9090  0.1962 -0.5644
30403SOL     OW91786   7.876   6.231   8.233  0.1878 -0.4608  0.0894
30403SOL    HW191787   7.879   6.282   8.314 -0.7479 -0.2405  0.0063
30403SOL    HW291788   7.951   6.261   8.182 -0.7572  1.4688 -0.2972
30404SOL     OW91789   4.179   6.091   1.866  0.1303  0.7645 -0.8911
30404SOL    HW191790   4.139   6.178   1.859  1.2579  1.2847 -1.1487
30404SOL    HW291791   4.121   6.034   1.815  0.2719  1.7023 -2.1609
30405SOL     OW91792   1.363   4.290   7.342 -0.2823  0.3521  0.3588
30405SOL    HW191793   1.394   4.223   7.282  1.3480  1.8928 -0.6275
30405SOL    HW291794   1.437   4.307   7.400 -0.9058  0.8162  1.0414
30406SOL     OW91795   5.963   6.088   1.694 -0.2338  0.5088  0.2163
30406SOL    HW191796   5.962   6.094   1.599 -0.8212  1.2195  0.2633
30406SOL    HW291797   5.888   6.033   1.716  0.8673 -1.0594  0.1934
30407SOL     OW91798   9.518   3.184   3.627  0.5449  0.2290 -0.3808
30407SOL    HW191799   9.457   3.236   3.679  2.7163  1.2780  1.2899
30407SOL    HW291800   9.553   3.120   3.690  2.1060  0.5220 -0.9047
30408SOL     OW91801   2.176   3.348   9.071  0.2037  0.5234  0.3022
30408SOL    HW191802   2.250   3.287   9.060  0.0861  0.1341  1.5555
30408SOL    HW291803   2.135   3.350   8.985  0.8483 -0.3463 -0.0502
30409SOL     OW91804   2.169   8.655   1.326  0.3042 -0.2433  0.5533
30409SOL    HW191805   2.197   8.744   1.348  1.8631  0.1992 -2.6250
30409SOL    HW291806   2.235   8.598   1.365  1.7732  0.3399 -0.9873
30410SOL     OW91807   8.743   4.246   3.128  0.1638 -0.2831 -0.1494
30410SOL    HW191808   8.838   4.255   3.135  0.1843 -0.4659 -0.1981
30410SOL    HW291809   8.725   4.158   3.160 -0.2255  0.5595  2.2208
30411SOL     OW91810   2.038   0.434   8.699 -0.0526 -0.0105 -0.3755
30411SOL    HW191811   2.013   0.521   8.668  2.4706  0.4444 -1.3155
30411SOL    HW291812   2.111   0.449   8.758  0.3662 -1.4936 -0.4767
30412SOL     OW91813   9.397   1.232   5.170 -0.0470  0.1160 -0.5309
30412SOL    HW191814   9.439   1.311   5.134 -1.1009 -0.0921 -2.3262
30412SOL    HW291815   9.317   1.264   5.211  0.9650  0.3016  1.4440
30413SOL     OW91816   4.538   9.830   7.793 -0.8495 -0.0133  0.3509
30413SOL    HW191817   4.477   9.852   7.723 -0.2065  0.8058  0.0306
30413SOL    HW291818   4.483   9.823   7.871 -1.4268  0.1367 -0.0369
30414SOL     OW91819   2.555   3.332   0.175  0.5000 -0.1988  0.4425
30414SOL    HW191820   2.487   3.309   0.112  0.6345  1.8525 -0.5515
30414SOL    HW291821   2.508   3.376   0.246  0.6270 -0.1593  0.5031
30415SOL     OW91822   4.648   9.908   6.444  0.0133 -0.1008  0.5908
30415SOL    HW191823   4.649   9.859   6.527  2.1346 -0.2388  0.5347
30415SOL    HW291824   4.705   9.858   6.386 -0.0957  0.9169 -0.4206
30416SOL     OW91825   8.068   9.632   3.036 -0.6174  0.2206 -0.1050
30416SOL    HW191826   8.114   9.605   2.956 -0.4003  1.3895 -0.4015
30416SOL    HW291827   8.138   9.640   3.101 -0.2062  2.7612 -0.7564
30417SOL     OW91828   9.827   3.655   0.552  0.1763  0.5640 -0.1923
30417SOL    HW191829   9.842   3.599   0.476 -1.4909  0.7889 -0.7123
30417SOL    HW291830   9.860   3.741   0.526  1.2905  0.2283  0.0372
30418SOL     OW91831   0.279   2.705   9.662  0.0266  0.1808  0.4486
30418SOL    HW191832   0.338   2.641   9.621  1.6285  2.3691 -0.8893
30418SOL    HW291833   0.195   2.692   9.617  0.1907 -1.2437  0.5156
30419SOL     OW91834   9.666   8.536   6.041 -0.3772 -0.0836 -0.4086
30419SOL    HW191835   9.586   8.511   5.996 -0.4062 -0.5219 -0.1096
30419SOL    HW291836   9.658   8.631   6.054 -1.8407 -0.4215  1.5568
30420SOL     OW91837   5.963   3.636   8.488 -0.3401  0.1067  0.2798
30420SOL    HW191838   5.930   3.567   8.429 -1.4840 -0.0690  1.0862
30420SOL    HW291839   6.055   3.614   8.502 -0.7572 -1.4379  0.7554
30421SOL     OW91840   7.223   6.278   2.701 -0.1810  0.0375 -0.1443
30421SOL    HW191841   7.295   6.337   2.677 -0.5592  1.1429  1.2958
30421SOL    HW291842   7.147   6.313   2.655  0.2264 -1.4698 -2.1380
30422SOL     OW91843   8.216   0.147   5.227  0.1124 -0.6492 -0.2596
30422SOL    HW191844   8.142   0.196   5.261  1.0472  0.3361  0.4255
30422SOL    HW291845   8.284   0.157   5.293  1.5025  0.1276 -1.7175
30423SOL     OW91846   8.792   6.936   2.179  0.1142 -0.2525  0.4801
30423SOL    HW191847   8.778   7.030   2.189  0.7006 -0.2007  0.8477
30423SOL    HW291848   8.704   6.898   2.184 -0.1060  0.2619  0.4957
30424SOL     OW91849   2.712   4.890   0.803 -0.8043  0.0937 -0.6060
30424SOL    HW191850   2.747   4.818   0.750  0.2430  0.3946 -0.3421
30424SOL    HW291851   2.650   4.847   0.862 -0.2113 -0.5952 -0.4640
30425SOL     OW91852   7.507   3.691   8.408  0.3267  0.5959  0.4100
30425SOL    HW191853   7.451   3.650   8.341 -0.5699  3.5154 -0.7984
30425SOL    HW291854   7.596   3.684   8.372  0.3068 -0.8411  0.5865
30426SOL     OW91855   9.496   7.645   5.074 -0.3349 -0.5259  0.0416
30426SOL    HW191856   9.573   7.702   5.071 -0.7004  0.3616  3.5450
30426SOL    HW291857   9.422   7.703   5.054 -0.4318 -0.4636  0.5709
30427SOL     OW91858   2.242   4.215   1.768 -0.5390  0.4734 -0.1608
30427SOL    HW191859   2.169   4.237   1.827 -0.3640  0.9542 -0.1172
30427SOL    HW291860   2.246   4.120   1.769 -0.8912  0.4597  0.1762
30428SOL     OW91861   3.716   6.869   5.634 -0.1569 -0.1662  0.2704
30428SOL    HW191862   3.634   6.870   5.584 -0.1207 -1.4041  0.1490
30428SOL    HW291863   3.701   6.806   5.704  0.4841  0.0521  0.6132
30429SOL     OW91864   6.837   6.095   8.919 -0.3365  0.1577 -0.4458
30429SOL    HW191865   6.811   6.169   8.973  0.4465  0.5724 -0.6199
30429SOL    HW291866   6.916   6.061   8.962 -2.0769 -2.2087  1.1289
30430SOL     OW91867   1.322   1.985   8.321  0.8210 -0.2754  0.3639
30430SOL    HW191868   1.267   1.908   8.309  0.8351  0.1371 -3.2968
30430SOL    HW291869   1.277   2.055   8.274  2.4318  1.1248  0.7852
30431SOL     OW91870   5.125   6.256   7.829 -0.2482 -0.8831 -0.2806
30431SOL    HW191871   5.098   6.335   7.877  2.6626  0.0048  0.0837
30431SOL    HW291872   5.065   6.188   7.860  0.2627  0.0656  3.2944
30432SOL     OW91873   9.633   0.260   1.573  0.2473  0.3645  0.3230
30432SOL    HW191874   9.646   0.209   1.493  0.5311 -1.1160  1.2809
30432SOL    HW291875   9.588   0.201   1.633  0.3788  1.3202  1.4043
30433SOL     OW91876   0.506   2.417   8.127  0.1279 -0.2386  0.1371
30433SOL    HW191877   0.490   2.329   8.161 -0.3342 -0.6859 -1.1830
30433SOL    HW291878   0.445   2.473   8.175  2.1736 -0.1701  2.8335
30434SOL     OW91879   4.557   4.244   6.655 -0.1327 -0.4204 -0.2095
30434SOL    HW191880   4.576   4.287   6.571  2.6130  1.0641  1.0068
30434SOL    HW291881   4.610   4.165   6.653 -1.9024 -1.6479 -0.7388
30435SOL     OW91882   6.246   2.762   1.279 -0.0681  0.2907 -0.0651
30435SOL    HW191883   6.305   2.743   1.352 -0.9483  0.3260  0.6696
30435SOL    HW291884   6.300   2.809   1.216  0.6643  0.3941  0.6327
30436SOL     OW91885   3.774   8.689   7.990 -0.2479  0.2728 -0.0336
30436SOL    HW191886   3.710   8.757   8.011  0.7609  1.1643  0.1964
30436SOL    HW291887   3.779   8.636   8.070 -1.2105 -0.2494 -0.2944
30437SOL     OW91888   5.609   3.241   5.092 -0.0384 -0.7162 -0.3092
30437SOL    HW191889   5.579   3.166   5.144  0.4462 -0.7097 -0.0143
30437SOL    HW291890   5.701   3.252   5.116  0.1709 -0.6639 -1.1218
30438SOL     OW91891   3.284   4.673   0.522 -0.2357 -0.1614  0.2457
30438SOL    HW191892   3.368   4.673   0.568 -0.0914 -1.1240 -0.0112
30438SOL    HW291893   3.254   4.764   0.528  0.3485 -0.0159  1.2044
30439SOL     OW91894   4.628   8.828   4.795  0.6668 -0.1381 -0.4774
30439SOL    HW191895   4.612   8.906   4.742  0.6352 -0.6558 -1.2370
30439SOL    HW291896   4.693   8.856   4.860  0.2671  0.6582 -0.4105
30440SOL     OW91897   2.624   7.161   9.171 -0.0640 -0.1112  0.4548
30440SOL    HW191898   2.624   7.066   9.158 -1.2476 -0.0132 -0.4109
30440SOL    HW291899   2.696   7.193   9.117 -0.8167 -0.3503 -0.7160
30441SOL     OW91900   7.416   7.512   9.207 -1.2081 -0.0020 -0.7668
30441SOL    HW191901   7.324   7.525   9.229 -1.1618 -2.0681  1.0123
30441SOL    HW291902   7.416   7.442   9.141 -0.9425  0.3680 -1.1604
30442SOL     OW91903   0.471   8.983   2.927  0.4181  0.9901  0.2204
30442SOL    HW191904   0.380   9.001   2.949  1.1266  3.8344  1.1887
30442SOL    HW291905   0.469   8.958   2.835 -1.5078 -1.1906  0.7465
30443SOL     OW91906   1.262   2.996   5.515  0.0754  0.1865  0.0929
30443SOL    HW191907   1.244   2.927   5.578 -0.2871  0.2588  0.0697
30443SOL    HW291908   1.179   3.043   5.505  0.4115  0.8538  0.3794
30444SOL     OW91909   9.857   1.674   6.230 -0.0088 -0.0688 -0.4092
30444SOL    HW191910   9.847   1.633   6.316 -0.8316  1.8395  0.4555
30444SOL    HW291911   9.928   1.737   6.242 -0.9427  1.0787 -0.7486
30445SOL     OW91912   2.316   9.186   5.112  0.1340  0.4062 -0.0190
30445SOL    HW191913   2.349   9.156   5.196  1.3074  0.0412 -0.5816
30445SOL    HW291914   2.364   9.267   5.094 -0.8247  1.0212  0.0996
30446SOL     OW91915   1.315   2.223   3.877 -0.0137  0.1478 -0.2272
30446SOL    HW191916   1.334   2.312   3.848  1.3539  1.3691  3.7982
30446SOL    HW291917   1.238   2.232   3.933 -0.8784 -1.5640 -1.0714
30447SOL     OW91918   3.610   5.080   3.195 -0.2826  0.0784  0.6761
30447SOL    HW191919   3.634   5.060   3.285  0.0393  1.5337  0.9383
30447SOL    HW291920   3.671   5.148   3.167 -1.3541  0.7707 -0.1055
30448SOL     OW91921   2.693   9.348   9.361  0.1068 -0.1875  0.4392
30448SOL    HW191922   2.760   9.323   9.298  0.5285 -1.0294  1.1874
30448SOL    HW291923   2.717   9.437   9.388 -0.0030  0.1234 -0.4749
30449SOL     OW91924   1.098   7.405   3.703 -0.1234  0.3249  0.3044
30449SOL    HW191925   1.140   7.443   3.780  1.7974 -3.1652  1.1826
30449SOL    HW291926   1.167   7.405   3.636 -0.6707  0.1345 -0.2724
30450SOL     OW91927   9.706   7.428   4.273  0.6060 -0.1208  0.1289
30450SOL    HW191928   9.741   7.442   4.185 -0.8605 -1.0089 -0.6252
30450SOL    HW291929   9.737   7.341   4.298 -0.6608 -0.7281 -0.3648
30451SOL     OW91930   5.842   3.859   3.995 -0.0774  0.0181 -0.4214
30451SOL    HW191931   5.932   3.849   4.027  0.4291 -0.5314 -1.9298
30451SOL    HW291932   5.844   3.821   3.907 -1.4954  1.0954 -0.9503
30452SOL     OW91933   8.808   9.603   2.610 -0.1970  0.3193 -0.1221
30452SOL    HW191934   8.748   9.633   2.678  0.0278 -1.0117  0.7179
30452SOL    HW291935   8.882   9.567   2.658  0.2589 -0.0792 -1.0938
30453SOL     OW91936   5.984   7.537   2.405 -0.0658 -0.0614 -0.3666
30453SOL    HW191937   5.911   7.521   2.465 -0.8740 -1.4750 -1.6299
30453SOL    HW291938   6.046   7.589   2.455 -1.3441  0.0276  1.2007
30454SOL     OW91939   7.031   2.970   9.124 -0.4077 -0.3892  0.0930
30454SOL    HW191940   6.959   3.031   9.105 -0.3483 -1.2493 -3.6597
30454SOL    HW291941   7.100   2.995   9.063  0.4585 -2.8502 -0.0086
30455SOL     OW91942   7.764   7.547   9.815 -0.0336 -0.2994 -0.1857
30455SOL    HW191943   7.693   7.485   9.834 -1.7212  1.2554 -1.0994
30455SOL    HW291944   7.749   7.620   9.875 -0.4142  0.9121 -1.7008
30456SOL     OW91945   0.378   0.577   9.034  0.1016  0.8532  0.1335
30456SOL    HW191946   0.365   0.641   9.104  0.1295 -1.1195  2.0258
30456SOL    HW291947   0.452   0.524   9.063  0.5479  0.3738 -1.7289
30457SOL     OW91948   5.188   9.121   2.632  0.8641  0.4215  0.6948
30457SOL    HW191949   5.214   9.127   2.724  0.7877 -1.4164  0.8665
30457SOL    HW291950   5.223   9.037   2.602 -1.4682 -0.3422 -0.1513
30458SOL     OW91951   8.226   1.133   3.588 -0.3146 -0.1793 -0.4709
30458SOL    HW191952   8.216   1.060   3.526 -0.7232 -0.2466 -0.3306
30458SOL    HW291953   8.314   1.124   3.622 -1.2888 -2.3782  1.7610
30459SOL     OW91954   7.656   1.561   6.672  0.4395 -0.2418  0.4747
30459SOL    HW191955   7.745   1.565   6.636 -0.3960 -1.3320 -1.9184
30459SOL    HW291956   7.619   1.648   6.654  0.5454 -0.2710  0.1098
30460SOL     OW91957   8.586   8.546   6.657 -0.6690 -0.0991  0.0441
30460SOL    HW191958   8.620   8.474   6.603 -0.4108  0.3734 -0.4252
30460SOL    HW291959   8.661   8.574   6.709 -0.4810  0.5644 -0.5779
30461SOL     OW91960   0.972   2.265   6.524  0.0167  0.6309 -0.1929
30461SOL    HW191961   1.042   2.229   6.470 -0.8494  0.9905 -1.6297
30461SOL    HW291962   0.964   2.205   6.598  0.7094 -0.3310 -0.8813
30462SOL     OW91963   9.191   5.083   0.969 -0.0943 -0.1011  0.3280
30462SOL    HW191964   9.235   5.018   1.023  0.7442  1.3462  1.4787
30462SOL    HW291965   9.098   5.060   0.973  0.2128 -1.3869  0.4199
30463SOL     OW91966   1.539   4.731   8.358 -0.8671  0.5860 -0.2632
30463SOL    HW191967   1.517   4.704   8.269 -0.0104  1.1717 -0.6624
30463SOL    HW291968   1.605   4.799   8.348 -0.1116  0.0559  0.8389
30464SOL     OW91969   9.269   2.690   0.783 -0.1928 -1.1178 -0.0417
30464SOL    HW191970   9.234   2.771   0.745  1.4699 -0.0816  0.5194
30464SOL    HW291971   9.283   2.712   0.875  1.8267 -1.4892 -0.2223
30465SOL     OW91972   0.635   4.299   2.743 -0.6375  0.5616  0.1133
30465SOL    HW191973   0.629   4.236   2.815  2.3652  1.5025  1.3351
30465SOL    HW291974   0.703   4.264   2.686 -1.6360  0.8235 -1.3034
30466SOL     OW91975   1.687   7.327   0.858  0.1252 -0.3524  0.1076
30466SOL    HW191976   1.624   7.368   0.917  1.3102  0.5463  0.7886
30466SOL    HW291977   1.633   7.277   0.796 -1.4178  2.1190 -0.7075
30467SOL     OW91978   2.014   5.603   7.358  0.5642 -0.9212  0.1508
30467SOL    HW191979   1.920   5.620   7.361  0.9036  1.1338  1.8262
30467SOL    HW291980   2.022   5.515   7.322 -1.9844 -1.0921 -0.1530
30468SOL     OW91981   6.614   7.933   2.131 -0.0234 -0.2418  0.4929
30468SOL    HW191982   6.659   8.016   2.148 -0.4134  0.3379 -1.1549
30468SOL    HW291983   6.577   7.944   2.044 -0.2518 -2.0914  0.3347
30469SOL     OW91984   3.337   0.431   5.694 -0.3390 -0.7835  0.0731
30469SOL    HW191985   3.373   0.373   5.627 -0.7537 -0.2554 -0.6161
30469SOL    HW291986   3.322   0.374   5.769  1.2328 -1.1609  0.1306
30470SOL     OW91987   9.838   5.572   4.017  0.3335 -0.3798 -0.0809
30470SOL    HW191988   9.912   5.519   4.047  2.1280  0.5738 -2.5020
30470SOL    HW291989   9.859   5.661   4.047 -0.5571 -0.3151  0.3806
30471SOL     OW91990   0.521   6.003   6.964 -0.0805 -0.2174  0.1001
30471SOL    HW191991   0.567   5.998   7.048 -2.3578 -1.4688  1.3578
30471SOL    HW291992   0.439   6.049   6.983 -0.5445 -0.2960 -1.4975
30472SOL     OW91993   9.795   4.572   3.361 -0.0525  0.4119  0.3530
30472SOL    HW191994   9.829   4.494   3.405 -0.7328  0.2721  0.6420
30472SOL    HW291995   9.862   4.594   3.296 -0.8807 -1.7608 -1.3333
30473SOL     OW91996   9.162   9.127   1.811  0.0165  0.4110  0.3288
30473SOL    HW191997   9.138   9.198   1.870 -0.9519  1.5825 -1.3978
30473SOL    HW291998   9.083   9.110   1.760  0.5428 -1.2328 -0.0083
30474SOL     OW91999   5.759   0.029   9.751  0.0453  0.0481 -0.1969
30474SOL    HW192000   5.748  -0.065   9.768  3.5008 -0.7306 -1.3600
30474SOL    HW292001   5.745   0.038   9.657  1.9349  0.1622 -0.5206
30475SOL     OW92002   9.583   8.374   1.476  0.2609 -0.3707 -0.3870
30475SOL    HW192003   9.621   8.378   1.564  0.8580 -0.5380 -0.6288
30475SOL    HW292004   9.492   8.403   1.487  0.8346  1.4409 -0.0214
30476SOL     OW92005   3.390   9.703   8.149 -0.0384 -0.5346  0.3355
30476SOL    HW192006   3.354   9.739   8.068  0.2708 -0.2344  0.3302
30476SOL    HW292007   3.412   9.612   8.127 -0.2209 -0.5393  0.1659
30477SOL     OW92008   6.490   5.893   6.715 -0.3195 -0.1556  0.1735
30477SOL    HW192009   6.507   5.819   6.773 -1.7923 -0.4602  0.2597
30477SOL    HW292010   6.517   5.970   6.765 -1.1334 -0.4458  1.0817
30478SOL     OW92011   5.393   5.845   9.834 -0.0759  0.1435 -0.0324
30478SOL    HW192012   5.369   5.819   9.746 -1.4755  1.0615  0.0536
30478SOL    HW292013   5.349   5.782   9.891 -0.1694  0.2862  0.0535
30479SOL     OW92014   2.351   9.225   5.411  0.4095 -0.0308  0.3384
30479SOL    HW192015   2.440   9.221   5.444  1.2378  0.9082 -1.6377
30479SOL    HW292016   2.336   9.317   5.393 -0.8873 -0.2067  0.4175
30480SOL     OW92017   4.299   4.459   1.299  0.4535  0.3568  0.8346
30480SOL    HW192018   4.327   4.368   1.301 -0.7356 -0.0736 -0.5087
30480SOL    HW292019   4.282   4.477   1.206 -1.5938  1.2018  1.3303
30481SOL     OW92020   5.354   4.451   7.968 -0.7321  0.1263  0.1276
30481SOL    HW192021   5.372   4.514   8.038 -0.9759  0.6291 -0.2518
30481SOL    HW292022   5.282   4.490   7.919 -1.8337 -1.1066  0.6962
30482SOL     OW92023   6.740   1.421   4.315  0.0110  0.1185 -0.2428
30482SOL    HW192024   6.756   1.514   4.332  2.8290 -0.3535  0.1298
30482SOL    HW292025   6.748   1.379   4.401 -0.3271 -0.5953 -0.5504
30483SOL     OW92026   6.043   3.800   6.107  0.0033  0.0343  0.4574
30483SOL    HW192027   6.013   3.883   6.069  0.5772  0.2190  0.3816
30483SOL    HW292028   5.979   3.736   6.079 -0.7548  0.5486  0.9760
30484SOL     OW92029   4.092   2.932   8.689  0.0597 -0.2985  0.0459
30484SOL    HW192030   4.027   2.863   8.676 -0.5818  0.3915 -0.5521
30484SOL    HW292031   4.112   2.963   8.600 -0.9097  1.3704  0.3483
30485SOL     OW92032   0.351   4.691   8.841  0.1448 -0.0812 -0.3763
30485SOL    HW192033   0.309   4.753   8.782  1.0222  0.7789 -0.1250
30485SOL    HW292034   0.289   4.680   8.913  0.4404  1.3886  0.1329
30486SOL     OW92035   5.317   1.080   4.421  0.1308  0.0360  0.0618
30486SOL    HW192036   5.320   0.985   4.412  0.5845 -0.2564  2.5006
30486SOL    HW292037   5.409   1.106   4.430 -0.0511  0.5591  0.4523
30487SOL     OW92038   6.082   7.834   8.718 -0.2901 -0.0073  0.3410
30487SOL    HW192039   5.999   7.849   8.764 -0.3119 -1.2588  0.7358
30487SOL    HW292040   6.070   7.752   8.670  0.6530 -0.1083  0.2441
30488SOL     OW92041   0.156   5.227   1.802  0.0057  0.4255 -0.1436
30488SOL    HW192042   0.111   5.146   1.780 -1.8265  0.7494  2.0940
30488SOL    HW292043   0.089   5.282   1.842  1.8561  1.8814  1.1307
30489SOL     OW92044   5.440   3.721   0.793 -0.3420  0.1107  0.2253
30489SOL    HW192045   5.474   3.809   0.774  0.1870 -0.3022 -0.8633
30489SOL    HW292046   5.470   3.702   0.882 -1.1721  1.3534  0.7888
30490SOL     OW92047   1.912   6.010   7.683 -0.0617 -0.0986 -0.4764
30490SOL    HW192048   1.943   5.931   7.727 -0.1702 -0.1942 -0.5707
30490SOL    HW292049   1.823   6.022   7.715  0.4608  0.8457  0.7134
30491SOL     OW92050   8.380   1.279   0.317  0.8939  0.0470 -0.7194
30491SOL    HW192051   8.332   1.251   0.395 -1.7006 -0.2015 -2.2610
30491SOL    HW292052   8.433   1.203   0.293 -0.0727 -0.7236 -0.4818
30492SOL     OW92053   3.342   7.059   6.868 -0.8753 -0.4559 -0.0932
30492SOL    HW192054   3.431   7.045   6.836 -1.2001  1.1651 -1.8779
30492SOL    HW292055   3.324   6.983   6.924  1.9508 -0.3359  1.1281
30493SOL     OW92056   7.881   8.660   0.304 -0.2246 -1.1767 -0.1239
30493SOL    HW192057   7.860   8.583   0.251 -1.9703 -1.4207  0.8457
30493SOL    HW292058   7.804   8.717   0.294  0.5811 -0.0255  0.0264
30494SOL     OW92059   6.082   0.886   0.918  0.2272  0.4394 -0.2517
30494SOL    HW192060   6.139   0.861   0.845  1.6339 -2.7682  1.7032
30494SOL    HW292061   6.011   0.822   0.916  0.2159  0.3820  1.0581
30495SOL     OW92062   2.016   1.752   7.581 -0.1347 -0.6734 -0.4745
30495SOL    HW192063   1.964   1.741   7.660  1.1326  0.7515  0.6275
30495SOL    HW292064   1.994   1.839   7.548  0.6727 -0.5227 -0.6513
30496SOL     OW92065   7.014   3.844   4.763  0.0411 -0.1327 -0.7589
30496SOL    HW192066   6.996   3.889   4.680  0.8314 -1.1314 -1.4986
30496SOL    HW292067   7.108   3.831   4.764  0.0195 -0.3176  0.2085
30497SOL     OW92068   8.285   2.006   8.281  0.3556 -0.5374 -0.4445
30497SOL    HW192069   8.327   2.057   8.350  1.0497 -1.9193  0.1902
30497SOL    HW292070   8.357   1.980   8.223  0.0275 -0.8157 -0.7336
30498SOL     OW92071   4.727   6.839   8.694 -0.1952  0.7914  0.0536
30498SOL    HW192072   4.774   6.877   8.620  0.9419 -0.2756  0.1922
30498SOL    HW292073   4.637   6.829   8.663  0.0843  1.1048 -0.8941
30499SOL     OW92074   1.815   1.837   4.566 -0.2511 -0.1029  0.0908
30499SOL    HW192075   1.881   1.904   4.547 -1.2806  0.3318 -2.2901
30499SOL    HW292076   1.862   1.771   4.616  1.3567  1.3315  0.5906
30500SOL     OW92077   1.105   0.576   6.508  0.2145  0.7988  0.4079
30500SOL    HW192078   1.025   0.528   6.486 -1.0091  3.1353 -0.6266
30500SOL    HW292079   1.077   0.640   6.574  1.1192  1.8290 -0.1664
30501SOL     OW92080   1.036   8.972   8.008 -0.1725 -0.1729  0.1777
30501SOL    HW192081   1.061   8.946   7.920 -0.6758 -0.7269  0.1905
30501SOL    HW292082   1.109   8.942   8.063  0.2677  0.4164 -0.0788
30502SOL     OW92083   2.124   6.816   5.798  0.3669 -0.9426 -0.0859
30502SOL    HW192084   2.029   6.822   5.797  0.3471 -1.2701 -0.6176
30502SOL    HW292085   2.150   6.848   5.885 -0.1786 -0.1951 -0.1910
30503SOL     OW92086   9.872   4.532   3.714 -0.3797  0.2252 -0.0715
30503SOL    HW192087   9.800   4.569   3.764 -0.0508  0.6115  0.1173
30503SOL    HW292088   9.907   4.606   3.664  1.1061  0.4796  1.2757
30504SOL     OW92089   2.738   7.021   8.312  0.6220 -0.6774 -0.4270
30504SOL    HW192090   2.799   7.021   8.238  0.7050 -1.3652 -0.3632
30504SOL    HW292091   2.682   6.944   8.297  0.6706 -0.8483  0.2505
30505SOL     OW92092   2.050   5.236   6.046 -0.1706 -0.5335  0.7659
30505SOL    HW192093   2.014   5.296   5.981  0.0649 -0.5330  0.6359
30505SOL    HW292094   1.979   5.223   6.109  0.0484  0.5135  1.2371
30506SOL     OW92095   7.878   2.045   8.880 -0.3093  0.0165  0.2770
30506SOL    HW192096   7.938   2.119   8.871 -0.8904  0.7273  1.9151
30506SOL    HW292097   7.892   1.993   8.801 -0.2980  2.1769 -1.2282
30507SOL     OW92098   3.724   3.679   7.283  0.0917 -0.4121  0.1309
30507SOL    HW192099   3.771   3.758   7.309 -0.2129 -0.3616  0.5356
30507SOL    HW292100   3.789   3.608   7.290  0.0282 -0.3937  0.9924
30508SOL     OW92101   5.773   6.645   3.507 -0.2883 -0.1259  0.0570
30508SOL    HW192102   5.830   6.716   3.477  1.3678 -1.6741 -0.6420
30508SOL    HW292103   5.706   6.637   3.439  0.3663 -0.1679 -0.5895
30509SOL     OW92104   4.895   6.421   7.931  0.3272 -0.1106  0.0976
30509SOL    HW192105   4.939   6.496   7.891  0.2061  1.1145  2.1671
30509SOL    HW292106   4.803   6.447   7.936  0.6155  0.7232  3.0057
30510SOL     OW92107   7.852   0.355   2.701 -0.2299  0.6467  0.1744
30510SOL    HW192108   7.762   0.336   2.675 -0.0082 -1.3939  0.6829
30510SOL    HW292109   7.864   0.305   2.782  1.0169  1.8154  0.7494
30511SOL     OW92110   0.065   7.097   9.238  0.2509  0.0319  0.1677
30511SOL    HW192111   0.147   7.081   9.191 -0.3798  1.5715 -1.5747
30511SOL    HW292112   0.094   7.132   9.323  1.3993 -0.6334  0.0790
30512SOL     OW92113   9.484   8.797   9.009  0.2915  0.3342 -0.2826
30512SOL    HW192114   9.541   8.866   9.040  0.0997  0.3391  0.0663
30512SOL    HW292115   9.542   8.722   8.995  0.4366  0.4472 -0.2857
30513SOL     OW92116   8.115   9.278   5.890 -0.0075 -0.2624  0.2280
30513SOL    HW192117   8.080   9.198   5.850 -0.4701 -0.4456  0.9791
30513SOL    HW292118   8.038   9.334   5.903  0.3532  0.4333 -0.5601
30514SOL     OW92119   2.345   4.896   1.719 -0.0816  0.2690  0.3346
30514SOL    HW192120   2.344   4.912   1.625  0.8636  0.4209  0.3428
30514SOL    HW292121   2.405   4.961   1.755 -0.2889  0.0984  1.0223
30515SOL     OW92122   3.839   9.114   7.338 -0.0872 -0.1086 -0.3227
30515SOL    HW192123   3.884   9.032   7.318  1.6999  0.8776 -0.5987
30515SOL    HW292124   3.909   9.172   7.369 -1.3092  1.3066 -0.1083
30516SOL     OW92125   2.490   9.823   5.349  0.1770 -0.1448  0.4521
30516SOL    HW192126   2.522   9.736   5.374  0.6483 -0.4008 -0.9334
30516SOL    HW292127   2.413   9.837   5.404  0.2401 -1.3359  0.8776
30517SOL     OW92128   1.645   9.376   8.792  0.2223 -0.2691 -0.5440
30517SOL    HW192129   1.658   9.285   8.817 -0.0033 -0.3284 -0.6333
30517SOL    HW292130   1.673   9.426   8.868 -0.7235 -0.4603 -0.0498
30518SOL     OW92131   5.764   4.552   7.033  0.0564 -0.5050  0.2950
30518SOL    HW192132   5.784   4.464   7.002 -1.0892 -0.7064  0.0568
30518SOL    HW292133   5.805   4.611   6.970  0.5277 -0.8773  0.2554
30519SOL     OW92134   2.614   7.817   4.972  0.1421 -0.1189  0.3336
30519SOL    HW192135   2.570   7.736   4.948 -0.2250  0.3857 -0.7360
30519SOL    HW292136   2.695   7.817   4.922 -0.6520  0.9630 -1.0144
30520SOL     OW92137   8.917   0.749   2.224  0.3173  0.0102 -0.2609
30520SOL    HW192138   8.953   0.796   2.149 -1.2902  0.8376 -0.5611
30520SOL    HW292139   8.891   0.819   2.285 -0.6348 -0.5394 -0.0145
30521SOL     OW92140   5.119   2.087   1.367  0.2054 -0.2227  0.3862
30521SOL    HW192141   5.209   2.057   1.371  0.1656 -0.6614 -1.3899
30521SOL    HW292142   5.073   2.036   1.434  0.8193 -1.6430 -0.2603
30522SOL     OW92143   6.169   0.937   6.978 -0.1155  0.4430 -0.3810
30522SOL    HW192144   6.152   0.974   7.065 -0.5216 -1.7610  0.5280
30522SOL    HW292145   6.224   0.861   6.995 -0.0506  0.0793 -2.1003
30523SOL     OW92146   0.611   4.111   3.196 -0.2928 -0.6344  0.0815
30523SOL    HW192147   0.662   4.172   3.250  0.3725  0.2349 -1.4659
30523SOL    HW292148   0.520   4.134   3.212 -0.0652  0.3873 -0.0299
30524SOL     OW92149   0.421   7.838   3.009  0.7467 -0.3000 -0.7572
30524SOL    HW192150   0.362   7.826   2.934  0.6315  1.4287 -0.9979
30524SOL    HW292151   0.509   7.832   2.972  0.7013 -0.7809 -0.7863
30525SOL     OW92152   0.082   5.537   2.982 -0.1027  0.4670 -0.0978
30525SOL    HW192153   0.116   5.613   3.029 -0.7039 -0.4098  1.8473
30525SOL    HW292154  -0.013   5.547   2.984 -0.2243 -0.6192  0.7455
30526SOL     OW92155   1.665   5.419   6.242  0.1005 -0.0495  0.5551
30526SOL    HW192156   1.757   5.436   6.260 -0.1443  0.8218  1.0606
30526SOL    HW292157   1.633   5.375   6.321  0.0400 -0.1862  0.4553
30527SOL     OW92158   6.739   8.183   2.040 -0.1013  0.1104  0.7803
30527SOL    HW192159   6.682   8.258   2.022  0.2255  0.1960  0.0607
30527SOL    HW292160   6.781   8.164   1.956 -0.3929 -1.0652  0.8835
30528SOL     OW92161   9.843   0.307   5.057 -0.8281 -0.3785 -0.1702
30528SOL    HW192162   9.899   0.362   5.112  0.3540 -0.4799 -1.2358
30528SOL    HW292163   9.869   0.328   4.967 -1.6395 -1.3383 -0.6539
30529SOL     OW92164   1.873   4.119   3.145  0.0543 -0.0467  0.2046
30529SOL    HW192165   1.885   4.207   3.178 -0.1267 -0.2463  0.8156
30529SOL    HW292166   1.786   4.093   3.174  0.4889 -0.7928  0.9005
30530SOL     OW92167   8.916   3.360   1.695  0.1466  0.0589 -0.4727
30530SOL    HW192168   8.869   3.276   1.686  0.1523  0.1035 -0.9559
30530SOL    HW292169   9.004   3.341   1.664  0.1645  0.2342 -0.5274
30531SOL     OW92170   8.077   8.667   7.191 -0.4757 -0.2440  0.4857
30531SOL    HW192171   8.116   8.749   7.162 -1.0312 -0.6926 -1.7221
30531SOL    HW292172   8.122   8.600   7.140 -0.2699 -1.3003  2.0056
30532SOL     OW92173   7.530   0.311   9.463 -1.1354 -0.0714  0.1343
30532SOL    HW192174   7.614   0.325   9.506 -1.5929 -0.3712  1.1720
30532SOL    HW292175   7.550   0.258   9.386 -0.4439 -0.5961  0.6698
30533SOL     OW92176   7.834   6.415   5.908  0.3856 -0.5649  0.2652
30533SOL    HW192177   7.905   6.428   5.845 -0.3256  2.1957 -0.0848
30533SOL    HW292178   7.780   6.494   5.900 -2.7741 -2.5283  0.5002
30534SOL     OW92179   8.731   5.617   1.507  0.1087  0.0495 -0.0996
30534SOL    HW192180   8.645   5.583   1.483  0.0726 -0.4594  0.7286
30534SOL    HW292181   8.760   5.664   1.429  0.0925 -1.7493 -1.2468
30535SOL     OW92182   7.456   6.370   2.621 -0.0097 -0.0990  0.4953
30535SOL    HW192183   7.484   6.289   2.579 -0.4533 -0.0002 -0.0191
30535SOL    HW292184   7.474   6.438   2.556  0.4127  0.2215  0.9444
30536SOL     OW92185   1.773   4.325   5.887 -0.0250  0.2372 -0.0327
30536SOL    HW192186   1.771   4.392   5.819 -2.0366  0.3102  0.0290
30536SOL    HW292187   1.837   4.261   5.855 -1.1156  0.1164 -2.2078
30537SOL     OW92188   6.635   8.178   4.474  0.3904 -0.2399  0.3793
30537SOL    HW192189   6.592   8.155   4.556  0.7732 -2.1810  0.0830
30537SOL    HW292190   6.726   8.148   4.485  1.8338  3.7134  0.9863
30538SOL     OW92191   9.897   7.814   1.129 -0.1187 -0.6198 -0.1243
30538SOL    HW192192   9.810   7.812   1.090  0.4350  0.7529 -1.5313
30538SOL    HW292193   9.955   7.776   1.063  0.7943  1.4712 -0.6284
30539SOL     OW92194   2.277   6.240   3.126 -0.2757  0.4830  0.2161
30539SOL    HW192195   2.364   6.203   3.140 -0.3860  0.3152  0.4543
30539SOL    HW292196   2.223   6.205   3.197 -0.3387  1.2446  0.5553
30540SOL     OW92197   7.472   1.431   4.465 -0.0753  0.2094 -0.6129
30540SOL    HW192198   7.423   1.454   4.386  0.4478  1.0938 -0.6943
30540SOL    HW292199   7.410   1.443   4.537 -0.4593 -0.2932 -0.8479
30541SOL     OW92200   6.820   3.721   2.925 -0.5123 -0.4446 -0.1202
30541SOL    HW192201   6.745   3.773   2.955  0.8413  1.0708  0.8362
30541SOL    HW292202   6.895   3.779   2.937  0.7920 -1.8103 -1.3231
30542SOL     OW92203   3.563   5.724   7.647  0.1442  0.5778  0.5325
30542SOL    HW192204   3.648   5.692   7.617  0.1391  1.8099 -0.9119
30542SOL    HW292205   3.511   5.645   7.661  1.3932 -0.1772  1.1112
30543SOL     OW92206   0.139   7.666   8.746  0.3740  0.0390 -0.4960
30543SOL    HW192207   0.200   7.699   8.680  1.0254  0.5888  0.3646
30543SOL    HW292208   0.086   7.742   8.770  0.0027 -0.2059 -0.5296
30544SOL     OW92209   5.088   0.856   1.200 -0.4234 -0.5430 -0.2136
30544SOL    HW192210   5.085   0.880   1.293  0.4081  0.6149 -0.4683
30544SOL    HW292211   4.996   0.843   1.176 -0.6617 -0.6846  0.7106
30545SOL     OW92212   1.480   4.660   7.249  0.1636  0.0007 -0.3165
30545SOL    HW192213   1.447   4.729   7.191  0.5049  1.2232  0.8903
30545SOL    HW292214   1.484   4.582   7.194 -1.7023  0.5633 -1.3424
30546SOL     OW92215   1.306   9.801   9.646 -0.0120  0.0167  0.5522
30546SOL    HW192216   1.312   9.895   9.662  0.5932  0.0978 -0.0665
30546SOL    HW292217   1.365   9.761   9.710  0.8097  0.1793 -0.0798
30547SOL     OW92218   9.625   4.260   9.177  0.0032  0.3837 -0.0107
30547SOL    HW192219   9.605   4.318   9.251  1.4859  1.7608 -0.6436
30547SOL    HW292220   9.622   4.317   9.100  2.2164 -0.1868 -0.5714
30548SOL     OW92221   0.124   7.676   1.921  0.4430 -0.0755 -0.0500
30548SOL    HW192222   0.156   7.614   1.987  0.3912  0.0752  0.1180
30548SOL    HW292223   0.118   7.625   1.840 -0.3031 -0.4720  0.2552
30549SOL     OW92224   7.437   9.505   5.619 -0.0492  0.1204  0.1055
30549SOL    HW192225   7.506   9.466   5.674 -0.0512  0.1910  0.1588
30549SOL    HW292226   7.463   9.485   5.530 -0.3417 -0.4829  0.1553
30550SOL     OW92227   6.286   1.582   7.069  0.3937  0.3716 -0.8657
30550SOL    HW192228   6.359   1.555   7.013  0.6354  0.5228 -0.6241
30550SOL    HW292229   6.325   1.645   7.130  0.6843 -1.5386  1.0504
30551SOL     OW92230   4.613   5.731   8.344  0.2048 -0.2063  0.2243
30551SOL    HW192231   4.680   5.744   8.412  0.3570  1.5170 -0.2040
30551SOL    HW292232   4.537   5.697   8.392  0.9133 -0.8082  0.9460
30552SOL     OW92233   3.608   1.003   9.211 -0.3601 -0.0898 -0.0877
30552SOL    HW192234   3.611   1.074   9.276 -0.2942 -1.3344  1.3293
30552SOL    HW292235   3.558   1.040   9.138 -1.9618  0.8416  1.3746
30553SOL     OW92236   4.747   8.484   5.738 -0.7081 -0.3790 -0.1211
30553SOL    HW192237   4.667   8.431   5.736 -1.9418  1.2812  1.3005
30553SOL    HW292238   4.807   8.435   5.794 -1.2645 -0.9873 -0.0428
30554SOL     OW92239   0.225   5.544   9.208  0.5122  0.1208  0.0844
30554SOL    HW192240   0.161   5.603   9.168 -1.0301 -1.2466  0.4395
30554SOL    HW292241   0.308   5.570   9.169 -0.6943 -0.2392 -3.0463
30555SOL     OW92242   0.190   8.014   4.099 -0.4648 -0.6527 -0.0075
30555SOL    HW192243   0.229   7.944   4.151 -0.7907 -0.6245  0.2806
30555SOL    HW292244   0.140   7.969   4.031 -1.1033 -0.7117  0.4945
30556SOL     OW92245   5.250   9.712   3.375  0.2724  0.0147  0.2116
30556SOL    HW192246   5.306   9.688   3.300 -1.2607 -1.9988 -0.3809
30556SOL    HW292247   5.175   9.653   3.368 -1.1253  1.4826  1.9466
30557SOL     OW92248   5.630   7.150   5.503 -0.2068  0.1149 -0.2024
30557SOL    HW192249   5.719   7.184   5.494 -0.4104  0.3757 -1.4406
30557SOL    HW292250   5.611   7.111   5.417 -0.9044 -0.8832  0.3850
30558SOL     OW92251   1.190   6.915   5.038  0.1087 -0.2339 -0.0726
30558SOL    HW192252   1.272   6.944   5.079  0.4916 -0.6495 -0.5381
30558SOL    HW292253   1.126   6.981   5.063  0.3468 -0.4450  1.1624
30559SOL     OW92254   4.098   4.419   2.880  0.5923  0.2113  0.1734
30559SOL    HW192255   4.051   4.499   2.902  0.1107 -0.1216  0.3955
30559SOL    HW292256   4.186   4.432   2.914  0.7527  0.9568 -0.4868
30560SOL     OW92257   8.910   3.062   1.127 -0.0389 -0.1729 -0.4041
30560SOL    HW192258   8.981   3.011   1.087  0.4678 -1.4559  1.9407
30560SOL    HW292259   8.943   3.152   1.129  0.7967 -0.4515 -0.9117
30561SOL     OW92260   0.276   4.712   4.055 -0.0066 -0.2388 -0.8551
30561SOL    HW192261   0.324   4.629   4.053  0.4835 -0.0453  0.9725
30561SOL    HW292262   0.341   4.777   4.026  1.1500  0.1030  2.1552
30562SOL     OW92263   1.919   0.205   5.717 -0.0188  0.2207  0.4954
30562SOL    HW192264   1.967   0.280   5.752 -0.3301  0.0821  1.2456
30562SOL    HW292265   1.872   0.169   5.793  0.1015 -0.7123  0.1432
30563SOL     OW92266   1.191   3.225   9.779  0.1786 -0.2952 -0.2092
30563SOL    HW192267   1.116   3.172   9.753 -0.5253  0.9416 -0.8001
30563SOL    HW292268   1.218   3.190   9.864  0.3346 -2.1848 -0.9944
30564SOL     OW92269   4.144   4.033   2.578  0.3892  0.1601  0.1994
30564SOL    HW192270   4.160   4.127   2.581  0.6567  0.2028 -1.5504
30564SOL    HW292271   4.075   4.022   2.513 -0.2009 -0.8028  0.9541
30565SOL     OW92272   7.590   7.497   4.549 -0.4927  0.8618 -0.1148
30565SOL    HW192273   7.596   7.480   4.643  1.1983  1.4535 -0.0777
30565SOL    HW292274   7.598   7.593   4.543  1.0872  0.6902 -0.9511
30566SOL     OW92275   8.586   2.529   7.529  0.0240 -0.7279  0.0120
30566SOL    HW192276   8.567   2.455   7.471 -0.2511 -0.2728 -0.4961
30566SOL    HW292277   8.672   2.560   7.501  0.6319 -1.5265  0.9559
30567SOL     OW92278   4.591   1.840   6.435 -0.0406  0.5356  0.3268
30567SOL    HW192279   4.578   1.828   6.529 -0.7661 -0.3432  0.1283
30567SOL    HW292280   4.540   1.918   6.413  1.8072  2.0014  1.0043
30568SOL     OW92281   7.852   6.379   3.870 -0.4269  1.1909  0.2217
30568SOL    HW192282   7.849   6.284   3.864  0.2663  1.1819 -0.0088
30568SOL    HW292283   7.775   6.401   3.923 -0.0165  0.4250  1.1670
30569SOL     OW92284   4.790   6.548   3.070 -0.3600 -0.0484  0.1624
30569SOL    HW192285   4.845   6.470   3.069 -0.9143 -0.4505  0.5540
30569SOL    HW292286   4.715   6.524   3.124 -1.2109  0.2951 -0.8468
30570SOL     OW92287   6.738   7.689   7.428 -0.0010 -0.3721  0.0337
30570SOL    HW192288   6.661   7.638   7.454 -2.1793  2.9476  0.8516
30570SOL    HW292289   6.788   7.701   7.508  0.9874 -1.8193 -0.3300
30571SOL     OW92290   8.185   7.422   6.781 -0.4204  0.2428  0.1245
30571SOL    HW192291   8.097   7.443   6.812 -0.6602 -0.6904  0.1243
30571SOL    HW292292   8.236   7.410   6.861 -0.1518  1.3262  0.1211
30572SOL     OW92293   1.596   7.602   9.211 -0.2030 -0.3825 -0.0701
30572SOL    HW192294   1.572   7.588   9.119 -1.3218 -3.5370  0.5650
30572SOL    HW292295   1.652   7.527   9.233 -1.1555 -0.5342  2.1590
30573SOL     OW92296   9.421   4.574   2.414  0.1378 -0.3650 -0.4550
30573SOL    HW192297   9.387   4.558   2.502  0.8787 -1.0429 -0.2834
30573SOL    HW292298   9.376   4.654   2.386  1.0541  0.7847  1.1509
30574SOL     OW92299   1.478   3.708   3.780 -0.3529  0.4477  0.0522
30574SOL    HW192300   1.564   3.708   3.738 -0.2546  1.5523  0.2253
30574SOL    HW292301   1.424   3.763   3.724 -0.9495 -0.2293 -0.0466
30575SOL     OW92302   9.327   8.679   9.646  0.0302 -0.3693 -0.7981
30575SOL    HW192303   9.416   8.697   9.613 -0.1238  2.2444 -0.0439
30575SOL    HW292304   9.274   8.751   9.610 -1.5028 -1.1451 -0.1498
30576SOL     OW92305   1.321   2.855   7.137 -0.3735  0.5711 -0.0147
30576SOL    HW192306   1.318   2.766   7.103 -1.1849  0.3267  0.6733
30576SOL    HW292307   1.396   2.856   7.196 -2.2583 -0.6440  2.5748
30577SOL     OW92308   5.465   2.490   9.461 -0.3829  0.6312 -0.3937
30577SOL    HW192309   5.511   2.519   9.382 -1.3513 -0.5849 -1.4389
30577SOL    HW292310   5.420   2.411   9.435 -0.3499 -0.0776  1.5350
30578SOL     OW92311   5.968   9.078   0.884  0.1773 -0.2539 -0.4753
30578SOL    HW192312   5.876   9.059   0.905  0.1928  0.7238  0.5161
30578SOL    HW292313   5.978   9.171   0.901  0.9862 -0.0377 -2.0212
30579SOL     OW92314   9.636   0.962   2.448 -0.6897  0.9050  0.2817
30579SOL    HW192315   9.702   0.986   2.382 -1.3478  1.2567 -0.2574
30579SOL    HW292316   9.684   0.907   2.509  0.5950  2.6255  0.9272
30580SOL     OW92317   6.345   7.465   2.949  0.8482 -0.4182 -0.1214
30580SOL    HW192318   6.273   7.513   2.908  0.6512 -0.3582  0.2971
30580SOL    HW292319   6.358   7.389   2.892  1.0898  0.0680 -0.7228
30581SOL     OW92320   0.132   9.517   4.701 -0.3674 -0.3082 -0.1877
30581SOL    HW192321   0.055   9.564   4.733 -1.8432 -2.1415 -0.8561
30581SOL    HW292322   0.127   9.523   4.606  0.7103  0.1014 -0.2368
30582SOL     OW92323   1.662   0.020   2.310 -0.0060  0.2068  0.3265
30582SOL    HW192324   1.606  -0.011   2.380 -0.3385  3.9681  1.9176
30582SOL    HW292325   1.616   0.095   2.272  2.2942  1.2128 -0.7222
30583SOL     OW92326   8.353   0.811   6.899  0.2510  0.7305 -0.3158
30583SOL    HW192327   8.363   0.906   6.889 -1.4323  0.8975 -0.6630
30583SOL    HW292328   8.260   0.794   6.883 -0.2215 -0.5859  2.9849
30584SOL     OW92329   7.668   4.850   6.722  0.0402 -0.3544  0.0981
30584SOL    HW192330   7.599   4.852   6.656  0.2974  1.0341 -0.1586
30584SOL    HW292331   7.734   4.791   6.686  0.5306  0.9866 -1.2669
30585SOL     OW92332   9.560   4.143   4.125  0.1132  0.4534  0.0125
30585SOL    HW192333   9.617   4.069   4.146 -1.4932 -0.4034  1.6548
30585SOL    HW292334   9.492   4.105   4.069 -0.6200  0.7192  0.7112
30586SOL     OW92335   3.490   8.248   3.688 -0.8175  0.1292 -0.1935
30586SOL    HW192336   3.431   8.195   3.634 -1.3838 -0.8454  1.3093
30586SOL    HW292337   3.460   8.338   3.674 -1.2866 -0.1528 -1.0777
30587SOL     OW92338   6.480   9.234   0.682  0.2160  0.5856  0.0999
30587SOL    HW192339   6.540   9.301   0.714 -0.7020  1.3004  0.3494
30587SOL    HW292340   6.491   9.237   0.587  1.3510 -0.0388  0.1928
30588SOL     OW92341   5.807   5.207   8.910 -0.5059  0.3897 -0.9196
30588SOL    HW192342   5.817   5.257   8.829 -0.3817  0.5381 -0.8125
30588SOL    HW292343   5.877   5.142   8.908 -0.9855 -0.1237 -1.3087
30589SOL     OW92344   1.909   2.489   6.320  0.3284 -0.6537 -0.1228
30589SOL    HW192345   1.998   2.502   6.289  0.8750 -0.9304  1.2722
30589SOL    HW292346   1.900   2.547   6.396 -0.6727 -0.6444 -0.2274
30590SOL     OW92347   7.560   8.511   3.841 -0.2966 -0.5389  0.0656
30590SOL    HW192348   7.623   8.447   3.874 -1.3891 -0.9497  1.4261
30590SOL    HW292349   7.490   8.458   3.803 -1.2407 -0.1964  1.2576
30591SOL     OW92350   9.500   9.314   8.316  0.0571 -0.2027 -0.5246
30591SOL    HW192351   9.571   9.370   8.345  0.2037 -0.5659 -0.1847
30591SOL    HW292352   9.436   9.316   8.387 -0.3982  0.3239 -0.9304
30592SOL     OW92353   2.857   2.922   9.063 -0.8675  0.3622  0.4988
30592SOL    HW192354   2.788   2.906   9.128 -0.7384 -0.9699  0.3430
30592SOL    HW292355   2.825   2.880   8.983 -0.2356  0.4335  0.2045
30593SOL     OW92356   8.647   2.452   1.694 -0.5478  0.1842 -0.0380
30593SOL    HW192357   8.708   2.421   1.760 -0.5400 -0.6688 -0.4394
30593SOL    HW292358   8.560   2.434   1.730 -0.5893 -2.7496 -1.3113
30594SOL     OW92359   6.064   8.887   1.111  0.1120  0.0312 -0.1258
30594SOL    HW192360   6.146   8.924   1.143  0.4110 -0.3914 -0.3913
30594SOL    HW292361   6.069   8.897   1.016  1.0891 -2.4158 -0.4068
30595SOL     OW92362   4.588   4.434   6.851 -0.1635 -0.0997 -0.3781
30595SOL    HW192363   4.535   4.375   6.796  0.8282 -1.0303 -0.3648
30595SOL    HW292364   4.653   4.471   6.792 -0.0946  0.1359 -0.1579
30596SOL     OW92365   2.007   9.947   6.978 -0.0244 -0.2989 -0.8458
30596SOL    HW192366   1.982   9.992   7.059 -0.1820  0.1770 -1.1536
30596SOL    HW292367   2.063   9.875   7.006  0.0370 -0.0490 -0.3281
30597SOL     OW92368   8.374   6.383   9.926 -0.4774  0.0279  0.2470
30597SOL    HW192369   8.316   6.309   9.909  1.5062 -1.3896 -0.7744
30597SOL    HW292370   8.429   6.353   9.999 -0.2045  0.8424  0.3820
30598SOL     OW92371   7.077   6.455   2.500 -0.1202  0.2237 -0.2820
30598SOL    HW192372   7.153   6.512   2.509 -0.1365  0.0833  0.8011
30598SOL    HW292373   7.074   6.435   2.406  0.6145  0.9911 -0.4801
30599SOL     OW92374   2.834   2.458   5.800  0.3571  0.2286  0.2725
30599SOL    HW192375   2.745   2.424   5.814  0.3993 -0.9793 -1.9095
30599SOL    HW292376   2.843   2.528   5.865 -2.6671  1.2887 -0.2676
30600SOL     OW92377   5.333   5.859   3.484 -0.1160 -0.1229 -0.4346
30600SOL    HW192378   5.389   5.895   3.415 -0.7533 -0.4362 -1.1233
30600SOL    HW292379   5.246   5.894   3.465 -0.0928  0.7165  0.8780
30601SOL     OW92380   0.108   0.797   6.489  0.0026  0.2959 -0.2498
30601SOL    HW192381   0.057   0.718   6.475  0.8787 -0.1701 -0.8999
30601SOL    HW292382   0.192   0.765   6.524 -0.2092  1.0554  1.0136
30602SOL     OW92383   1.806   6.348   1.701 -0.2390 -0.1296  0.1910
30602SOL    HW192384   1.833   6.382   1.786 -0.6511  0.0779  0.2422
30602SOL    HW292385   1.829   6.255   1.704 -0.2372 -0.1200  0.5230
30603SOL     OW92386   5.150   6.990   9.672  0.1397  0.1908 -0.3407
30603SOL    HW192387   5.083   6.951   9.728  0.9562  0.8634  1.1650
30603SOL    HW292388   5.102   7.022   9.596 -1.0339 -0.5659  0.0451
30604SOL     OW92389   6.394   2.256   3.629 -0.2369  0.2157  0.5680
30604SOL    HW192390   6.300   2.271   3.614 -0.5101  0.8912  2.6095
30604SOL    HW292391   6.412   2.174   3.583 -1.4622  0.8096 -1.0954
30605SOL     OW92392   7.835   6.556   9.262 -0.0579  0.5922  0.2027
30605SOL    HW192393   7.835   6.649   9.240  0.0095  0.4109 -0.6000
30605SOL    HW292394   7.918   6.541   9.307 -0.4996  1.1104  1.2275
30606SOL     OW92395   7.445   8.941   7.587  0.1244 -1.2369  0.0569
30606SOL    HW192396   7.513   8.879   7.616  0.5825 -0.1707  1.3719
30606SOL    HW292397   7.405   8.898   7.512  1.5482 -2.3759 -0.1101
30607SOL     OW92398   4.176   2.915   2.766 -0.2796 -0.3621 -0.4466
30607SOL    HW192399   4.134   2.848   2.819  2.7140  0.3689  3.2818
30607SOL    HW292400   4.157   2.997   2.812  2.2531  0.3523 -0.5325
30608SOL     OW92401   7.846   9.461   9.622  0.1704  0.3526  0.5873
30608SOL    HW192402   7.847   9.538   9.565 -3.2647 -0.1842 -0.4254
30608SOL    HW292403   7.777   9.479   9.686 -2.5399 -2.6647 -1.1631
30609SOL     OW92404   4.013   0.748   7.834  0.3612 -0.3916  0.1542
30609SOL    HW192405   3.996   0.823   7.891  0.8552 -0.1942  0.0463
30609SOL    HW292406   3.941   0.688   7.851  0.1074 -0.0084  0.4414
30610SOL     OW92407   8.043   6.921   8.197 -0.2907 -0.4152 -0.2773
30610SOL    HW192408   8.042   6.906   8.103 -0.1639  0.7330 -0.4711
30610SOL    HW292409   8.048   6.833   8.235 -0.1259 -0.8788 -1.3375
30611SOL     OW92410   3.400   4.175   2.444  0.6703 -0.0555 -0.0042
30611SOL    HW192411   3.401   4.250   2.384  1.0559 -0.1065 -0.0604
30611SOL    HW292412   3.487   4.174   2.483  0.2874  0.2210  0.8620
30612SOL     OW92413   3.613   4.394   6.526  0.9222 -0.2282 -0.1495
30612SOL    HW192414   3.584   4.443   6.603 -0.0706 -1.9961  0.6671
30612SOL    HW292415   3.688   4.343   6.557  0.8572 -0.5377 -0.4934
30613SOL     OW92416   0.650   7.983   3.500 -0.2854  0.2666  0.2345
30613SOL    HW192417   0.679   7.974   3.591 -0.0462 -0.7589  0.0786
30613SOL    HW292418   0.694   7.911   3.454  0.4775  1.4349 -0.9231
30614SOL     OW92419   7.989   2.484   6.095  0.2094 -0.3583  0.0457
30614SOL    HW192420   7.922   2.419   6.119  0.3681 -1.2570 -1.7940
30614SOL    HW292421   8.045   2.439   6.033 -0.2089  1.8088 -2.0441
30615SOL     OW92422   9.037   9.248   6.410 -0.5099  0.3977  0.8669
30615SOL    HW192423   8.963   9.287   6.364 -1.5962  0.7888  2.8225
30615SOL    HW292424   9.032   9.155   6.391 -0.1249  0.6999 -0.8407
30616SOL     OW92425   3.571   3.993   1.926  0.2738 -0.4599 -0.3211
30616SOL    HW192426   3.657   4.031   1.947  0.3329 -1.2711  0.9989
30616SOL    HW292427   3.591   3.911   1.882  0.1503 -0.0471 -1.1719
30617SOL     OW92428   0.686   5.996   0.193 -0.5552  0.1769 -0.0209
30617SOL    HW192429   0.670   6.090   0.206  1.6658  0.5454  0.6299
30617SOL    HW292430   0.625   5.953   0.252 -1.9367  1.1702 -0.6714
30618SOL     OW92431   7.032   4.734   0.927  0.2854  0.1062 -0.1977
30618SOL    HW192432   7.122   4.703   0.935  0.0866 -0.7582 -1.1246
30618SOL    HW292433   7.014   4.777   1.011  1.4941  0.1388  0.0645
30619SOL     OW92434   3.485   6.005   6.994 -0.0571  0.1102 -0.3433
30619SOL    HW192435   3.438   5.948   6.934 -0.9432 -0.0309  0.4682
30619SOL    HW292436   3.545   5.947   7.040  2.5243  0.5743 -2.7995
30620SOL     OW92437   4.962   8.809   4.913  0.2686  0.1762 -0.1185
30620SOL    HW192438   4.959   8.715   4.932  0.6957  0.2522  0.3450
30620SOL    HW292439   5.028   8.843   4.973 -0.3657  0.8868  0.1894
30621SOL     OW92440   9.207   5.892   7.829  0.0605 -0.2910  0.1963
30621SOL    HW192441   9.163   5.963   7.782  0.1741  0.1528  0.7454
30621SOL    HW292442   9.210   5.922   7.920 -0.1967 -1.1515  0.4999
30622SOL     OW92443   8.098   2.416   7.052  0.0778  0.2085  0.7014
30622SOL    HW192444   8.174   2.407   6.995  0.3398  0.7962  0.9501
30622SOL    HW292445   8.128   2.470   7.125 -0.2124 -0.6546  1.4845
30623SOL     OW92446   3.300   6.558   7.294 -0.0782  0.1405  0.2804
30623SOL    HW192447   3.309   6.556   7.199 -1.7387  0.3050  0.0938
30623SOL    HW292448   3.206   6.558   7.309  0.1613  0.0346  1.9365
30624SOL     OW92449   0.093   1.984   2.904 -0.1796  0.0996 -0.0259
30624SOL    HW192450   0.167   1.992   2.844 -0.8550 -1.8795 -1.2250
30624SOL    HW292451   0.065   2.074   2.919  1.4861  0.7903 -0.7852
30625SOL     OW92452   3.038   0.447   9.469 -0.2787 -0.0918 -0.6691
30625SOL    HW192453   3.099   0.375   9.487 -0.8326 -0.6586 -0.9973
30625SOL    HW292454   3.043   0.503   9.547  0.1802 -0.4746 -0.4191
30626SOL     OW92455   0.598   3.673   2.671  0.1401  0.5794  0.2193
30626SOL    HW192456   0.666   3.610   2.697  0.0724 -0.0697 -1.1085
30626SOL    HW292457   0.623   3.754   2.715  0.2402 -0.3386  1.9678
30627SOL     OW92458   4.058   0.557   4.901  0.1983  0.4794  0.0876
30627SOL    HW192459   4.063   0.642   4.856 -0.6422  1.8079  2.3013
30627SOL    HW292460   4.124   0.564   4.971  0.8630 -1.1587 -0.3337
30628SOL     OW92461   4.098   9.254   0.749 -0.2059  0.8950 -0.2992
30628SOL    HW192462   4.148   9.177   0.723  0.2125  0.3248  1.9383
30628SOL    HW292463   4.159   9.328   0.738 -0.1392  0.7242 -1.1125
30629SOL     OW92464   7.015   6.560   6.948  0.2208 -0.4959 -0.3196
30629SOL    HW192465   7.066   6.490   6.988  2.2013  1.0649  0.0210
30629SOL    HW292466   6.987   6.615   7.021  0.0443 -0.0478 -0.7160
30630SOL     OW92467   2.901   9.317   1.345  0.6810  0.2331  0.2102
30630SOL    HW192468   2.907   9.250   1.276 -1.7554 -0.6410  0.7463
30630SOL    HW292469   2.989   9.323   1.380  1.3180 -1.5725 -0.9295
30631SOL     OW92470   5.825   2.603   1.884 -0.0985  0.2099  0.2674
30631SOL    HW192471   5.849   2.518   1.846 -3.5336  0.0050 -1.8436
30631SOL    HW292472   5.845   2.594   1.977  1.7803 -2.0198 -0.2427
30632SOL     OW92473   9.651   5.376   8.717  0.4099 -0.0342  0.4296
30632SOL    HW192474   9.655   5.462   8.759 -0.9783  0.5385 -0.5581
30632SOL    HW292475   9.560   5.367   8.689  0.8159 -1.3249 -0.5489
30633SOL     OW92476   3.391   4.958   3.869  0.2969 -0.1340 -0.1379
30633SOL    HW192477   3.448   4.884   3.849  1.2290  0.1239  1.3865
30633SOL    HW292478   3.320   4.921   3.920  1.3009  0.1177  1.5195
30634SOL     OW92479   5.026   4.032   7.855  0.4747  0.0889 -0.3083
30634SOL    HW192480   5.056   3.942   7.842 -2.3411 -1.3379  1.9748
30634SOL    HW292481   5.093   4.071   7.912  0.5777 -1.3748  0.6224
30635SOL     OW92482   8.956   3.218   3.818 -0.3761 -0.0966 -0.6142
30635SOL    HW192483   8.907   3.177   3.746 -1.9695 -0.3510  0.5567
30635SOL    HW292484   8.913   3.186   3.897  1.7758 -0.3944  0.5088
30636SOL     OW92485   2.249   5.750   9.077 -0.0499 -0.0152 -0.3916
30636SOL    HW192486   2.236   5.837   9.116 -1.1789  1.1911 -3.2239
30636SOL    HW292487   2.160   5.715   9.068  0.1958 -0.3393 -1.6358
30637SOL     OW92488   5.568   6.332   9.690 -0.2418 -0.0375  0.0115
30637SOL    HW192489   5.593   6.279   9.614 -0.2239  1.2696 -0.9287
30637SOL    HW292490   5.640   6.321   9.752 -0.4230 -1.4092  0.0242
30638SOL     OW92491   0.369   0.838   1.476  0.2571 -0.4027 -0.2245
30638SOL    HW192492   0.436   0.868   1.415  0.9513  0.4034  0.8920
30638SOL    HW292493   0.405   0.858   1.563 -1.4924  0.2201  0.4013
30639SOL     OW92494   0.800   2.998   2.623 -0.4226 -0.4986  0.4883
30639SOL    HW192495   0.827   2.910   2.647 -2.2081 -1.4488 -0.7432
30639SOL    HW292496   0.705   2.998   2.633 -0.4753  1.2546  0.3613
30640SOL     OW92497   6.139   4.621   8.327  0.1353 -0.0567 -0.2387
30640SOL    HW192498   6.045   4.606   8.337  0.1856 -1.0370 -1.0512
30640SOL    HW292499   6.170   4.545   8.277  1.2237  0.6251 -0.6331
30641SOL     OW92500   1.774   2.034   9.553  0.2291  0.2109  0.0747
30641SOL    HW192501   1.809   2.048   9.640 -1.1445  1.9720  0.3935
30641SOL    HW292502   1.680   2.017   9.567 -0.1473  1.1782 -1.0768
30642SOL     OW92503   6.810   5.280   3.951 -0.6212 -0.5885 -0.2861
30642SOL    HW192504   6.781   5.284   3.860  0.7389 -0.0520 -0.7275
30642SOL    HW292505   6.782   5.363   3.989  1.1919  0.4006 -1.0092
30643SOL     OW92506   9.025   1.350   2.960  0.1611 -0.2366 -0.0851
30643SOL    HW192507   9.012   1.255   2.961  0.7044 -0.3202  1.3730
30643SOL    HW292508   9.118   1.361   2.979  0.1219  0.5859 -0.3643
30644SOL     OW92509   8.264   8.160   6.032  0.2635 -0.1178  0.0496
30644SOL    HW192510   8.247   8.225   6.100  2.6423 -0.0359  0.6525
30644SOL    HW292511   8.262   8.076   6.078  2.4789 -0.0212  0.4469
30645SOL     OW92512   2.404   6.150   5.613  0.2643  0.5978  0.1388
30645SOL    HW192513   2.470   6.124   5.548 -1.3295  0.1005 -1.3354
30645SOL    HW292514   2.404   6.246   5.610  1.7276  0.6735  1.0557
30646SOL     OW92515   3.919   9.485   0.435 -0.2429  0.0160 -0.2446
30646SOL    HW192516   3.869   9.440   0.504  1.3269 -0.4365  0.6542
30646SOL    HW292517   3.984   9.537   0.483  0.9418 -0.3810 -1.3762
30647SOL     OW92518   8.248   7.864   1.258  0.1570  0.2899 -0.0300
30647SOL    HW192519   8.252   7.955   1.228  0.2591  0.1514 -0.4528
30647SOL    HW292520   8.257   7.812   1.178  2.1505 -0.1114  0.3975
30648SOL     OW92521   9.910   0.514   4.221  0.2707 -0.6884  0.5924
30648SOL    HW192522   9.852   0.464   4.162  1.3979 -1.9927  0.5177
30648SOL    HW292523   9.931   0.593   4.172 -0.6245 -0.6694  0.2069
30649SOL     OW92524   3.283   9.580   6.196  0.3364  0.4556 -0.0615
30649SOL    HW192525   3.311   9.652   6.252 -1.9785  1.5505 -0.2219
30649SOL    HW292526   3.274   9.619   6.109 -0.9711 -0.0112 -0.1441
30650SOL     OW92527   3.805   7.587   3.075 -0.3569  0.2433  0.2144
30650SOL    HW192528   3.783   7.576   3.168  0.9900  1.4125  0.7036
30650SOL    HW292529   3.760   7.668   3.049 -0.3763  0.1492 -0.0504
30651SOL     OW92530   1.846   2.765   6.186  0.7948  0.6275 -0.6324
30651SOL    HW192531   1.796   2.727   6.114  3.5240 -1.4367 -1.6029
30651SOL    HW292532   1.779   2.804   6.243 -1.8003 -1.0917 -2.2584
30652SOL     OW92533   6.958   9.208   9.886  0.5328 -0.0776 -0.4059
30652SOL    HW192534   7.041   9.255   9.894  0.7544 -0.6036  0.4833
30652SOL    HW292535   6.982   9.116   9.882  0.0428 -0.1852 -1.2211
30653SOL     OW92536   0.569   6.441   2.284 -0.1202 -0.4151  0.1817
30653SOL    HW192537   0.495   6.457   2.344  0.9354  0.3309  1.3358
30653SOL    HW292538   0.564   6.348   2.264 -1.7689 -0.2670 -0.3329
30654SOL     OW92539   3.729   1.312   6.647  0.0264 -0.2161 -0.3304
30654SOL    HW192540   3.666   1.275   6.584  0.5784 -1.3397 -0.2471
30654SOL    HW292541   3.714   1.406   6.642 -0.7658 -0.3652 -1.2710
30655SOL     OW92542   6.760   3.422   0.734  0.4052  0.6539  0.2977
30655SOL    HW192543   6.681   3.373   0.758 -1.1055  2.0150 -1.5106
30655SOL    HW292544   6.802   3.367   0.667  0.1858  0.5689  0.2254
30656SOL     OW92545   9.321   5.197   8.080 -0.1488  0.2955 -0.3325
30656SOL    HW192546   9.365   5.236   8.004  0.3725  1.9867  0.7860
30656SOL    HW292547   9.386   5.199   8.149 -0.7161 -0.9550  0.2570
30657SOL     OW92548   1.480   2.664   3.646  0.4984  0.3772 -0.1434
30657SOL    HW192549   1.459   2.755   3.664  2.2218  0.9779 -0.9658
30657SOL    HW292550   1.405   2.615   3.680 -0.7109  2.1208 -0.1526
30658SOL     OW92551   3.872   2.808   8.590 -0.4512 -0.1132 -0.0568
30658SOL    HW192552   3.847   2.826   8.499  1.2834  2.2425 -0.1611
30658SOL    HW292553   3.812   2.860   8.642  0.1609  0.5673 -0.0122
30659SOL     OW92554   0.382   9.833   7.485 -0.0547 -0.4972  0.0758
30659SOL    HW192555   0.404   9.916   7.443 -0.8228 -0.1025  0.4408
30659SOL    HW292556   0.337   9.857   7.566 -0.2833 -1.2644  0.1897
30660SOL     OW92557   8.311   6.034   6.598 -0.0629 -0.2238  0.3332
30660SOL    HW192558   8.333   6.062   6.509 -1.1099  0.1451  0.1812
30660SOL    HW292559   8.298   6.115   6.647  1.7323 -0.3815  1.1795
30661SOL     OW92560   7.371   6.059   0.624  0.0714 -0.3227  0.4170
30661SOL    HW192561   7.297   6.007   0.653 -0.6747  0.0471 -0.7599
30661SOL    HW292562   7.443   5.996   0.616 -0.6111 -1.0386 -0.2410
30662SOL     OW92563   4.573   3.214   1.351 -0.2804 -0.0674 -0.1733
30662SOL    HW192564   4.576   3.126   1.390 -3.9302 -0.2790 -0.0735
30662SOL    HW292565   4.627   3.267   1.409  2.5798 -2.2604 -0.5834
30663SOL     OW92566   3.326   3.082   2.804 -0.6598  0.1795  0.1225
30663SOL    HW192567   3.277   3.087   2.887  1.0508 -0.8767  1.2633
30663SOL    HW292568   3.347   3.173   2.784 -1.9895  0.5463  0.2496
30664SOL     OW92569   2.838   2.346   1.396 -0.1086  0.4868 -0.8082
30664SOL    HW192570   2.919   2.350   1.345  0.0064 -1.0144 -0.8016
30664SOL    HW292571   2.866   2.365   1.486  0.0997  0.7891 -0.9367
30665SOL     OW92572   3.395   6.147   6.261 -0.5058 -0.4814 -0.1961
30665SOL    HW192573   3.415   6.206   6.334  0.2990 -1.2830  0.2477
30665SOL    HW292574   3.420   6.061   6.293 -2.2197 -1.1658 -0.6272
30666SOL     OW92575   1.954   3.955   9.672  0.3185  0.6732  0.0195
30666SOL    HW192576   1.885   3.931   9.610  1.1310 -0.2478 -0.5678
30666SOL    HW292577   2.010   4.015   9.623  1.1455 -0.3136 -0.2742
30667SOL     OW92578   1.658   4.514   6.506 -0.1512 -0.1160  0.1163
30667SOL    HW192579   1.688   4.589   6.557 -1.7696 -0.6184  1.9224
30667SOL    HW292580   1.599   4.552   6.440 -0.1007  0.3136  0.3138
30668SOL     OW92581   6.586   7.332   8.864 -0.8363  0.0872 -0.1183
30668SOL    HW192582   6.658   7.294   8.814 -0.9566  0.4951 -0.6164
30668SOL    HW292583   6.627   7.370   8.942 -0.7312 -1.1571  0.4500
30669SOL     OW92584   1.695   0.351   5.945 -0.3659 -0.3309 -0.4112
30669SOL    HW192585   1.621   0.410   5.932  0.5366  0.9190 -0.0361
30669SOL    HW292586   1.771   0.400   5.914  0.5987 -0.7563  1.1770
30670SOL     OW92587   1.796   5.633   7.099  0.4897  0.3226 -0.2849
30670SOL    HW192588   1.788   5.676   7.014 -3.1574  0.4945 -0.0461
30670SOL    HW292589   1.765   5.543   7.082 -0.9173  0.5439  0.8899
30671SOL     OW92590   4.283   6.207   5.693  0.0253 -0.0433 -0.2360
30671SOL    HW192591   4.297   6.301   5.699 -0.3138 -0.0537  0.9188
30671SOL    HW292592   4.344   6.168   5.756 -0.8304 -0.4806  0.3538
30672SOL     OW92593   4.402   2.041   6.437 -0.1929  0.2938 -0.0703
30672SOL    HW192594   4.307   2.039   6.436 -0.2969  1.3880  2.0350
30672SOL    HW292595   4.425   2.048   6.529  1.9524 -0.1745 -0.5118
30673SOL     OW92596   4.688   9.952   0.243  0.1554  0.8876  0.1819
30673SOL    HW192597   4.763   9.896   0.258  1.2586  2.3518  0.3934
30673SOL    HW292598   4.612   9.894   0.251  1.0622 -0.0842  3.2628
30674SOL     OW92599   7.427   5.097   6.810  0.4365 -0.2950 -0.3942
30674SOL    HW192600   7.498   5.078   6.871 -0.0232  0.7879  0.4977
30674SOL    HW292601   7.408   5.190   6.822  2.0713  0.7084 -4.0438
30675SOL     OW92602   0.233   5.891   6.235 -0.5158  0.0736  0.5793
30675SOL    HW192603   0.223   5.980   6.270 -2.1676 -0.0682  0.5512
30675SOL    HW292604   0.327   5.882   6.219 -0.3517  1.9450  0.2419
30676SOL     OW92605   1.006   8.218   6.087 -0.3889  0.1887  0.5713
30676SOL    HW192606   0.922   8.233   6.131 -0.7289 -0.5624  0.1907
30676SOL    HW292607   1.029   8.304   6.050 -1.9980 -0.0283 -1.0494
30677SOL     OW92608   8.621   7.564   1.880  0.4090 -0.0702  0.0458
30677SOL    HW192609   8.605   7.655   1.905  0.2174  0.2778 -1.2621
30677SOL    HW292610   8.540   7.535   1.838 -0.2853 -1.5330  2.2224
30678SOL     OW92611   2.125   2.025   5.730  0.2026 -0.1864 -0.0046
30678SOL    HW192612   2.035   2.051   5.709 -0.1189 -0.7503  0.6318
30678SOL    HW292613   2.123   1.930   5.730  1.3306 -0.2638 -2.1729
30679SOL     OW92614   5.905   3.991   3.360 -0.6776 -0.2454 -0.1068
30679SOL    HW192615   5.846   3.977   3.285 -1.7598  1.4700  0.3711
30679SOL    HW292616   5.870   3.935   3.429  0.3610 -1.8824 -0.8474
30680SOL     OW92617   9.804   3.871   0.097 -0.3243  0.5971 -0.0466
30680SOL    HW192618   9.764   3.880   0.183 -1.5565  0.0995 -0.5496
30680SOL    HW292619   9.896   3.850   0.116 -0.8765 -0.9462  1.1901
30681SOL     OW92620   3.387   5.902   6.472  0.5823  0.3615  0.1047
30681SOL    HW192621   3.445   5.975   6.495  2.1522 -0.2129 -1.7974
30681SOL    HW292622   3.400   5.838   6.542  0.0898  1.3578  1.1570
30682SOL     OW92623   1.315   3.966   0.455 -0.2973 -0.1641  0.0796
30682SOL    HW192624   1.259   3.929   0.524  1.7865 -0.9311  1.4900
30682SOL    HW292625   1.386   3.902   0.446  1.2010  1.4829 -0.4579
30683SOL     OW92626   3.894   7.579   9.933  0.6291  0.1184 -0.2547
30683SOL    HW192627   3.806   7.543   9.943  0.2399  1.5978  3.1114
30683SOL    HW292628   3.881   7.660   9.883 -0.3605  1.4397  2.0121
30684SOL     OW92629   4.161   8.794   7.702  0.4579  0.7408  0.3028
30684SOL    HW192630   4.099   8.769   7.771  1.4085 -2.0722  0.2856
30684SOL    HW292631   4.106   8.829   7.632 -1.0079 -0.5401  0.7509
30685SOL     OW92632   0.443   4.396   0.617 -0.0279 -0.0247 -0.1137
30685SOL    HW192633   0.465   4.346   0.696  2.4358  0.6981 -0.2367
30685SOL    HW292634   0.349   4.412   0.624 -0.7387 -3.5844  0.5003
30686SOL     OW92635   8.878   1.437   5.048  0.4586  0.4165  0.1665
30686SOL    HW192636   8.954   1.421   4.991  0.1315  0.8280 -0.3903
30686SOL    HW292637   8.880   1.531   5.065  0.1196  0.4122  0.2316
30687SOL     OW92638   2.031   3.484   9.554 -0.5597  0.0210  0.3283
30687SOL    HW192639   2.048   3.490   9.648 -1.6843 -0.0987  0.5555
30687SOL    HW292640   2.117   3.477   9.514 -0.1266 -1.9083  1.4797
30688SOL     OW92641   0.417   5.888   8.324 -0.0767  0.0626 -0.5968
30688SOL    HW192642   0.412   5.835   8.244  1.0518 -0.3996 -0.3773
30688SOL    HW292643   0.470   5.836   8.385 -1.6446  0.0020  0.7932
30689SOL     OW92644   5.418   3.967   9.321  0.0233  0.4168  0.2068
30689SOL    HW192645   5.364   4.041   9.292  0.4671 -0.0277 -1.9757
30689SOL    HW292646   5.503   4.005   9.341  0.1100  0.5777 -0.4414
30690SOL     OW92647   9.348   7.391   8.498  0.0478 -0.1843 -0.1393
30690SOL    HW192648   9.421   7.426   8.547 -0.9323  2.6450 -0.5440
30690SOL    HW292649   9.270   7.423   8.544 -0.8950 -0.0082 -1.7843
30691SOL     OW92650   3.885   3.616   3.331  0.5596 -0.4082 -0.3535
30691SOL    HW192651   3.848   3.568   3.257 -0.1181 -0.9473  0.3300
30691SOL    HW292652   3.936   3.686   3.290 -0.6827 -0.0325 -1.3246
30692SOL     OW92653   4.484   4.308   3.420 -0.1214 -0.4850 -0.4638
30692SOL    HW192654   4.429   4.289   3.496 -0.6643  1.7435 -0.2359
30692SOL    HW292655   4.448   4.253   3.350 -1.4821 -0.4210  0.1532
30693SOL     OW92656   4.665   4.222   4.262 -0.2794 -0.3606  0.2937
30693SOL    HW192657   4.628   4.268   4.187 -1.1767  1.2446  1.6579
30693SOL    HW292658   4.722   4.287   4.304 -1.4351 -0.5004  2.1737
30694SOL     OW92659   5.213   2.917   1.805  0.8109 -0.1267  0.6561
30694SOL    HW192660   5.169   2.914   1.720  1.1567 -0.4381  0.4813
30694SOL    HW292661   5.291   2.970   1.790  0.5647  0.3247  0.9348
30695SOL     OW92662   7.335   8.924   8.486  0.6093 -0.3821  0.3770
30695SOL    HW192663   7.360   8.935   8.578  0.4004 -0.0064  0.3925
30695SOL    HW292664   7.353   9.010   8.447 -0.3722 -0.1859  0.3252
30696SOL     OW92665   9.861   1.142   5.869  0.4448 -0.3446  0.4605
30696SOL    HW192666   9.816   1.075   5.921 -4.0368  2.6541  1.0760
30696SOL    HW292667   9.835   1.123   5.779  1.2225 -0.7618  0.3153
30697SOL     OW92668   6.306   6.232   9.411 -0.0705  0.1857 -0.2020
30697SOL    HW192669   6.370   6.166   9.439 -0.7703  0.4934  2.3670
30697SOL    HW292670   6.358   6.296   9.362  0.8325 -1.5633 -1.6702
30698SOL     OW92671   8.016   3.959   4.890  0.3627  0.4861  0.2740
30698SOL    HW192672   8.072   3.906   4.834  0.1749 -0.4979  1.0017
30698SOL    HW292673   8.078   4.009   4.945  0.5312  0.0182  0.5112
30699SOL     OW92674   4.555   5.572   9.645 -0.0960  0.0247 -0.6022
30699SOL    HW192675   4.598   5.580   9.560  0.4585 -1.3713 -0.4815
30699SOL    HW292676   4.571   5.481   9.671 -2.0034 -0.1531  0.0612
30700SOL     OW92677   0.473   0.418   3.030 -0.2475 -0.1198 -0.6685
30700SOL    HW192678   0.393   0.472   3.027 -0.4027 -0.3798 -1.4441
30700SOL    HW292679   0.541   0.478   3.061 -0.7091  0.1473 -0.1590
30701SOL     OW92680   9.306   3.301   5.835  0.1886  0.6427 -0.6136
30701SOL    HW192681   9.368   3.364   5.798  1.2430 -0.5515 -0.9850
30701SOL    HW292682   9.278   3.247   5.760 -2.2688  1.8793 -0.6760
30702SOL     OW92683   6.086   6.906   6.939 -0.5152  0.0133 -0.2653
30702SOL    HW192684   6.099   6.827   6.991 -1.4021 -0.4840 -0.7586
30702SOL    HW292685   5.997   6.897   6.904 -0.3218  0.8293 -1.0142
30703SOL     OW92686   4.362   4.799   1.968 -0.1832  0.2480 -0.1412
30703SOL    HW192687   4.335   4.735   2.033  0.0859 -0.7274 -0.9551
30703SOL    HW292688   4.442   4.837   2.004 -0.7321  0.6554  0.6784
30704SOL     OW92689   9.313   9.904   1.024 -0.0203  0.4756  0.0385
30704SOL    HW192690   9.242   9.923   0.963 -1.5393 -4.0790  0.0094
30704SOL    HW292691   9.391   9.900   0.969 -0.3214  1.9930 -0.5499
30705SOL     OW92692   6.829   9.224   7.784  0.2963  0.2204  0.1796
30705SOL    HW192693   6.811   9.135   7.814  2.3673 -0.8219 -1.3761
30705SOL    HW292694   6.835   9.276   7.864  0.2484 -1.2934  1.1993
30706SOL     OW92695   3.799   5.317   5.861 -0.0770 -0.0272 -0.2233
30706SOL    HW192696   3.879   5.355   5.896 -1.0041  1.1833  0.6845
30706SOL    HW292697   3.771   5.378   5.794 -1.4656  0.8484  1.0907
30707SOL     OW92698   5.356   3.754   6.033  0.5668 -0.3082 -1.0190
30707SOL    HW192699   5.272   3.762   5.989 -0.1824 -0.0401  0.3918
30707SOL    HW292700   5.388   3.844   6.040  0.7830 -0.3702 -1.1777
30708SOL     OW92701   7.770   1.042   8.732 -0.1920 -0.1801  0.0240
30708SOL    HW192702   7.679   1.074   8.735  0.3196  1.3369  0.5518
30708SOL    HW292703   7.780   0.992   8.813 -0.6039 -0.4708 -0.1036
30709SOL     OW92704   9.838   8.329   3.184 -0.2467  0.1028  0.2917
30709SOL    HW192705   9.895   8.253   3.196  1.8179  1.5496  0.2578
30709SOL    HW292706   9.898   8.400   3.157 -2.1108  1.6670  0.0325
30710SOL     OW92707   3.116   4.180   0.984  0.8438  0.1182  0.1007
30710SOL    HW192708   3.200   4.137   1.002  0.1535 -1.0649  0.6677
30710SOL    HW292709   3.118   4.261   1.035  1.2574 -0.3737  0.8861
30711SOL     OW92710   3.088   7.386   5.562 -0.2981 -0.0807 -0.1718
30711SOL    HW192711   3.179   7.413   5.567  0.1267 -1.4294 -0.1812
30711SOL    HW292712   3.065   7.393   5.469  0.3830 -1.4953 -0.4704
30712SOL     OW92713   2.537   7.269   7.748 -0.2525 -0.9062 -0.0275
30712SOL    HW192714   2.478   7.283   7.821 -3.1949  0.6664 -2.4542
30712SOL    HW292715   2.544   7.356   7.707  2.8951 -1.2934 -0.5679
30713SOL     OW92716   9.018   4.714   9.776  0.0199 -0.0178  0.2966
30713SOL    HW192717   8.982   4.629   9.802 -0.4074  0.8193  2.7659
30713SOL    HW292718   8.988   4.774   9.845 -0.3631  2.3235 -1.7737
30714SOL     OW92719   8.914   6.294   4.204  0.6754 -0.3533 -0.4651
30714SOL    HW192720   8.864   6.368   4.171 -0.0077 -1.2923 -1.6204
30714SOL    HW292721   8.851   6.242   4.253  1.1900 -0.1018  0.4895
30715SOL     OW92722   0.914   3.860   6.896  0.1006  0.0106 -0.0245
30715SOL    HW192723   0.967   3.940   6.896 -2.2751  1.6876 -0.1064
30715SOL    HW292724   0.978   3.790   6.885  2.1487  1.9818 -1.9015
30716SOL     OW92725   8.013   4.925   0.729  0.6324 -0.6840  0.2588
30716SOL    HW192726   7.997   5.016   0.705  0.9603 -0.4815  0.7986
30716SOL    HW292727   7.928   4.881   0.716 -0.0001  0.0594  1.6614
30717SOL     OW92728   0.411   3.325   8.499  0.0841  0.2620  0.3505
30717SOL    HW192729   0.462   3.300   8.423  1.5979 -1.1906  1.7533
30717SOL    HW292730   0.332   3.270   8.494  0.4116 -0.1917  0.0819
30718SOL     OW92731   8.451   2.308   9.516 -0.4133 -0.0042 -0.2323
30718SOL    HW192732   8.412   2.378   9.568  1.0321  0.6291  0.0228
30718SOL    HW292733   8.504   2.259   9.578  0.2969 -0.0219 -0.8425
30719SOL     OW92734   8.707   0.929   7.697  0.3123  0.2111 -0.2685
30719SOL    HW192735   8.799   0.928   7.669  0.0274  0.8449 -1.2757
30719SOL    HW292736   8.705   0.873   7.774  1.8346  1.3994  0.7034
30720SOL     OW92737   9.160   5.549   8.573  0.2908 -0.7553 -0.6642
30720SOL    HW192738   9.144   5.642   8.557  1.7145 -0.1542  1.1140
30720SOL    HW292739   9.215   5.521   8.499  1.4056  0.3059 -0.2676
30721SOL     OW92740   6.421   6.308   6.284 -0.7276  0.3041 -0.5601
30721SOL    HW192741   6.393   6.320   6.193 -0.1519  2.3461 -0.5155
30721SOL    HW292742   6.367   6.236   6.316 -1.1451 -0.2815 -2.4182
30722SOL     OW92743   9.043   1.752   6.193  0.0739  0.4136  0.7190
30722SOL    HW192744   8.957   1.721   6.220 -0.9817 -0.4066 -3.0003
30722SOL    HW292745   9.096   1.673   6.184  0.0663  0.5193 -0.4126
30723SOL     OW92746   3.303   8.129   0.644 -0.2309 -0.6456  0.3658
30723SOL    HW192747   3.219   8.095   0.674 -0.3165 -0.1093  0.7560
30723SOL    HW292748   3.280   8.209   0.597  0.1571  0.2100  1.6004
30724SOL     OW92749   7.474   1.059  -0.005 -0.0606 -0.8125  0.5928
30724SOL    HW192750   7.497   1.084   0.084  3.1223  1.4286 -0.6465
30724SOL    HW292751   7.538   0.992  -0.029 -0.8478 -1.3565 -0.0366
30725SOL     OW92752   5.319   2.962   3.090 -0.0129 -0.2281 -0.0450
30725SOL    HW192753   5.260   3.032   3.062 -2.9857 -2.3403  0.3955
30725SOL    HW292754   5.382   3.005   3.147  1.0700  2.7440 -3.1373
30726SOL     OW92755   2.264   1.364   3.064 -0.4150  0.0575  0.3305
30726SOL    HW192756   2.258   1.428   3.135 -1.4339  0.8843 -0.4627
30726SOL    HW292757   2.195   1.390   3.003 -0.4767 -1.4811 -0.2876
30727SOL     OW92758   1.816   2.275   1.877  0.5120 -0.1441  0.1225
30727SOL    HW192759   1.775   2.334   1.814  1.0089 -0.2585 -0.3149
30727SOL    HW292760   1.770   2.192   1.866  0.5073 -0.1258  0.0035
30728SOL     OW92761   4.640   5.191   1.786 -0.5293 -0.2383 -1.1932
30728SOL    HW192762   4.599   5.200   1.872 -0.0420 -1.8810 -0.7611
30728SOL    HW292763   4.571   5.215   1.724 -0.8786  0.9950 -0.3740
30729SOL     OW92764   7.653   8.588   2.112  0.0160 -0.3912 -0.7611
30729SOL    HW192765   7.572   8.600   2.062 -0.2962  1.8223  0.1489
30729SOL    HW292766   7.625   8.574   2.202  0.6070  0.5188 -0.4126
30730SOL     OW92767   3.937   5.494   8.143 -0.1438 -0.5626  0.2787
30730SOL    HW192768   3.957   5.434   8.215 -1.1282 -1.8959 -0.5158
30730SOL    HW292769   3.951   5.442   8.064 -0.8077  0.3341 -0.4510
30731SOL     OW92770   6.060   4.820   1.141  0.5846 -0.2495  0.0390
30731SOL    HW192771   6.058   4.769   1.060  3.3489 -0.5390  0.0640
30731SOL    HW292772   6.013   4.901   1.120  1.4858 -0.1973 -1.9612
30732SOL     OW92773   8.418   1.200   3.338  0.3661  0.3652 -0.4416
30732SOL    HW192774   8.437   1.198   3.431  2.3383 -0.5327 -0.8162
30732SOL    HW292775   8.372   1.283   3.325 -1.8446 -0.4168  1.6017
30733SOL     OW92776   5.143   2.164   0.493  0.7767 -0.0717 -0.3432
30733SOL    HW192777   5.093   2.135   0.416 -1.8118  0.9397  0.8523
30733SOL    HW292778   5.128   2.258   0.497  0.2810 -0.1950  1.7401
30734SOL     OW92779   4.398   6.606   5.950  0.3137 -0.1320  0.3012
30734SOL    HW192780   4.370   6.549   5.879  0.0390 -0.8221  0.9447
30734SOL    HW292781   4.489   6.583   5.966  0.1222 -0.5999  0.7465
30735SOL     OW92782   2.714   4.842   2.809 -0.0686 -0.0265  0.1650
30735SOL    HW192783   2.767   4.770   2.775 -0.2221 -0.0851  0.0509
30735SOL    HW292784   2.741   4.918   2.757  0.8067  0.2200  0.9352
30736SOL     OW92785   1.947   0.462   5.189  0.3209  0.1559 -0.5093
30736SOL    HW192786   1.995   0.544   5.176  1.0557 -0.2743 -0.5749
30736SOL    HW292787   1.930   0.458   5.283  1.1026 -0.0569 -0.3704
30737SOL     OW92788   9.493   4.586   0.616  0.2838  0.6349  0.0317
30737SOL    HW192789   9.567   4.550   0.666 -0.2001 -1.4790 -0.6667
30737SOL    HW292790   9.531   4.612   0.532  0.3276 -0.0281 -0.1591
30738SOL     OW92791   1.590   1.622   7.672 -0.1375  0.3536 -0.1589
30738SOL    HW192792   1.641   1.549   7.636  1.0148  1.2477 -0.4105
30738SOL    HW292793   1.645   1.659   7.741 -0.9686  0.6127  0.3834
30739SOL     OW92794   1.594   2.486   5.689  0.3542 -0.0801 -0.6868
30739SOL    HW192795   1.508   2.457   5.659 -0.2755  1.0366 -0.0493
30739SOL    HW292796   1.584   2.580   5.701  1.0417 -0.2275  1.4197
30740SOL     OW92797   2.051   8.157   0.955  0.3549  0.4117  0.2404
30740SOL    HW192798   1.974   8.205   0.985 -1.4218 -0.4197 -2.5651
30740SOL    HW292799   2.076   8.101   1.029 -1.1712  1.3463  1.5132
30741SOL     OW92800   8.952   6.363   4.745 -0.3532 -0.0804  0.0374
30741SOL    HW192801   8.970   6.345   4.652  0.9137 -0.3961  0.3292
30741SOL    HW292802   8.969   6.457   4.755 -1.4434  0.1655 -0.2428
30742SOL     OW92803   7.854   8.578   1.913 -0.1826 -0.6697  0.0868
30742SOL    HW192804   7.783   8.588   1.976 -0.4170 -0.9827 -0.1240
30742SOL    HW292805   7.848   8.487   1.884 -0.9019 -0.2095 -1.3452
30743SOL     OW92806   2.099   6.274   0.079  0.2401 -0.3332 -0.0777
30743SOL    HW192807   2.084   6.244   0.168 -0.2318  1.9162  0.6655
30743SOL    HW292808   2.034   6.226   0.026 -1.1747  0.0890  1.1940
30744SOL     OW92809   6.628   3.078   0.065  0.1133  0.0372 -0.4524
30744SOL    HW192810   6.552   3.024   0.046  1.4869 -2.1223 -0.1459
30744SOL    HW292811   6.621   3.095   0.159 -1.2142  1.9320 -0.8382
30745SOL     OW92812   1.759   8.695   1.229  0.2667 -0.4382 -0.3320
30745SOL    HW192813   1.726   8.749   1.300  2.2448  0.4752 -0.0582
30745SOL    HW292814   1.820   8.634   1.271  2.7844  1.2154 -1.3471
30746SOL     OW92815   4.529   3.451   1.604  0.3434 -0.1057  0.6200
30746SOL    HW192816   4.611   3.409   1.579 -0.4040 -1.0095 -0.4148
30746SOL    HW292817   4.555   3.533   1.645  1.8146 -1.1847  1.9198
30747SOL     OW92818   9.284   6.659   3.637  0.0945  0.4173  0.1924
30747SOL    HW192819   9.354   6.609   3.595  0.7851  1.3365  0.2184
30747SOL    HW292820   9.269   6.615   3.720  0.7314  0.2850  0.2403
30748SOL     OW92821   3.194   7.907   9.146  0.2622  0.4401 -0.2174
30748SOL    HW192822   3.173   7.999   9.129 -0.0149  0.4779  0.3106
30748SOL    HW292823   3.112   7.861   9.132  0.7113  0.0583 -1.8923
30749SOL     OW92824   8.467   6.683   1.095 -0.2656  0.2458 -0.2426
30749SOL    HW192825   8.515   6.763   1.119  2.3611 -1.4517  0.6299
30749SOL    HW292826   8.440   6.697   1.005  2.1977  1.2801 -0.9217
30750SOL     OW92827   8.086   5.323   6.557 -0.3888  0.0851  0.1628
30750SOL    HW192828   8.034   5.361   6.486 -0.1339 -0.6059 -0.3934
30750SOL    HW292829   8.037   5.246   6.585 -0.2566  0.0981  0.4379
30751SOL     OW92830   5.669   5.244   0.748 -0.5764 -0.1528 -0.0667
30751SOL    HW192831   5.701   5.329   0.778  0.0711 -0.0094 -1.1045
30751SOL    HW292832   5.669   5.250   0.653  2.9340 -2.4301 -0.4379
30752SOL     OW92833   7.583   5.692   2.967  0.2824  0.1436  0.4391
30752SOL    HW192834   7.622   5.722   2.885  1.4245 -0.2648  0.8149
30752SOL    HW292835   7.643   5.724   3.035 -0.5224  0.2721  1.1061
30753SOL     OW92836   8.184   9.674   8.147  0.2549  0.1830 -0.3252
30753SOL    HW192837   8.153   9.635   8.066 -0.0226  1.9687 -1.1128
30753SOL    HW292838   8.278   9.656   8.148  0.2215 -0.0299 -0.9284
30754SOL     OW92839   1.175   2.632   2.800  0.0177 -0.4957  0.3692
30754SOL    HW192840   1.197   2.546   2.763 -1.7442 -0.7252 -0.2630
30754SOL    HW292841   1.081   2.627   2.816 -0.3597  1.7533 -0.8598
30755SOL     OW92842   8.751   1.161   6.518  0.1395 -0.1702  0.2558
30755SOL    HW192843   8.754   1.066   6.506 -0.6993 -0.2326  0.4904
30755SOL    HW292844   8.825   1.180   6.575  1.1522 -0.4993 -0.9063
30756SOL     OW92845   2.647   0.053   4.683 -0.3674  0.3336  0.3988
30756SOL    HW192846   2.696   0.089   4.757 -1.3779  0.4466  1.0272
30756SOL    HW292847   2.622   0.130   4.632 -1.2432  0.4205  0.9388
30757SOL     OW92848   3.279   7.128   9.677  0.0766 -0.8281  0.5457
30757SOL    HW192849   3.290   7.047   9.628  3.3360 -0.1014 -0.1217
30757SOL    HW292850   3.337   7.119   9.753  0.6401  0.8925  0.3722
30758SOL     OW92851   6.463   3.947   6.166 -0.1856  0.2739 -0.1885
30758SOL    HW192852   6.528   3.946   6.095 -1.4772 -0.0665 -1.4152
30758SOL    HW292853   6.480   4.029   6.212  0.4805  0.6830 -1.1151
30759SOL     OW92854   0.301   3.623   7.064 -0.3606  0.3536  0.1694
30759SOL    HW192855   0.343   3.581   7.140  1.8212 -2.0581 -2.1588
30759SOL    HW292856   0.349   3.705   7.052 -0.1911  0.3721  0.9129
30760SOL     OW92857   5.759   0.607   7.115 -0.6465 -0.1267 -0.2578
30760SOL    HW192858   5.780   0.523   7.075  1.5634 -0.4237  1.3347
30760SOL    HW292859   5.732   0.584   7.204  1.8910  0.8538  0.8636
30761SOL     OW92860   1.090   7.411   8.581 -0.0889 -0.1117 -0.4217
30761SOL    HW192861   1.161   7.469   8.554  0.7222 -0.6024  0.6050
30761SOL    HW292862   1.132   7.326   8.596 -1.2164 -0.9256 -1.6752
30762SOL     OW92863   1.324   5.265   8.859  0.0654  0.1826  0.2822
30762SOL    HW192864   1.359   5.221   8.781 -0.2003 -0.4884  0.5309
30762SOL    HW292865   1.278   5.196   8.907 -1.9444  1.0718 -0.2200
30763SOL     OW92866   2.362   3.253   0.029  0.1458 -0.1358  0.2709
30763SOL    HW192867   2.311   3.328   0.061  0.0514 -0.1027  0.0477
30763SOL    HW292868   2.298   3.197  -0.015  0.2353 -0.2954  0.3431
30764SOL     OW92869   7.093   7.339   9.438  0.5418 -0.3049 -0.3226
30764SOL    HW192870   7.103   7.422   9.391  1.1729  0.6118  1.3528
30764SOL    HW292871   6.999   7.328   9.448  0.4422  0.0140 -0.8678
30765SOL     OW92872   3.729   8.735   9.314 -0.9158 -0.3115  0.0399
30765SOL    HW192873   3.748   8.811   9.259 -1.9589  0.2075  0.3649
30765SOL    HW292874   3.697   8.668   9.252  0.8357 -0.8355 -0.3660
30766SOL     OW92875   1.706   1.368   6.694 -0.5783  0.3235 -0.2782
30766SOL    HW192876   1.720   1.284   6.739 -3.3062 -0.3435 -0.4635
30766SOL    HW292877   1.682   1.344   6.605  1.0906  1.4785 -1.0843
30767SOL     OW92878   9.343   6.021   6.943  0.0419  0.9063  0.5440
30767SOL    HW192879   9.307   6.027   7.031  0.0290  0.5740  0.5613
30767SOL    HW292880   9.403   5.947   6.946  0.5795  1.3347  0.4621
30768SOL     OW92881   7.734   4.107   7.830  0.3703  0.0711  0.0627
30768SOL    HW192882   7.820   4.066   7.844  0.8714  0.9318 -0.4128
30768SOL    HW292883   7.740   4.144   7.742 -0.6651 -0.2567 -0.1592
30769SOL     OW92884   7.630   7.906   7.140  0.2026 -0.4716  0.5173
30769SOL    HW192885   7.570   7.906   7.214 -3.1142 -0.4698 -1.9499
30769SOL    HW292886   7.675   7.991   7.145 -2.3437  0.9494  0.8037
30770SOL     OW92887   3.492   6.370   9.188  0.2435  0.8301 -0.5455
30770SOL    HW192888   3.401   6.368   9.218  0.1008  1.2241 -0.9513
30770SOL    HW292889   3.489   6.414   9.103  0.7590  0.4865 -0.7494
30771SOL     OW92890   4.224   2.777   5.678 -0.0090  0.4726 -0.6596
30771SOL    HW192891   4.224   2.684   5.654 -0.6549  0.7973 -2.0079
30771SOL    HW292892   4.144   2.812   5.639 -1.0865  1.1091  1.9049
30772SOL     OW92893   4.454   7.757   5.872 -0.1740 -0.0370 -0.5447
30772SOL    HW192894   4.508   7.829   5.906 -0.9677  1.2438 -1.9187
30772SOL    HW292895   4.517   7.696   5.834  0.3805  1.2098 -1.7039
30773SOL     OW92896   3.263   8.586   4.872 -0.0658  0.2231 -0.1827
30773SOL    HW192897   3.227   8.516   4.926 -0.6966  0.0244 -0.8455
30773SOL    HW292898   3.358   8.569   4.870 -0.2989 -1.1020 -1.0116
30774SOL     OW92899   9.379   7.304   2.706  0.7557  0.3418 -0.1711
30774SOL    HW192900   9.388   7.276   2.615 -1.6253  0.1558 -0.4099
30774SOL    HW292901   9.456   7.359   2.722  1.5592 -0.1514 -2.0765
30775SOL     OW92902   7.093   7.865   2.581 -0.1808 -0.0497 -0.3397
30775SOL    HW192903   7.055   7.935   2.527 -0.2961  0.6824  0.6694
30775SOL    HW292904   7.018   7.815   2.612 -0.1041 -0.5788 -0.9699
30776SOL     OW92905   6.594   1.037   2.178 -0.1771  0.1207  0.0524
30776SOL    HW192906   6.662   1.078   2.232  0.5351 -0.3915 -0.4464
30776SOL    HW292907   6.519   1.029   2.237  1.3145 -2.6346  1.7644
30777SOL     OW92908   0.964   4.038   6.583 -0.5186 -0.1774 -0.3723
30777SOL    HW192909   0.977   4.085   6.501  1.4746 -2.1763 -1.2813
30777SOL    HW292910   0.939   3.949   6.557  1.6335 -1.2849  1.0694
30778SOL     OW92911   1.305   0.572   5.539 -0.2464 -0.2272 -0.2466
30778SOL    HW192912   1.379   0.607   5.589  1.6469  0.3562 -3.1994
30778SOL    HW292913   1.295   0.482   5.572 -1.1081  0.9458  3.1200
30779SOL     OW92914   3.010   5.351   1.627 -0.2004 -0.2880 -0.4390
30779SOL    HW192915   2.975   5.401   1.700  1.3231  2.7003 -1.5659
30779SOL    HW292916   3.090   5.311   1.662  0.1106  0.4824 -0.2516
30780SOL     OW92917   0.300   7.560   4.983  0.0204 -0.0208 -0.4875
30780SOL    HW192918   0.356   7.551   5.061  0.9247  3.3444 -0.6037
30780SOL    HW292919   0.214   7.530   5.013  0.7944 -0.7640  1.1745
30781SOL     OW92920   5.833   0.239   3.985 -0.7473 -0.2949  0.0435
30781SOL    HW192921   5.812   0.322   3.942 -0.8623 -0.6148 -0.5191
30781SOL    HW292922   5.807   0.172   3.923  2.1717 -0.7355 -0.8667
30782SOL     OW92923   2.352   5.162   8.216 -0.3817  0.5079 -0.2703
30782SOL    HW192924   2.409   5.113   8.157 -0.5506 -1.5771  1.1800
30782SOL    HW292925   2.297   5.095   8.257 -0.9696  1.9685  1.4746
30783SOL     OW92926   7.681   8.730   1.790 -0.2758  0.5155 -0.3361
30783SOL    HW192927   7.655   8.647   1.749 -0.9844 -0.8187  2.5884
30783SOL    HW292928   7.770   8.714   1.821 -0.1226  1.1578 -0.4238
30784SOL     OW92929   5.507   1.869   0.345 -0.1580  0.1276 -0.5963
30784SOL    HW192930   5.540   1.791   0.300 -1.3789 -1.1485  0.6370
30784SOL    HW292931   5.534   1.857   0.436 -0.5344  1.0604 -0.3502
30785SOL     OW92932   5.247   6.331   6.207  0.0842  0.4321 -0.1896
30785SOL    HW192933   5.242   6.249   6.255  0.6300  0.6991  0.3266
30785SOL    HW292934   5.229   6.398   6.272  0.2898  0.7651 -0.4722
30786SOL     OW92935   8.646   5.569   3.269 -0.1376 -0.2043  0.2335
30786SOL    HW192936   8.638   5.653   3.223 -1.7253 -0.2774  0.3119
30786SOL    HW292937   8.732   5.572   3.311 -0.5482  1.8194  1.0440
30787SOL     OW92938   0.824   3.787   9.180 -0.4242  0.4436  0.3962
30787SOL    HW192939   0.752   3.773   9.241  0.0439 -0.8519  0.6803
30787SOL    HW292940   0.861   3.872   9.204 -1.1549  0.6013  0.9661
30788SOL     OW92941   5.317   2.514   5.726 -0.3530 -0.2754  0.0472
30788SOL    HW192942   5.235   2.470   5.707  0.3090 -1.0224 -1.2204
30788SOL    HW292943   5.385   2.459   5.687  0.8194  0.0530  1.4960
30789SOL     OW92944   4.460   2.389   1.338 -0.2615  0.1935 -0.0202
30789SOL    HW192945   4.452   2.300   1.304  1.0654 -1.1758  2.9010
30789SOL    HW292946   4.554   2.409   1.331 -0.5537  1.4178 -0.7030
30790SOL     OW92947   0.794   4.791   8.575 -0.2414  0.3463  0.5058
30790SOL    HW192948   0.876   4.756   8.610 -0.1820 -1.2181 -1.0549
30790SOL    HW292949   0.726   4.736   8.615 -0.2161 -0.9861 -1.1832
30791SOL     OW92950   6.659   6.159   0.126 -0.6081  0.0072  0.4204
30791SOL    HW192951   6.721   6.200   0.186 -2.4645  0.8815  1.8360
30791SOL    HW292952   6.660   6.216   0.049 -1.1762  1.2510  1.2900
30792SOL     OW92953   7.997   5.413   6.301  0.3686  0.1276  0.0298
30792SOL    HW192954   7.914   5.391   6.258  0.7228  1.2065 -1.2624
30792SOL    HW292955   8.020   5.499   6.266  1.6323  0.2032  0.9907
30793SOL     OW92956   7.937   5.921   7.795 -0.2284  0.0755 -0.8196
30793SOL    HW192957   7.888   5.971   7.859 -1.2858  1.0544 -2.3251
30793SOL    HW292958   7.937   5.831   7.828 -1.5693  0.3780  0.0578
30794SOL     OW92959   3.154   1.659   0.994  0.0756 -0.1783  0.0828
30794SOL    HW192960   3.132   1.571   0.962  0.4337 -0.5303  0.7749
30794SOL    HW292961   3.171   1.646   1.087 -1.8183  0.9532  0.6481
30795SOL     OW92962   7.048   5.561   2.720  0.1759  0.3668 -0.2408
30795SOL    HW192963   6.981   5.614   2.676  0.4119  1.8174  1.0654
30795SOL    HW292964   7.041   5.586   2.812 -0.2926 -2.5581  0.6245
30796SOL     OW92965   2.652   0.094   0.115 -0.6136  0.1485 -0.0587
30796SOL    HW192966   2.576   0.046   0.081 -1.5424  2.9069 -2.2365
30796SOL    HW292967   2.699   0.029   0.169 -1.5619 -3.2695 -2.9483
30797SOL     OW92968   1.803   5.239   8.348 -0.3092  0.0627 -0.8069
30797SOL    HW192969   1.827   5.249   8.440 -0.6624 -0.4453 -0.6566
30797SOL    HW292970   1.879   5.197   8.308  0.7147  2.1511 -1.2069
30798SOL     OW92971   5.863   0.497   6.574 -0.0054 -0.0901 -0.6192
30798SOL    HW192972   5.958   0.493   6.583  0.0497  1.4067 -0.3895
30798SOL    HW292973   5.830   0.428   6.633  0.9233 -0.7800 -0.8846
30799SOL     OW92974   8.356   8.017   1.884  0.2416 -0.6132  0.5033
30799SOL    HW192975   8.307   7.935   1.884  0.0288 -0.4892 -0.2670
30799SOL    HW292976   8.371   8.036   1.977 -0.6617 -0.9511  0.7267
30800SOL     OW92977   6.664   4.879   7.337  0.0608 -0.2630 -0.6507
30800SOL    HW192978   6.699   4.953   7.288 -1.0474  0.4930 -0.3292
30800SOL    HW292979   6.571   4.877   7.315 -0.4756  0.0853  1.3928
30801SOL     OW92980   9.519   7.671   6.293 -0.1132 -0.0412 -0.3964
30801SOL    HW192981   9.557   7.744   6.245  2.1519  0.3406  1.7542
30801SOL    HW292982   9.454   7.712   6.351 -1.6182 -0.2892 -1.8438
30802SOL     OW92983   5.972   0.234   4.255  0.5768 -0.4832 -0.6823
30802SOL    HW192984   5.939   0.153   4.295 -1.0251  1.0899  1.3910
30802SOL    HW292985   5.930   0.237   4.169 -1.2373 -0.7487  0.1459
30803SOL     OW92986   0.765   8.012   5.980 -0.0497 -0.0190 -0.1784
30803SOL    HW192987   0.771   8.075   5.908  2.2703 -0.1011 -0.1269
30803SOL    HW292988   0.795   7.930   5.942  3.1368  0.3489  1.2580
30804SOL     OW92989   0.700   4.708   2.051 -0.2975 -0.0513 -0.5437
30804SOL    HW192990   0.775   4.767   2.039 -0.0926  0.2808  1.8402
30804SOL    HW292991   0.637   4.760   2.101 -0.3659 -1.6018  1.0891
30805SOL     OW92992   5.190   0.581   3.752  0.3907  0.1881 -0.2143
30805SOL    HW192993   5.214   0.562   3.843 -0.0968 -2.3442 -0.5405
30805SOL    HW292994   5.252   0.531   3.700  0.3683  1.2393 -1.2935
30806SOL     OW92995   6.591   2.424   4.442 -0.7526  0.5097  0.4485
30806SOL    HW192996   6.594   2.414   4.537 -0.7555  0.8469  0.4855
30806SOL    HW292997   6.658   2.364   4.409 -2.9565 -2.1407  0.4544
30807SOL     OW92998   0.747   3.791   1.946  0.1369  0.1008 -0.5161
30807SOL    HW192999   0.754   3.849   2.021 -0.3594  1.7351 -1.6820
30807SOL    HW293000   0.837   3.768   1.925  0.2265 -2.0141  1.7279
30808SOL     OW93001   2.459   0.748   9.542 -0.8475  0.2793  0.1094
30808SOL    HW193002   2.427   0.682   9.480  0.2991  0.4573 -0.6930
30808SOL    HW293003   2.522   0.701   9.597  0.2466  0.7523 -0.6979
30809SOL     OW93004   3.690   0.480   1.554  0.2922  0.2042 -0.2798
30809SOL    HW193005   3.781   0.478   1.582  0.0063  1.1325  0.7873
30809SOL    HW293006   3.664   0.388   1.549  1.1453 -0.0527 -0.1443
30810SOL     OW93007   9.837   9.259   8.124  0.2775 -0.2774  0.2612
30810SOL    HW193008   9.747   9.239   8.100  0.6899 -3.0578  0.6281
30810SOL    HW293009   9.888   9.237   8.046  0.8437 -1.4448  0.9232
30811SOL     OW93010   6.784   6.313   9.095  0.0414  0.0084  0.0001
30811SOL    HW193011   6.723   6.324   9.168  0.4246  0.8655  0.2115
30811SOL    HW293012   6.867   6.350   9.127 -0.4320  2.8967 -1.7026
30812SOL     OW93013   1.027   6.759   2.323 -0.4760  0.3174  0.3013
30812SOL    HW193014   1.114   6.721   2.307 -0.4981  0.7155 -0.8809
30812SOL    HW293015   1.008   6.737   2.414  1.7427  1.9969  1.2616
30813SOL     OW93016   8.072   2.709   3.313 -0.2847  1.0866  0.3362
30813SOL    HW193017   8.155   2.724   3.359  0.2129  0.2892 -0.2699
30813SOL    HW293018   8.018   2.785   3.334  1.3142  2.6342 -0.8669
30814SOL     OW93019   2.774   4.078   1.301  0.0880  0.1242 -0.3153
30814SOL    HW193020   2.709   4.009   1.316  0.5101 -0.1124  0.5056
30814SOL    HW293021   2.815   4.090   1.387 -1.7618  3.2405  0.2658
30815SOL     OW93022   3.473   5.422   1.220 -0.7488  0.2208 -0.0589
30815SOL    HW193023   3.438   5.380   1.142 -1.3724  0.4031  0.1126
30815SOL    HW293024   3.456   5.515   1.207  0.4562  0.4080 -0.3537
30816SOL     OW93025   8.086   2.933   4.163 -0.7262  0.6442  0.2005
30816SOL    HW193026   8.068   2.933   4.257  1.4814 -1.3136  0.7357
30816SOL    HW293027   8.137   3.012   4.149  2.5133 -1.0046  1.6034
30817SOL     OW93028   3.387   2.025   1.957 -0.1334 -0.4261 -0.2597
30817SOL    HW193029   3.362   1.950   1.902 -0.3499 -0.5682  0.0293
30817SOL    HW293030   3.304   2.055   1.995  0.0537 -0.5250  0.2331
30818SOL     OW93031   8.366   9.668   4.491  0.5834 -0.1840 -0.5277
30818SOL    HW193032   8.306   9.597   4.515 -0.9203  0.4292 -2.1981
30818SOL    HW293033   8.388   9.651   4.400 -1.0814  2.2498 -1.5006
30819SOL     OW93034   8.048   0.792   7.567 -0.3717  0.4558  0.6670
30819SOL    HW193035   8.086   0.736   7.635  0.1842  0.2753  0.2158
30819SOL    HW293036   7.964   0.752   7.547 -1.0201  1.0882  1.9693
30820SOL     OW93037   8.176   1.614   8.183 -0.3417 -0.5319 -0.2818
30820SOL    HW193038   8.111   1.564   8.134 -0.7042  0.8736 -1.2949
30820SOL    HW293039   8.227   1.660   8.116 -0.7148  1.2866  0.5935
30821SOL     OW93040   9.054   2.014   6.065  0.7733  0.1288  0.4315
30821SOL    HW193041   9.078   1.922   6.073  0.4293  0.0587  0.6961
30821SOL    HW293042   9.135   2.058   6.038  0.7784 -0.3455 -0.3589
30822SOL     OW93043   0.458   6.920   6.653 -0.2148  0.7857  0.1152
30822SOL    HW193044   0.405   6.846   6.625  0.1028  0.6043 -0.0124
30822SOL    HW293045   0.407   6.962   6.722  0.2659 -0.4344  1.2675
30823SOL     OW93046   2.500   0.050   2.987  0.1638 -0.0700  0.4043
30823SOL    HW193047   2.452   0.014   3.062  0.4922  0.6858  0.9946
30823SOL    HW293048   2.588   0.013   2.994 -0.4447 -1.9259 -1.0146
30824SOL     OW93049   3.228   1.550   6.779  0.3050 -0.3185  0.1813
30824SOL    HW193050   3.250   1.640   6.757 -0.9098 -0.0332  0.0573
30824SOL    HW293051   3.202   1.510   6.696 -0.7420 -0.2986  0.4824
30825SOL     OW93052   2.690   4.050   0.334  0.2525  0.3231  0.0762
30825SOL    HW193053   2.783   4.027   0.341  0.4104  1.1554  0.9350
30825SOL    HW293054   2.670   4.093   0.417 -0.3859  1.9971 -0.9046
30826SOL     OW93055   6.474   1.667   0.221 -0.2098  0.0868 -0.4703
30826SOL    HW193056   6.551   1.630   0.262 -0.8315  0.2734  0.9095
30826SOL    HW293057   6.457   1.610   0.146  1.0208 -0.1747 -0.5703
30827SOL     OW93058   7.552   2.461   5.548  0.2146 -0.0261 -0.3453
30827SOL    HW193059   7.486   2.392   5.551  0.2934 -0.0965 -0.2149
30827SOL    HW293060   7.504   2.541   5.570  0.4401 -0.2840  1.2234
30828SOL     OW93061   6.580   5.900   0.044  0.3157  0.9462  0.1203
30828SOL    HW193062   6.610   5.989   0.067  2.9339  0.1818  0.0333
30828SOL    HW293063   6.564   5.858   0.128  1.6639  0.7452  0.3127
30829SOL     OW93064   8.958   2.987   1.390 -0.0848  0.3217 -0.0217
30829SOL    HW193065   8.938   2.985   1.297 -1.6639  1.0415  0.2714
30829SOL    HW293066   8.998   3.073   1.405 -1.2625  0.8474  0.2084
30830SOL     OW93067   3.815   3.424   8.939 -0.1343  0.1616 -0.0591
30830SOL    HW193068   3.776   3.468   8.864  0.7048  2.1870  0.6278
30830SOL    HW293069   3.808   3.330   8.919 -1.1831  0.6149 -1.9897
30831SOL     OW93070   7.427   3.540   2.544  0.0078 -0.6034  0.6801
30831SOL    HW193071   7.344   3.545   2.591 -0.0240 -0.9886  0.6703
30831SOL    HW293072   7.478   3.613   2.578 -0.9309  0.6661 -0.4934
30832SOL     OW93073   0.789   3.477   2.727 -0.1690  0.3460  0.1680
30832SOL    HW193074   0.797   3.397   2.778 -0.4619  0.8984  1.1091
30832SOL    HW293075   0.873   3.522   2.739 -0.2157  0.4490  0.1085
30833SOL     OW93076   7.247   8.894   4.868 -0.6504 -0.9264 -0.2245
30833SOL    HW193077   7.303   8.861   4.938 -0.2573  0.3977  0.1114
30833SOL    HW293078   7.180   8.827   4.857 -2.1918 -0.1498  3.1028
30834SOL     OW93079   8.615   0.615   3.778  0.2297  0.2187 -0.4310
30834SOL    HW193080   8.623   0.555   3.853  1.1120 -1.0039 -1.4557
30834SOL    HW293081   8.655   0.696   3.808 -3.3777  1.3322  1.9485
30835SOL     OW93082   5.300   9.908   3.542  0.3751 -0.6808 -0.3807
30835SOL    HW193083   5.283   9.842   3.474  0.5388  0.5474 -1.6646
30835SOL    HW293084   5.217   9.954   3.552  0.4181 -0.7008  0.0974
30836SOL     OW93085   5.464   0.243   2.427  0.3103  0.1044 -0.0992
30836SOL    HW193086   5.556   0.256   2.448  0.4573 -1.1703  0.1233
30836SOL    HW293087   5.420   0.321   2.462  1.2473  0.5423  0.1304
30837SOL     OW93088   2.209   6.881   4.372 -0.4898 -0.1852 -0.1577
30837SOL    HW193089   2.183   6.869   4.464 -1.8360 -1.3716 -0.6632
30837SOL    HW293090   2.143   6.940   4.336 -0.2995 -0.1841 -0.5042
30838SOL     OW93091   1.390   0.550   2.682 -0.0459  0.0552  0.1755
30838SOL    HW193092   1.418   0.560   2.773  0.3567 -0.6124  0.1332
30838SOL    HW293093   1.470   0.527   2.634  0.1556  2.4043 -0.7340
30839SOL     OW93094   5.774   7.670   9.773  0.2640  0.1485  0.4327
30839SOL    HW193095   5.821   7.753   9.770 -0.1041  0.3676 -2.2314
30839SOL    HW293096   5.831   7.608   9.728 -0.2289 -0.6207  0.8289
30840SOL     OW93097   3.542   3.378   5.346 -0.1179  0.3934  0.0396
30840SOL    HW193098   3.554   3.462   5.389 -0.6661  0.6971 -0.3899
30840SOL    HW293099   3.609   3.321   5.385  1.3670  1.4684 -0.8327
30841SOL     OW93100   6.958   5.401   5.278 -0.4532  0.1353 -0.1083
30841SOL    HW193101   6.871   5.429   5.248 -0.1975  0.8728 -0.1694
30841SOL    HW293102   6.961   5.308   5.258 -1.0550  0.2027 -0.5390
30842SOL     OW93103   1.975   8.979   4.825 -0.4176  0.2623 -0.7363
30842SOL    HW193104   2.023   9.058   4.853  0.6188 -0.7028  0.3410
30842SOL    HW293105   2.029   8.942   4.756  0.2140 -0.5883  0.1760
30843SOL     OW93106   7.288   6.946   2.946  0.3140 -0.1891  0.3266
30843SOL    HW193107   7.259   7.034   2.969 -1.6693 -0.0688 -2.1779
30843SOL    HW293108   7.209   6.894   2.944  1.0237 -1.2963 -1.1129
30844SOL     OW93109   6.010   2.311   5.645 -0.3596  0.3640 -0.0541
30844SOL    HW193110   6.006   2.337   5.737 -0.6859 -0.7139  0.2461
30844SOL    HW293111   5.921   2.282   5.624 -0.0058 -0.5243 -0.3654
30845SOL     OW93112   0.623   2.351   3.719  0.2614 -0.6907 -0.3875
30845SOL    HW193113   0.535   2.379   3.746  0.4216 -0.2893 -0.2685
30845SOL    HW293114   0.631   2.382   3.629  0.4082 -0.4165 -0.2831
30846SOL     OW93115   4.483   3.335   9.078  0.4914  0.2745  0.3704
30846SOL    HW193116   4.402   3.323   9.028  0.3750 -0.1573  0.6574
30846SOL    HW293117   4.485   3.262   9.139  1.5222 -0.1830 -0.1871
30847SOL     OW93118   8.926   5.935   6.843 -0.0713 -0.6195  0.4864
30847SOL    HW193119   8.871   5.859   6.826 -1.0140  0.0435  0.5207
30847SOL    HW293120   8.963   5.957   6.757 -0.2402 -0.7729  0.3742
30848SOL     OW93121   7.816   2.641   4.846  0.2662 -0.0580  0.1634
30848SOL    HW193122   7.757   2.714   4.829  0.5200  0.2855  0.7124
30848SOL    HW293123   7.771   2.588   4.912 -1.1463 -1.9017 -2.1262
30849SOL     OW93124   0.939   5.520   0.638  0.3971  0.5699  0.0593
30849SOL    HW193125   0.933   5.615   0.649 -0.6585  0.3680  1.5830
30849SOL    HW293126   0.924   5.505   0.545  0.8256  1.9092 -0.2424
30850SOL     OW93127   5.538   5.687   7.195  0.2301 -0.9981 -0.4200
30850SOL    HW193128   5.468   5.689   7.129  0.1477 -2.0477 -0.3969
30850SOL    HW293129   5.578   5.600   7.183  0.5916 -0.9667  0.5233
30851SOL     OW93130   7.843   7.158   8.248 -0.0881  0.1767 -0.0278
30851SOL    HW193131   7.815   7.224   8.184  0.0464 -0.6141 -0.9240
30851SOL    HW293132   7.925   7.194   8.284  1.0779 -0.3674 -1.9652
30852SOL     OW93133   5.393   4.069   4.647  0.4667  0.3874 -0.2239
30852SOL    HW193134   5.357   4.125   4.579 -0.0966  0.7308  0.3579
30852SOL    HW293135   5.481   4.103   4.662  0.3549  0.7191 -0.3163
30853SOL     OW93136   2.860   4.083   1.564  0.2896 -0.2672  0.2279
30853SOL    HW193137   2.866   4.175   1.588  0.8834 -0.2337 -0.0336
30853SOL    HW293138   2.950   4.056   1.549  0.0385 -0.5880 -0.7952
30854SOL     OW93139   0.310   2.783   6.321 -0.1349 -0.8572  0.1037
30854SOL    HW193140   0.295   2.876   6.339  0.8194 -1.0614  2.2832
30854SOL    HW293141   0.382   2.782   6.259  0.6070 -0.1157  0.9199
30855SOL     OW93142   8.343   3.930   3.860 -0.6529 -1.0461  0.8684
30855SOL    HW193143   8.422   3.914   3.911  1.0017  2.3002 -0.3958
30855SOL    HW293144   8.291   3.990   3.913 -0.6301 -0.3916  0.1600
30856SOL     OW93145   9.915   8.869   0.863  0.2752  0.4119 -0.4066
30856SOL    HW193146   9.844   8.930   0.841 -0.9700 -1.5404 -2.1059
30856SOL    HW293147   9.897   8.844   0.954 -1.2841 -0.0601 -0.8088
30857SOL     OW93148   0.056   6.435   9.941  0.3334 -0.1269  0.7299
30857SOL    HW193149  -0.016   6.487   9.978 -0.1807 -0.0512 -0.3219
30857SOL    HW293150   0.125   6.439  10.006 -0.3520  0.4176  1.4416
30858SOL     OW93151   4.581   8.719   2.592  0.0314  0.2506 -0.4106
30858SOL    HW193152   4.612   8.719   2.501 -1.1662  0.7391 -0.8309
30858SOL    HW293153   4.576   8.626   2.615  1.7034  0.1455 -0.3420
30859SOL     OW93154   5.602   2.103   6.242 -0.8792 -0.0719 -0.3894
30859SOL    HW193155   5.606   2.039   6.171 -1.4832 -1.8832  1.1350
30859SOL    HW293156   5.518   2.086   6.286  0.0482  0.0542  1.5648
30860SOL     OW93157   8.145   8.133   0.383  0.5980  0.1286  0.3174
30860SOL    HW193158   8.179   8.209   0.428  1.5490  0.2404 -0.5490
30860SOL    HW293159   8.110   8.077   0.453  1.0744  0.7642  1.0833
30861SOL     OW93160   6.658   9.289   2.547  0.0197 -0.0398 -0.3111
30861SOL    HW193161   6.627   9.306   2.458 -1.2690 -1.3310 -0.1320
30861SOL    HW293162   6.579   9.279   2.599  0.7587 -0.3378  0.7947
30862SOL     OW93163   1.055   1.563   8.493  0.4440  0.2929 -0.6951
30862SOL    HW193164   0.988   1.579   8.559  1.3177  0.8277  0.0842
30862SOL    HW293165   1.007   1.556   8.410 -0.6283 -0.0402 -0.0590
30863SOL     OW93166   2.706   6.685   4.410  0.5335  0.1863 -0.4009
30863SOL    HW193167   2.779   6.747   4.417  1.3462 -0.9256  1.6637
30863SOL    HW293168   2.726   6.633   4.333  0.7133  1.3632 -1.1781
30864SOL     OW93169   1.640   2.225   5.534  0.0730 -0.0524 -0.2577
30864SOL    HW193170   1.594   2.293   5.485  2.2879  1.7722  0.0094
30864SOL    HW293171   1.570   2.172   5.573 -1.7730  1.7588 -0.9012
30865SOL     OW93172   8.181   2.934   6.909 -0.5107  0.0992 -0.4933
30865SOL    HW193173   8.268   2.902   6.933 -0.5990 -0.2733 -0.6713
30865SOL    HW293174   8.132   2.935   6.991 -0.2964  0.4502 -0.3667
30866SOL     OW93175   4.526   8.748   4.111 -0.3922  0.0502  0.3155
30866SOL    HW193176   4.436   8.766   4.083 -0.4770  0.6889  0.9434
30866SOL    HW293177   4.540   8.809   4.184  0.5886  0.0336  0.1467
30867SOL     OW93178   4.068   3.222   2.377 -0.8577  0.5666 -0.1867
30867SOL    HW193179   4.092   3.196   2.288  0.0491  1.9891 -0.3841
30867SOL    HW293180   3.994   3.281   2.365 -0.6211  0.8982 -0.0077
30868SOL     OW93181   7.278   6.344   8.166 -0.0272 -0.0515  0.4110
30868SOL    HW193182   7.305   6.366   8.077 -0.4304 -0.5446  0.1543
30868SOL    HW293183   7.310   6.415   8.220  1.5148 -0.4626  0.0843
30869SOL     OW93184   5.630   9.133   1.673 -0.2141  0.0788  0.1918
30869SOL    HW193185   5.567   9.066   1.645 -0.3035  0.3947 -0.3849
30869SOL    HW293186   5.667   9.099   1.754 -2.5873  0.7617  1.6786
30870SOL     OW93187   4.595   4.196   5.177  0.2422  0.4763 -0.4810
30870SOL    HW193188   4.683   4.159   5.169  0.0235 -0.2406  0.3012
30870SOL    HW293189   4.592   4.264   5.110  1.9358  1.6133  0.5313
30871SOL     OW93190   1.310   6.432   8.483 -0.1252 -0.4188 -0.2618
30871SOL    HW193191   1.383   6.439   8.544  0.1715 -1.3368 -0.4859
30871SOL    HW293192   1.336   6.361   8.423 -0.1197  0.8543 -1.8401
30872SOL     OW93193   2.898   2.897   2.163  0.0903  0.0255 -0.0466
30872SOL    HW193194   2.973   2.889   2.104 -0.7052 -3.8425 -0.8526
30872SOL    HW293195   2.922   2.843   2.239 -0.4451  1.8271  1.4698
30873SOL     OW93196   0.038   6.114   3.480 -0.0887 -0.1937 -0.6157
30873SOL    HW193197  -0.003   6.048   3.536 -0.1584 -0.1543 -0.6200
30873SOL    HW293198  -0.027   6.184   3.474  0.8404  0.9423  1.2989
30874SOL     OW93199   6.995   6.255   1.587  1.0548  0.1963  0.1140
30874SOL    HW193200   6.990   6.167   1.549  0.8789  0.1313  0.2864
30874SOL    HW293201   6.905   6.275   1.612  0.7270  1.2044 -1.6772
30875SOL     OW93202   8.832   2.531   7.978  0.2836 -0.1627  0.0666
30875SOL    HW193203   8.786   2.476   7.915 -0.1807 -0.4798  0.6790
30875SOL    HW293204   8.807   2.620   7.956 -1.2273 -0.3682  0.8483
30876SOL     OW93205   8.206   1.538   7.716  0.4553 -0.2747 -0.4843
30876SOL    HW193206   8.175   1.602   7.652 -1.8988 -1.2884 -0.4766
30876SOL    HW293207   8.279   1.494   7.672  1.8527  2.0279 -0.6472
30877SOL     OW93208   0.372   0.267   4.204  0.0386 -0.2682  0.0990
30877SOL    HW193209   0.417   0.231   4.127 -0.6625  0.0597 -0.4813
30877SOL    HW293210   0.293   0.214   4.212 -0.2242  0.1315  0.1814
30878SOL     OW93211   4.836   3.266   0.658  0.1615  0.5991  0.2858
30878SOL    HW193212   4.749   3.290   0.626  0.8085 -0.3732 -2.5189
30878SOL    HW293213   4.827   3.175   0.685  0.1630  0.7028  0.6381
30879SOL     OW93214   8.301   9.428   5.639 -0.2716 -0.4986 -0.0336
30879SOL    HW193215   8.303   9.348   5.691  1.6783  0.1435  0.9546
30879SOL    HW293216   8.359   9.410   5.565  1.2729  0.4412  0.9190
30880SOL     OW93217   4.870   4.081   3.438 -0.3084  0.2121  0.2345
30880SOL    HW193218   4.805   4.101   3.370  0.3514 -1.0102 -0.7915
30880SOL    HW293219   4.819   4.041   3.508 -1.0470  1.7877  0.6397
30881SOL     OW93220   7.305   0.176   9.182 -0.3235  0.3715 -0.0092
30881SOL    HW193221   7.291   0.223   9.100 -1.0760  0.9401  0.4399
30881SOL    HW293222   7.257   0.094   9.171  2.5584 -1.3012 -1.5756
30882SOL     OW93223   2.420   2.441   9.668 -0.4873  0.1193  0.1491
30882SOL    HW193224   2.380   2.528   9.657 -1.1772 -0.3318 -1.1783
30882SOL    HW293225   2.510   2.453   9.638 -1.4881 -0.3322 -3.6057
30883SOL     OW93226   3.574   2.203   2.077  0.6096 -0.5877 -1.0950
30883SOL    HW193227   3.536   2.269   2.137  0.8634 -0.6602 -0.8509
30883SOL    HW293228   3.500   2.149   2.051  0.7183 -1.5185  0.3761
30884SOL     OW93229   6.433   1.283   3.649 -0.5414  0.1025 -0.4005
30884SOL    HW193230   6.496   1.336   3.599 -1.2846  0.7274 -0.6995
30884SOL    HW293231   6.481   1.203   3.671  0.2555  0.4319 -0.8854
30885SOL     OW93232   4.489   4.323   7.077 -0.1244 -0.2082  0.7652
30885SOL    HW193233   4.511   4.370   6.996 -2.2368  0.3633  0.4763
30885SOL    HW293234   4.538   4.370   7.145 -0.5650  1.1255  0.1936
30886SOL     OW93235   6.244   4.439   0.844 -0.3553  0.2421  0.0619
30886SOL    HW193236   6.296   4.407   0.918 -0.2901 -0.3325 -0.2289
30886SOL    HW293237   6.261   4.376   0.774 -1.5041  0.0150 -0.0223
30887SOL     OW93238   1.493   4.896   2.324  0.1341 -0.6717  0.2576
30887SOL    HW193239   1.491   4.989   2.346 -1.7781 -0.5882 -0.1327
30887SOL    HW293240   1.563   4.888   2.260 -1.2984  0.9898 -1.6205
30888SOL     OW93241   5.653   9.239   4.813 -0.2383 -0.1305  0.0923
30888SOL    HW193242   5.709   9.210   4.884 -1.1565  0.4528  1.0939
30888SOL    HW293243   5.704   9.305   4.767  0.5813 -0.9240 -0.1631
30889SOL     OW93244   0.844   4.771   1.095 -0.1418  0.6483  0.2456
30889SOL    HW193245   0.769   4.719   1.126  0.3276 -0.6544 -0.7108
30889SOL    HW293246   0.895   4.710   1.041  1.2186  1.7191  0.2657
30890SOL     OW93247   7.871   9.579   4.661  0.0912  0.0072  0.0868
30890SOL    HW193248   7.861   9.652   4.599 -0.4384  0.6576  0.9068
30890SOL    HW293249   7.950   9.600   4.710 -1.8137  1.9013  2.6462
30891SOL     OW93250   4.611   5.845   5.607 -0.5397 -0.3385  0.6394
30891SOL    HW193251   4.598   5.839   5.512 -0.1566  0.2482  0.5469
30891SOL    HW293252   4.555   5.777   5.643  2.1214 -3.2116 -0.2176
30892SOL     OW93253   4.183   5.371   5.104 -0.5511 -0.0633 -0.0120
30892SOL    HW193254   4.261   5.349   5.155  0.1265 -0.6631 -1.2576
30892SOL    HW293255   4.110   5.354   5.162  0.1703 -1.2755  0.5666
30893SOL     OW93256   3.906   5.564   2.826 -0.1706  0.0010  0.2039
30893SOL    HW193257   3.944   5.512   2.897 -0.7720 -1.2275 -0.3519
30893SOL    HW293258   3.918   5.655   2.855  0.7871 -0.4260  1.2541
30894SOL     OW93259   8.481   7.017   0.898 -0.5659  0.4795 -0.3221
30894SOL    HW193260   8.500   7.014   0.804  0.8594  1.4320 -0.0912
30894SOL    HW293261   8.564   6.999   0.940 -1.3071 -0.4963  0.7919
30895SOL     OW93262   3.530   3.392   2.434  0.4936 -0.0993 -0.0564
30895SOL    HW193263   3.491   3.306   2.424  0.4083  0.0897 -1.4916
30895SOL    HW293264   3.589   3.383   2.509  0.2964 -1.3254 -0.0346
30896SOL     OW93265   9.720   4.489   8.967 -0.1813  0.3075  0.2813
30896SOL    HW193266   9.650   4.497   8.903 -1.5359  1.7191  1.8581
30896SOL    HW293267   9.759   4.576   8.971  0.6558 -0.0682  0.5423
30897SOL     OW93268   5.044   0.321   5.492  0.0062 -0.3851  0.1788
30897SOL    HW193269   5.008   0.294   5.577  1.5269 -1.1945  0.6109
30897SOL    HW293270   5.139   0.319   5.504  0.2412  0.4098 -1.2768
30898SOL     OW93271   1.623   7.385   2.329  0.0105 -0.0555  0.1398
30898SOL    HW193272   1.677   7.387   2.250  1.6189  0.5708  1.2035
30898SOL    HW293273   1.686   7.386   2.401 -1.4213 -0.1431  1.4467
30899SOL     OW93274   7.519   5.488   8.350  0.4256 -0.5095  0.2154
30899SOL    HW193275   7.492   5.445   8.269  1.0014 -0.7935  0.1715
30899SOL    HW293276   7.612   5.506   8.339  0.3361  0.1758  0.4963
30900SOL     OW93277   9.952   4.735   3.545  0.1778 -0.2871  0.1908
30900SOL    HW193278   9.932   4.826   3.567 -0.8147 -0.2646 -0.7386
30900SOL    HW293279   9.910   4.721   3.460  0.3554 -1.6035  0.3032
30901SOL     OW93280   4.044   8.017   9.896  0.1210 -0.0830 -0.1871
30901SOL    HW193281   3.990   8.000   9.973 -0.5538  0.4172 -0.5393
30901SOL    HW293282   3.984   8.056   9.832  0.8526  0.3151 -0.6567
30902SOL     OW93283   7.038   1.243   1.559  0.0887 -0.1711  0.0742
30902SOL    HW193284   6.949   1.274   1.544  0.6209  0.4339 -2.1952
30902SOL    HW293285   7.040   1.220   1.652 -1.7781  1.9605  0.7417
30903SOL     OW93286   9.687   7.846   6.694 -0.2012  0.3456  0.2841
30903SOL    HW193287   9.607   7.803   6.724 -0.7175 -0.9970 -2.5941
30903SOL    HW293288   9.668   7.869   6.603  2.6830 -0.0700 -0.5310
30904SOL     OW93289   0.318   8.160   5.750  0.0618  0.2423  0.1258
30904SOL    HW193290   0.360   8.236   5.710  0.7558 -0.4289 -0.4216
30904SOL    HW293291   0.225   8.172   5.731  0.2142  0.7263 -0.3340
30905SOL     OW93292   0.262   9.894   3.830  0.2680 -0.2250 -0.6849
30905SOL    HW193293   0.190   9.831   3.839  0.0097  0.0227 -0.9751
30905SOL    HW293294   0.341   9.843   3.844  0.0039 -0.3605  0.3795
30906SOL     OW93295   2.210   9.194   8.117  0.1953  0.3103 -0.0144
30906SOL    HW193296   2.127   9.162   8.151 -0.3201  1.1258 -0.4765
30906SOL    HW293297   2.277   9.141   8.161 -0.5260  0.2144  0.9846
30907SOL     OW93298   9.856   7.826   7.377  0.2774  0.1689  0.0988
30907SOL    HW193299   9.771   7.795   7.407  0.2888  0.4513  0.4268
30907SOL    HW293300   9.918   7.792   7.441  0.7348 -2.1462 -1.4606
30908SOL     OW93301   1.364   7.989   0.737 -0.1696  0.4157 -0.1804
30908SOL    HW193302   1.449   8.028   0.716  0.1174 -0.0329  0.1399
30908SOL    HW293303   1.350   7.925   0.668  0.1358 -0.0853  0.2121
30909SOL     OW93304   9.313   7.055   2.213 -0.0915  0.2044 -0.3144
30909SOL    HW193305   9.298   7.013   2.298 -0.3107  0.9380  0.0145
30909SOL    HW293306   9.395   7.102   2.223 -0.7994  1.4273 -0.0457
30910SOL     OW93307   3.271   1.807   7.342  0.0504  0.2418  0.5278
30910SOL    HW193308   3.357   1.800   7.384  0.0545 -2.2399  0.2363
30910SOL    HW293309   3.208   1.799   7.414  0.0243  1.0110  0.6073
30911SOL     OW93310   9.585   8.376   9.225 -0.4394 -0.3994  0.2542
30911SOL    HW193311   9.659   8.358   9.166 -1.1561 -0.2659 -0.7023
30911SOL    HW293312   9.595   8.469   9.248 -0.5528 -0.2672 -0.2235
30912SOL     OW93313   0.048   6.206   0.293  0.8775  0.1557 -0.5010
30912SOL    HW193314   0.032   6.300   0.286  1.5065  0.2447 -0.8414
30912SOL    HW293315  -0.014   6.176   0.359  0.1408  0.6747 -0.9448
30913SOL     OW93316   2.458   4.978   2.786  0.1696 -0.6584 -0.0366
30913SOL    HW193317   2.545   4.960   2.821  0.1240 -2.7855 -0.8800
30913SOL    HW293318   2.413   4.893   2.786 -1.2888  0.0470 -1.2684
30914SOL     OW93319   7.224   4.296   5.781 -0.1311 -0.3131 -0.1263
30914SOL    HW193320   7.262   4.362   5.839 -3.0052  0.2481  1.2935
30914SOL    HW293321   7.227   4.337   5.694 -0.2579  0.9861  0.4454
30915SOL     OW93322   2.206   8.198   5.518  0.2846  0.3505 -0.0453
30915SOL    HW193323   2.206   8.215   5.424  2.2906 -0.1559 -0.1829
30915SOL    HW293324   2.171   8.279   5.557  1.4172  1.3996 -1.1196
30916SOL     OW93325   7.037   1.127   6.259 -0.5960 -0.6612 -0.5018
30916SOL    HW193326   7.009   1.044   6.298  2.1568 -1.8341 -0.8294
30916SOL    HW293327   7.091   1.168   6.327 -2.4210  1.2539 -0.1013
30917SOL     OW93328   7.043   2.086   7.409  0.2409  0.1553  0.1598
30917SOL    HW193329   7.059   2.062   7.501  0.8424 -1.0883 -0.2525
30917SOL    HW293330   6.974   2.152   7.414 -1.7190 -1.8588  1.3428
30918SOL     OW93331   1.609   2.023   4.503  0.0116  0.2094 -0.4328
30918SOL    HW193332   1.654   1.953   4.550  0.7356 -0.2366 -1.7199
30918SOL    HW293333   1.582   2.084   4.571  0.2720 -0.8107  0.6264
30919SOL     OW93334   4.574   1.108   6.301  0.4542  0.4865 -0.3982
30919SOL    HW193335   4.513   1.072   6.365 -1.0743  1.6618 -1.1294
30919SOL    HW293336   4.591   1.197   6.332  1.6789  0.2267 -0.2998
30920SOL     OW93337   6.300   1.825   2.880  0.7481 -0.1456  0.0692
30920SOL    HW193338   6.273   1.787   2.797 -0.0803 -0.3308  0.4139
30920SOL    HW293339   6.379   1.874   2.859  0.6817 -0.3834 -0.7803
30921SOL     OW93340   0.064   2.131   1.458 -0.2025  0.1313  0.3569
30921SOL    HW193341   0.046   2.048   1.415  1.0907 -0.0544  0.1217
30921SOL    HW293342   0.117   2.107   1.535  1.7855  0.8401 -0.7185
30922SOL     OW93343   0.652   5.328   2.131 -0.6178 -0.4556 -0.0254
30922SOL    HW193344   0.631   5.419   2.109 -0.3649 -0.1923  0.8037
30922SOL    HW293345   0.670   5.329   2.225  2.5893 -0.7329 -0.4991
30923SOL     OW93346   4.758   3.345   5.881  0.0559  0.2720 -0.1040
30923SOL    HW193347   4.689   3.401   5.846 -0.3700  0.1592  0.5263
30923SOL    HW293348   4.820   3.406   5.920  0.3081  0.3734 -0.6591
30924SOL     OW93349   7.929   4.531   9.613 -0.3859 -0.2519 -0.0208
30924SOL    HW193350   7.958   4.468   9.546 -0.4538 -0.8874  0.5314
30924SOL    HW293351   7.851   4.572   9.575 -0.9991 -1.3061  0.0406
30925SOL     OW93352   7.625   4.813   2.837  0.1177 -0.0807 -0.2338
30925SOL    HW193353   7.684   4.866   2.783 -0.6009  0.0759 -0.8886
30925SOL    HW293354   7.593   4.873   2.905 -0.6721  0.3432 -0.9562
30926SOL     OW93355   0.595   9.514   5.521 -0.1678 -0.1733 -0.0342
30926SOL    HW193356   0.577   9.440   5.580 -1.5415  0.2723  0.1381
30926SOL    HW293357   0.690   9.518   5.516 -0.0546 -1.1211  1.0149
30927SOL     OW93358   6.095   3.068   7.173 -0.7660  0.4652  0.1223
30927SOL    HW193359   6.026   3.089   7.110 -0.5690 -0.8611 -0.5733
30927SOL    HW293360   6.123   2.980   7.149 -1.2289 -0.4186  2.5705
30928SOL     OW93361   5.992   4.717   9.852  0.7469 -0.3177 -0.0629
30928SOL    HW193362   5.922   4.772   9.889  0.8745 -0.7154  0.7882
30928SOL    HW293363   5.950   4.671   9.779  0.6967  1.0697 -0.9469
30929SOL     OW93364   1.559   7.691   1.297  0.2041 -0.0472  0.5586
30929SOL    HW193365   1.619   7.723   1.364 -0.9238  0.6666  1.2771
30929SOL    HW293366   1.541   7.768   1.243  1.1840 -0.6411 -0.6505
30930SOL     OW93367   6.798   5.991   2.339 -0.3459  0.4024  0.0077
30930SOL    HW193368   6.764   5.914   2.294 -0.2986 -0.0122  0.6643
30930SOL    HW293369   6.779   6.064   2.280 -0.1806 -0.1417 -0.7267
30931SOL     OW93370   4.087   4.742   8.438  0.1554 -0.1739 -0.4911
30931SOL    HW193371   4.122   4.687   8.367  2.8042 -1.6404  1.7429
30931SOL    HW293372   4.140   4.822   8.434  0.4168 -0.3263 -0.0849
30932SOL     OW93373   0.305   9.336   3.024 -0.8184  0.5771  0.1063
30932SOL    HW193374   0.384   9.383   2.997 -0.9136  1.0279  0.5760
30932SOL    HW293375   0.234   9.396   3.003 -0.9339  0.7066  0.8305
30933SOL     OW93376   3.601   4.941   5.335  0.6042 -0.0770 -0.2379
30933SOL    HW193377   3.594   5.035   5.321 -1.8609 -0.0966  0.4623
30933SOL    HW293378   3.561   4.902   5.258  0.9691 -0.5489 -0.1931
30934SOL     OW93379   3.379   0.501   2.755  0.0088 -0.3453  0.4259
30934SOL    HW193380   3.445   0.524   2.820 -1.0467 -1.0337  1.7907
30934SOL    HW293381   3.421   0.432   2.702  0.3668 -0.8492  1.3387
30935SOL     OW93382   6.723   1.562   4.672 -0.1619 -0.1346 -0.4742
30935SOL    HW193383   6.778   1.567   4.750 -1.1198 -0.0492  0.2194
30935SOL    HW293384   6.655   1.628   4.687 -0.2086  0.0705 -1.5072
30936SOL     OW93385   0.732   8.812   2.602  0.0452  0.3402 -0.5550
30936SOL    HW193386   0.648   8.811   2.647 -0.1936  0.9592 -0.9687
30936SOL    HW293387   0.797   8.796   2.670 -0.5269 -2.7073 -0.5876
30937SOL     OW93388   9.775   7.511   5.329 -0.0041  0.8201 -0.0801
30937SOL    HW193389   9.837   7.529   5.399  0.3105 -0.3936 -0.0393
30937SOL    HW293390   9.818   7.542   5.249  0.4045  0.5041  0.0211
30938SOL     OW93391   1.274   4.485   0.321 -0.3542  0.1373 -0.1428
30938SOL    HW193392   1.291   4.405   0.370 -1.2776  1.5268  2.6569
30938SOL    HW293393   1.178   4.488   0.313 -0.4997  1.7813  1.4744
30939SOL     OW93394   2.929   4.272   0.709  0.1556  0.1455 -0.3490
30939SOL    HW193395   3.004   4.275   0.650  0.2697  1.3906 -0.1686
30939SOL    HW293396   2.956   4.324   0.784 -1.7367  2.6812 -1.2982
30940SOL     OW93397   3.882   0.969   3.143  0.3089 -0.3604 -0.2966
30940SOL    HW193398   3.869   0.966   3.238  0.0214 -1.4550 -0.3614
30940SOL    HW293399   3.918   0.883   3.121  0.1239 -0.2109 -1.2130
30941SOL     OW93400   3.998   9.375   7.971 -0.1506 -0.0273 -0.3468
30941SOL    HW193401   4.066   9.349   8.033 -2.0434 -0.5528  1.6758
30941SOL    HW293402   4.015   9.322   7.893  1.6557 -0.2103  0.1325
30942SOL     OW93403   7.489   9.106   1.263  0.3278 -1.0697  0.2837
30942SOL    HW193404   7.523   9.101   1.352 -0.0954  0.1982  0.5281
30942SOL    HW293405   7.447   9.192   1.258  1.4254 -0.6000 -1.5207
30943SOL     OW93406   8.542   7.299   0.771 -0.1351 -0.3097 -0.0442
30943SOL    HW193407   8.564   7.277   0.680  0.8558  1.4106 -0.2456
30943SOL    HW293408   8.613   7.262   0.822 -0.3730 -0.7348 -0.0135
30944SOL     OW93409   1.040   6.029   8.732  0.1914  0.0803  0.3775
30944SOL    HW193410   0.979   5.956   8.739  0.2963 -0.0514 -0.0141
30944SOL    HW293411   1.016   6.073   8.650  1.0210 -0.3521 -0.1171
30945SOL     OW93412   9.925   5.989   1.887 -0.4001 -0.5113 -0.0345
30945SOL    HW193413   9.850   6.031   1.929 -0.8088 -2.1914  0.9929
30945SOL    HW293414   9.980   6.062   1.859 -1.7334  0.7247  0.4374
30946SOL     OW93415   8.969   4.974   2.936 -0.5750  0.0989  0.2283
30946SOL    HW193416   8.938   4.981   3.026 -0.7325  2.2727  0.0497
30946SOL    HW293417   9.044   4.915   2.942  0.6926  1.7609  2.1835
30947SOL     OW93418   5.349   3.585   5.470  0.4557  0.4222 -0.1510
30947SOL    HW193419   5.429   3.635   5.484  1.0564 -0.7213  0.6522
30947SOL    HW293420   5.341   3.531   5.549 -0.4136 -0.4178 -0.7997
30948SOL     OW93421   0.327   3.304   8.953 -0.4126 -0.1906  0.9352
30948SOL    HW193422   0.328   3.372   9.020 -2.1814  3.7137 -2.5300
30948SOL    HW293423   0.407   3.318   8.903  0.6139 -2.6694  1.7458
30949SOL     OW93424   2.874   3.917   4.201  0.1108  0.6418 -0.5228
30949SOL    HW193425   2.922   3.847   4.246 -0.2126 -0.0679 -1.2652
30949SOL    HW293426   2.900   3.997   4.248  1.4874  0.1946 -0.4765
30950SOL     OW93427   7.512   3.582   0.185  0.0399  0.2190  0.5959
30950SOL    HW193428   7.569   3.551   0.115  1.6669 -0.3751  2.1055
30950SOL    HW293429   7.506   3.676   0.171 -1.4119 -0.1253 -1.5246
30951SOL     OW93430   9.064   2.020   5.580  0.2949  0.4494 -0.2592
30951SOL    HW193431   9.112   2.071   5.644  1.7779  0.0816 -1.0159
30951SOL    HW293432   9.117   2.026   5.500  0.5986 -2.2869 -0.3625
30952SOL     OW93433   1.882   6.517   4.625  0.0393  0.1072  0.3012
30952SOL    HW193434   1.817   6.581   4.654 -0.2300  0.1221 -0.3167
30952SOL    HW293435   1.904   6.544   4.535 -0.8365 -1.2416 -0.3600
30953SOL     OW93436   6.197   7.808   5.913 -0.3762 -0.1861 -0.2654
30953SOL    HW193437   6.287   7.780   5.900 -0.5380 -1.2801  0.7849
30953SOL    HW293438   6.203   7.884   5.971 -0.2051 -1.8282  2.0187
30954SOL     OW93439   9.011   0.396   2.428  0.3863  0.5499 -0.5458
30954SOL    HW193440   8.998   0.433   2.341  0.7862  2.0114 -0.0268
30954SOL    HW293441   9.058   0.314   2.413  2.3285  1.7882 -1.6112
30955SOL     OW93442   4.401   8.302   0.184 -0.2430  0.3520  0.0331
30955SOL    HW193443   4.357   8.288   0.100 -1.3004  1.7048  0.3246
30955SOL    HW293444   4.494   8.294   0.164 -0.4555  1.1582 -1.3807
30956SOL     OW93445   5.062   4.648   4.316  0.0878  0.0359 -0.4257
30956SOL    HW193446   5.138   4.673   4.369 -0.3971  0.5827  0.0227
30956SOL    HW293447   4.988   4.652   4.376 -0.7229  2.2178 -1.4396
30957SOL     OW93448   4.703   5.122   1.376  0.1371 -0.2998 -0.6677
30957SOL    HW193449   4.610   5.107   1.361 -0.6672  3.1513  0.0833
30957SOL    HW293450   4.726   5.195   1.319  1.5857  0.9121  1.3207
30958SOL     OW93451   2.619   5.474   6.856  0.3623  0.1000  0.0106
30958SOL    HW193452   2.536   5.466   6.808 -0.1987  1.8215  0.6459
30958SOL    HW293453   2.608   5.415   6.931  0.1858 -0.5514 -0.5118
30959SOL     OW93454   0.702   0.565   6.690  0.3818 -0.2990 -0.3778
30959SOL    HW193455   0.694   0.495   6.756 -0.2680 -0.4932 -0.6610
30959SOL    HW293456   0.713   0.645   6.741  2.9700 -0.7685 -0.0257
30960SOL     OW93457   8.271   4.587   3.978  0.2484 -0.0476 -0.2827
30960SOL    HW193458   8.229   4.532   3.911 -0.3189  0.3512 -0.2610
30960SOL    HW293459   8.262   4.676   3.945  3.4472 -0.0632 -1.6059
30961SOL     OW93460   3.375   1.763   4.106  0.4076 -0.3988  0.6957
30961SOL    HW193461   3.466   1.746   4.131  0.4899 -0.8561  0.1014
30961SOL    HW293462   3.356   1.699   4.038 -1.0292 -1.6964  2.2206
30962SOL     OW93463   0.340   6.971   9.851 -0.9878 -0.1649  0.2095
30962SOL    HW193464   0.371   6.979   9.941  3.2795  1.0722 -1.1381
30962SOL    HW293465   0.280   7.044   9.840  0.6438  1.4444  1.3604
30963SOL     OW93466   4.048   3.250   6.422 -0.2574 -0.3330 -0.4692
30963SOL    HW193467   4.081   3.166   6.454  2.0604 -0.5389 -3.0632
30963SOL    HW293468   4.030   3.235   6.329 -1.1147  1.6975 -0.6881
30964SOL     OW93469   3.771   7.702   7.361  0.2386  0.1467  0.5050
30964SOL    HW193470   3.754   7.709   7.267  0.6126  0.2877  0.4441
30964SOL    HW293471   3.858   7.663   7.366 -0.3111 -1.0664  0.8131
30965SOL     OW93472   9.613   4.883   6.400  0.1195  0.2133 -0.6130
30965SOL    HW193473   9.531   4.842   6.424  0.3331  0.0339 -0.1861
30965SOL    HW293474   9.673   4.810   6.383  0.2635  0.3435 -0.6752
30966SOL     OW93475   2.439   4.711   6.526 -0.5242  0.2980 -0.5898
30966SOL    HW193476   2.499   4.637   6.516 -0.7872 -0.0582  0.4082
30966SOL    HW293477   2.352   4.672   6.521 -0.6637  0.4686  0.4155
30967SOL     OW93478   7.780   0.986   6.827 -0.1963 -0.3520 -0.6214
30967SOL    HW193479   7.807   1.077   6.835  2.6390 -1.0869 -0.5619
30967SOL    HW293480   7.797   0.965   6.735 -2.2243 -0.4814 -1.0076
30968SOL     OW93481   4.740   9.068   7.520 -0.2874 -0.0583 -0.0246
30968SOL    HW193482   4.784   9.089   7.437  0.2726 -2.0299 -0.2811
30968SOL    HW293483   4.809   9.072   7.586 -0.4543  0.2250  0.1338
30969SOL     OW93484   9.563   2.049   4.602 -0.0325 -0.3543  0.0890
30969SOL    HW193485   9.515   2.028   4.523  0.0356  1.8672 -0.5965
30969SOL    HW293486   9.655   2.034   4.579 -0.0645 -0.4148 -0.0004
30970SOL     OW93487   4.211   2.373   4.103 -0.3384 -0.8867  0.0185
30970SOL    HW193488   4.280   2.308   4.090  1.5318  0.8491  0.7949
30970SOL    HW293489   4.242   2.451   4.058 -1.2280  0.2883  1.3437
30971SOL     OW93490   1.949   3.207   6.390 -0.9253 -0.2226  0.3939
30971SOL    HW193491   1.928   3.148   6.318 -0.9092  0.3695 -0.1062
30971SOL    HW293492   1.882   3.190   6.456 -0.3942 -1.4372  0.6479
30972SOL     OW93493   2.178  -0.005   0.007 -0.2682 -0.4774 -0.2133
30972SOL    HW193494   2.200   0.088  -0.002 -2.3074 -0.0382 -1.4876
30972SOL    HW293495   2.177  -0.021   0.101  0.8990  0.5636  0.0031
30973SOL     OW93496   9.651   8.316   6.649  0.7046 -0.1891 -0.0288
30973SOL    HW193497   9.670   8.408   6.632  1.6508 -0.5400 -0.9509
30973SOL    HW293498   9.682   8.302   6.739 -0.8365  0.7427  0.6861
30974SOL     OW93499   0.561   1.572   5.409 -0.2758  0.0714  0.2993
30974SOL    HW193500   0.523   1.493   5.447 -0.9910 -0.0020 -0.5164
30974SOL    HW293501   0.642   1.587   5.458  0.9827 -2.3664 -0.9013
30975SOL     OW93502   9.938   0.391   9.983 -0.5600 -0.1526  0.2022
30975SOL    HW193503   9.967   0.414   9.895 -1.5751 -0.6382 -0.2816
30975SOL    HW293504  10.005   0.330  10.016 -0.3277 -0.1957 -0.3490
30976SOL     OW93505   0.834   7.893   9.827 -0.7605 -0.4389 -0.0352
30976SOL    HW193506   0.861   7.860   9.741 -0.6460 -1.6682  0.4645
30976SOL    HW293507   0.827   7.815   9.882  0.9209  0.4977  1.5784
30977SOL     OW93508   9.580   0.583   7.943 -0.0237  0.6702  0.1752
30977SOL    HW193509   9.560   0.511   7.883  1.1536 -0.7569  1.4228
30977SOL    HW293510   9.584   0.542   8.030 -0.7390  2.5066  1.1218
30978SOL     OW93511   4.692   6.292   5.460 -0.1915  0.4036  0.1922
30978SOL    HW193512   4.681   6.359   5.527  0.7254  0.8913 -0.1275
30978SOL    HW293513   4.609   6.245   5.459 -0.4036  0.7295  1.2906
30979SOL     OW93514   1.150   6.508   6.685 -0.4021 -0.6692 -0.4842
30979SOL    HW193515   1.065   6.493   6.726 -0.8765  1.4042 -0.5917
30979SOL    HW293516   1.129   6.521   6.592 -0.3555  2.2033 -0.1816
30980SOL     OW93517   2.550   3.301   4.233  0.2370 -0.2757 -0.4902
30980SOL    HW193518   2.528   3.357   4.307 -1.7945  0.1258 -1.3217
30980SOL    HW293519   2.593   3.225   4.272  1.5483  1.0674  0.8094
30981SOL     OW93520   6.963   8.021   8.435  0.1629  0.1428 -0.0771
30981SOL    HW193521   6.885   7.975   8.404 -0.4039 -0.6335  2.2922
30981SOL    HW293522   6.974   8.093   8.373 -2.0722 -0.0841 -0.8514
30982SOL     OW93523   5.263   9.491   1.406  0.1001 -0.1733 -0.6589
30982SOL    HW193524   5.208   9.414   1.415  0.5913 -0.2702  2.9787
30982SOL    HW293525   5.225   9.555   1.466  2.1739  0.8656 -0.3544
30983SOL     OW93526   9.311   3.633   5.701  0.0378 -0.5779 -0.2060
30983SOL    HW193527   9.374   3.564   5.683  2.4475  1.2555  0.7621
30983SOL    HW293528   9.334   3.666   5.788 -2.1209  0.3421  0.0907
30984SOL     OW93529   6.226   7.957   2.959  0.4577 -0.0015 -0.1518
30984SOL    HW193530   6.155   7.922   3.013  0.0162  0.3479 -0.4880
30984SOL    HW293531   6.182   8.021   2.903  1.0004  0.0137 -0.5579
30985SOL     OW93532   8.887   8.736   5.734 -0.5490 -0.2300 -0.4154
30985SOL    HW193533   8.926   8.648   5.734  0.5335  0.1702  1.6615
30985SOL    HW293534   8.795   8.721   5.713 -0.0789 -1.6571 -1.6686
30986SOL     OW93535   7.671   6.218   4.198  0.1634  0.3295 -0.2819
30986SOL    HW193536   7.706   6.132   4.172  1.8897  0.4515  1.4472
30986SOL    HW293537   7.581   6.201   4.223  0.3821 -0.9120 -0.2903
30987SOL     OW93538   4.401   0.456   2.193 -0.2453 -0.0020 -0.3558
30987SOL    HW193539   4.380   0.545   2.162 -0.3028  0.2801  0.4838
30987SOL    HW293540   4.490   0.464   2.228  0.2889 -0.5999 -1.5191
30988SOL     OW93541   3.641   7.535   7.597  0.2848  0.3072 -0.2127
30988SOL    HW193542   3.559   7.507   7.638  0.4356 -0.6903 -0.5630
30988SOL    HW293543   3.709   7.504   7.656  0.4354  0.5998 -0.2297
30989SOL     OW93544   4.190   9.519   4.863  0.4223 -0.1572  0.3803
30989SOL    HW193545   4.271   9.512   4.811  0.5678  1.6015  0.2968
30989SOL    HW293546   4.174   9.430   4.895  0.5831 -1.2371 -2.2648
30990SOL     OW93547   5.214   8.940   7.984 -0.1137 -0.3296  0.2813
30990SOL    HW193548   5.255   8.905   7.905  1.0914  0.2946  0.6006
30990SOL    HW293549   5.120   8.943   7.964  0.0300 -1.3935 -0.6383
30991SOL     OW93550   8.454   2.038   2.667 -0.1803  0.0241  0.1138
30991SOL    HW193551   8.491   2.126   2.653  0.0505  0.1331  1.3331
30991SOL    HW293552   8.361   2.054   2.683  0.0133  0.1365  1.1800
30992SOL     OW93553   2.858   1.347   6.018 -0.0703  0.0800 -0.1802
30992SOL    HW193554   2.800   1.282   5.978 -0.3302  0.7932 -0.9970
30992SOL    HW293555   2.891   1.398   5.944  1.4943 -0.2097  0.2771
30993SOL     OW93556   9.830   0.024   6.026 -0.1039  0.3816  0.5694
30993SOL    HW193557   9.761   0.059   5.970  1.6131 -1.4424 -3.0540
30993SOL    HW293558   9.907   0.077   6.006  0.5845 -0.3544  1.1673
30994SOL     OW93559   0.439   0.156   3.114  0.3965 -0.1031 -0.5290
30994SOL    HW193560   0.445   0.249   3.093  1.5378 -0.1447 -0.4337
30994SOL    HW293561   0.385   0.153   3.193 -0.5699  0.3727 -1.1475
30995SOL     OW93562   4.317   8.401   5.654 -0.4984 -0.1333 -0.0958
30995SOL    HW193563   4.360   8.392   5.569  0.9175 -0.8498  0.6618
30995SOL    HW293564   4.388   8.393   5.717 -1.3974  1.2458  1.1460
30996SOL     OW93565   1.166   0.228   0.517 -1.0026 -0.0900 -0.0729
30996SOL    HW193566   1.092   0.281   0.487 -1.2685  0.2530  1.1019
30996SOL    HW293567   1.126   0.157   0.566 -0.5647  0.4470  1.1093
30997SOL     OW93568   1.593   6.855   5.479  0.2122 -0.6197  0.4675
30997SOL    HW193569   1.569   6.903   5.558  0.8929 -0.3393  0.5098
30997SOL    HW293570   1.511   6.849   5.429  0.2861  1.3166  0.0624
30998SOL     OW93571   7.333   6.592   8.284 -0.1229  0.1006  0.5084
30998SOL    HW193572   7.260   6.647   8.254  0.8987  1.8534  1.1059
30998SOL    HW293573   7.335   6.605   8.379 -0.6201 -1.9995  0.8701
30999SOL     OW93574   0.149   6.933   1.836 -0.1607  0.6471 -0.3329
30999SOL    HW193575   0.086   7.005   1.832 -0.3517  0.5976  1.1712
30999SOL    HW293576   0.197   6.948   1.917 -0.7901 -1.3896  0.4650
31000SOL     OW93577   6.369   3.900   6.490 -0.1682  0.1816  0.3859
31000SOL    HW193578   6.415   3.966   6.438  2.3975 -2.3755 -0.8523
31000SOL    HW293579   6.311   3.856   6.428  1.2393 -1.3907  0.1040
31001SOL     OW93580   1.515   1.972   9.529  0.2486  0.3746 -0.5833
31001SOL    HW193581   1.489   1.882   9.548  1.2681  0.3044  0.5796
31001SOL    HW293582   1.479   2.023   9.602 -0.8418  1.0300 -1.5374
31002SOL     OW93583   7.135   0.731   0.218  0.0932  0.3719  0.4010
31002SOL    HW193584   7.110   0.667   0.152  2.3041  0.7847 -0.9136
31002SOL    HW293585   7.118   0.816   0.177  0.7625  0.6374  0.6648
31003SOL     OW93586   4.390   9.310   6.630 -0.2652 -0.1508  0.3108
31003SOL    HW193587   4.366   9.379   6.567 -0.9996 -1.5460 -0.9931
31003SOL    HW293588   4.445   9.250   6.580  1.9974  0.4137  1.9523
31004SOL     OW93589   2.790   8.878   3.126 -0.5634 -0.4046 -0.1963
31004SOL    HW193590   2.831   8.881   3.212  0.0879 -0.6164 -0.4960
31004SOL    HW293591   2.855   8.916   3.067 -0.8382 -0.6422 -0.6585
31005SOL     OW93592   5.571   1.935   6.891  0.1698 -0.1531 -0.2189
31005SOL    HW193593   5.630   1.860   6.898 -0.8965 -0.9682  0.3530
31005SOL    HW293594   5.507   1.908   6.826  0.7503  0.9684 -1.2849
31006SOL     OW93595   7.332   9.907   8.264  0.2645 -0.4813 -0.0440
31006SOL    HW193596   7.297   9.844   8.202  0.5648  1.1694 -2.0153
31006SOL    HW293597   7.414   9.937   8.225 -0.5186  2.0918  0.0362
31007SOL     OW93598   2.542   7.088   6.924 -0.4911  0.1309 -0.4543
31007SOL    HW193599   2.633   7.068   6.901 -0.7291  1.0381 -2.3730
31007SOL    HW293600   2.493   7.010   6.896 -0.4952  0.2973 -0.9166
31008SOL     OW93601   8.600   8.112   9.136 -0.0156  0.0878  0.0863
31008SOL    HW193602   8.611   8.190   9.191 -0.3307  0.0103  0.2610
31008SOL    HW293603   8.554   8.145   9.058  3.4202  0.9259 -1.8006
31009SOL     OW93604   5.716   8.299   9.647 -0.2466  0.5273  0.3472
31009SOL    HW193605   5.680   8.277   9.561 -0.2378 -0.7410  0.6492
31009SOL    HW293606   5.807   8.271   9.643  0.1257  1.6772  0.3413
31010SOL     OW93607   1.508   5.718   4.968 -0.8468  0.1184 -0.4692
31010SOL    HW193608   1.488   5.809   4.990 -1.2416 -0.1075  0.1329
31010SOL    HW293609   1.446   5.697   4.898  1.1816  1.1983 -2.7350
31011SOL     OW93610   4.075   0.295   7.050 -0.6315 -0.1966 -0.4477
31011SOL    HW193611   4.089   0.330   7.138  0.3715  0.0255 -0.6766
31011SOL    HW293612   4.162   0.265   7.023 -1.0100 -0.6343 -1.2049
31012SOL     OW93613   5.398   2.746   9.715  0.6649 -0.0393 -0.1134
31012SOL    HW193614   5.379   2.791   9.797  2.5980  0.8020 -0.0808
31012SOL    HW293615   5.376   2.654   9.733 -0.0442  0.3177  0.9466
31013SOL     OW93616   4.527   0.062   6.833 -0.4783  0.0647  0.2293
31013SOL    HW193617   4.476  -0.011   6.796  1.4238 -1.8039  1.1010
31013SOL    HW293618   4.465   0.106   6.891 -1.4220 -1.5116  0.5089
31014SOL     OW93619   1.655   8.128   6.846 -0.3324  0.0350  0.7373
31014SOL    HW193620   1.578   8.117   6.903 -0.8170  1.1068  0.3156
31014SOL    HW293621   1.654   8.050   6.791 -1.8697  0.5951 -0.1036
31015SOL     OW93622   5.713   7.780   0.563  0.5087  0.2901  0.2527
31015SOL    HW193623   5.716   7.829   0.646 -0.3030  2.1350 -0.7373
31015SOL    HW293624   5.759   7.698   0.582  0.8476  0.8953  2.3595
31016SOL     OW93625   5.268   8.429   6.813 -0.0981 -0.8293  0.5127
31016SOL    HW193626   5.188   8.383   6.836  0.3181 -0.5576  2.7452
31016SOL    HW293627   5.241   8.520   6.798 -0.2697 -0.8542  0.6844
31017SOL     OW93628   3.923   3.604   6.393  0.1575 -0.3284 -0.8273
31017SOL    HW193629   3.858   3.562   6.449 -0.5026 -1.3364 -2.3228
31017SOL    HW293630   3.933   3.692   6.431 -0.7597 -0.7444  0.4581
31018SOL     OW93631   8.987   0.746   0.151  0.1252  0.1511 -0.4949
31018SOL    HW193632   8.991   0.841   0.146 -2.3168  0.4887  1.8624
31018SOL    HW293633   8.926   0.720   0.082  0.4015  0.3205 -0.8063
31019SOL     OW93634   4.333   0.288   8.805  0.2585 -0.0510 -0.5318
31019SOL    HW193635   4.328   0.264   8.712  2.5261 -0.8114 -0.5078
31019SOL    HW293636   4.370   0.377   8.804  1.9246 -0.7081 -0.3581
31020SOL     OW93637   6.147   8.655   9.888  0.1172 -0.5779  0.2424
31020SOL    HW193638   6.087   8.600   9.938  1.5842 -1.6654  0.8774
31020SOL    HW293639   6.192   8.708   9.955 -1.0309  1.2102 -0.3283
31021SOL     OW93640   9.827   5.850   4.037 -0.2667 -0.0942 -0.5861
31021SOL    HW193641   9.773   5.850   3.958  0.4326 -0.2607 -1.0773
31021SOL    HW293642   9.905   5.901   4.012 -0.2473  0.2344  0.1399
31022SOL     OW93643   5.468   0.027   3.348  0.2308  0.6056  0.1518
31022SOL    HW193644   5.408   0.004   3.419 -0.6268  0.0732 -0.7290
31022SOL    HW293645   5.520   0.100   3.384  0.0124  0.1686  1.4173
31023SOL     OW93646   9.549   0.177   6.778  0.5512 -0.4468 -0.1225
31023SOL    HW193647   9.587   0.194   6.864  2.4122  1.2715 -1.1925
31023SOL    HW293648   9.624   0.176   6.718 -0.8361  0.4057 -1.9975
31024SOL     OW93649   9.360   1.872   3.601  0.1422 -0.2507 -0.4744
31024SOL    HW193650   9.403   1.945   3.646  0.8850 -0.6192 -0.5781
31024SOL    HW293651   9.324   1.819   3.672 -1.0821  0.6100 -0.4205
31025SOL     OW93652   7.657   7.373   8.531 -0.6820 -0.1588  0.4295
31025SOL    HW193653   7.697   7.405   8.450 -0.2457  0.4346  0.8693
31025SOL    HW293654   7.724   7.316   8.569 -0.5024  0.3219  0.8437
31026SOL     OW93655   1.360   7.275   8.285  0.2290 -0.2844 -0.3685
31026SOL    HW193656   1.431   7.298   8.225  0.0107  1.9946  0.1682
31026SOL    HW293657   1.404   7.259   8.368  0.2122  0.1479 -0.2743
31027SOL     OW93658   1.515   4.276   0.299 -0.0327  0.2084 -0.6519
31027SOL    HW193659   1.460   4.322   0.235 -2.6546 -1.1864  0.4158
31027SOL    HW293660   1.547   4.199   0.253 -1.1876 -0.3316 -0.5904
31028SOL     OW93661   2.614   7.329   4.770 -0.1424 -0.3175  0.2177
31028SOL    HW193662   2.622   7.281   4.852  1.7423 -1.6822 -0.7000
31028SOL    HW293663   2.671   7.283   4.708 -1.5178  0.6369 -1.8978
31029SOL     OW93664   4.601   0.350   2.724  0.2261  0.4362 -0.1315
31029SOL    HW193665   4.631   0.422   2.781  2.4897  1.1977 -2.1136
31029SOL    HW293666   4.676   0.291   2.719 -1.0996 -1.3591  0.2626
31030SOL     OW93667   3.988   9.092   8.035 -0.2891 -0.5551 -0.0923
31030SOL    HW193668   3.975   9.055   8.122 -1.9648  1.4331  0.6050
31030SOL    HW293669   4.075   9.132   8.038  0.0935 -1.4025  0.3035
31031SOL     OW93670   0.467   5.381   0.573  0.7626 -0.5881 -0.3737
31031SOL    HW193671   0.553   5.410   0.601  0.6684 -1.4471  0.8879
31031SOL    HW293672   0.453   5.298   0.618 -0.4283 -0.8291 -1.1235
31032SOL     OW93673   9.580   9.149   3.999 -0.1450 -0.0640  0.3132
31032SOL    HW193674   9.651   9.096   4.035  2.4473  2.1196 -1.1932
31032SOL    HW293675   9.581   9.129   3.905 -0.8189  0.7323  0.1243
31033SOL     OW93676   2.980   6.723   2.848 -0.5267  0.6940  0.0331
31033SOL    HW193677   2.993   6.813   2.876 -4.3037  1.4919 -0.1842
31033SOL    HW293678   3.013   6.720   2.758 -0.5667  1.9238 -0.0374
31034SOL     OW93679   2.524   3.194   9.778  0.4886 -0.0241 -0.0905
31034SOL    HW193680   2.470   3.214   9.855 -0.5087  1.7937 -1.1958
31034SOL    HW293681   2.598   3.255   9.784 -0.1892  0.9329 -1.1317
31035SOL     OW93682   6.667   2.437   0.501 -0.7910  0.0214  0.0307
31035SOL    HW193683   6.718   2.382   0.560 -1.8335 -0.8500  0.1700
31035SOL    HW293684   6.720   2.516   0.489  1.0203 -1.2302 -0.6189
31036SOL     OW93685   4.068   0.380   3.954  0.6115  0.1537  0.1838
31036SOL    HW193686   4.109   0.299   3.986  0.4432 -0.6650 -1.5773
31036SOL    HW293687   3.990   0.389   4.008 -0.6698 -2.2138 -1.1079
31037SOL     OW93688   9.204   4.910   9.722  0.1744 -0.2139 -0.2598
31037SOL    HW193689   9.162   4.825   9.740 -1.3590  0.5455 -0.0809
31037SOL    HW293690   9.164   4.940   9.640 -1.3700  1.5376  1.0364
31038SOL     OW93691   7.483   6.047   1.804  0.1580  0.1863  0.0752
31038SOL    HW193692   7.424   6.057   1.730  0.1358  1.1818  0.2109
31038SOL    HW293693   7.426   6.039   1.880  0.1900 -0.2985  0.0549
31039SOL     OW93694   2.287   2.220   5.614  0.1460  0.5579 -0.2770
31039SOL    HW193695   2.232   2.159   5.664 -0.4321  0.1251 -1.3835
31039SOL    HW293696   2.288   2.300   5.666 -0.1170  0.0099  0.6015
31040SOL     OW93697   7.552   3.313   3.792 -0.5061  0.6900  0.2873
31040SOL    HW193698   7.548   3.408   3.783 -1.0666  0.5301 -1.5186
31040SOL    HW293699   7.486   3.280   3.730 -1.6522 -0.8368  2.2019
31041SOL     OW93700   2.154   5.706   5.739 -0.1451 -0.2801 -0.0222
31041SOL    HW193701   2.231   5.740   5.784  0.1820 -0.1847 -0.6578
31041SOL    HW293702   2.182   5.623   5.702 -0.3403 -0.2313 -0.2791
31042SOL     OW93703   3.195   1.247   9.762  0.5333  0.2594  0.2489
31042SOL    HW193704   3.165   1.191   9.690  0.7228 -1.9187  1.7888
31042SOL    HW293705   3.274   1.289   9.728  0.6700 -0.7806 -0.7808
31043SOL     OW93706   1.783   2.673   0.471  0.2330 -0.1801  0.1893
31043SOL    HW193707   1.699   2.628   0.460  0.4962 -0.9441  1.1071
31043SOL    HW293708   1.836   2.644   0.397  0.7935 -2.3870  1.3674
31044SOL     OW93709   0.223   2.726   9.970 -0.5998  0.2799  0.8674
31044SOL    HW193710   0.305   2.772   9.951 -0.8050  0.6673  0.9163
31044SOL    HW293711   0.163   2.756   9.902 -0.9384  0.6226  1.3158
31045SOL     OW93712   7.534   6.397   5.908  0.1675  0.1458  0.1343
31045SOL    HW193713   7.522   6.331   5.975  1.5258  0.4450  0.7176
31045SOL    HW293714   7.552   6.347   5.828 -0.0602 -0.2023  0.2991
31046SOL     OW93715   1.309   0.465   4.573  0.0981  0.4553 -0.1917
31046SOL    HW193716   1.400   0.435   4.582 -0.7392 -1.6413  2.4988
31046SOL    HW293717   1.298   0.527   4.645 -0.9432 -0.3257  0.3375
31047SOL     OW93718   5.343   6.155   4.627 -0.0980 -0.2587 -0.0996
31047SOL    HW193719   5.341   6.162   4.531 -1.1959 -1.6270 -0.2096
31047SOL    HW293720   5.286   6.224   4.657  1.2864  1.0471 -0.3341
31048SOL     OW93721   8.594   3.702   8.507  0.1284 -0.7602 -0.5446
31048SOL    HW193722   8.680   3.744   8.511 -0.0839 -0.3975  0.3629
31048SOL    HW293723   8.538   3.755   8.564 -0.6040 -1.2137 -0.8252
31049SOL     OW93724   6.889   6.883   1.934  0.0494 -0.1403  0.2239
31049SOL    HW193725   6.880   6.804   1.881  1.2603 -0.1023 -0.0652
31049SOL    HW293726   6.948   6.858   2.004 -0.0712  0.3394  0.4994
31050SOL     OW93727   9.102   0.165   8.389  0.2762  0.0948  0.1499
31050SOL    HW193728   9.180   0.109   8.390  0.0843 -0.1812  1.7890
31050SOL    HW293729   9.098   0.198   8.299  2.6462  0.6134  0.1679
31051SOL     OW93730   0.848   6.428   1.199  0.2240  0.1347 -0.0110
31051SOL    HW193731   0.789   6.456   1.269 -0.2743  0.0847 -0.4000
31051SOL    HW293732   0.931   6.411   1.243 -0.2389 -0.4670  0.6625
31052SOL     OW93733   5.320   1.521   6.178  0.5183  0.1217 -0.0368
31052SOL    HW193734   5.372   1.465   6.120  0.2088 -1.1092  0.8230
31052SOL    HW293735   5.235   1.478   6.183 -0.2985  1.6055 -0.6888
31053SOL     OW93736   0.892   3.443   9.292 -0.0482 -0.7114 -0.1122
31053SOL    HW193737   0.976   3.408   9.263  1.6928  3.1088 -0.3444
31053SOL    HW293738   0.913   3.493   9.371 -2.6123 -1.6129  1.2448
31054SOL     OW93739   2.527   0.922   1.564  0.1683 -0.1241  0.5033
31054SOL    HW193740   2.446   0.966   1.589  0.6131  0.2616  1.2830
31054SOL    HW293741   2.498   0.840   1.523 -0.5893 -0.4490  1.6570
31055SOL     OW93742   8.628   8.266   6.366 -0.4127  0.0192 -0.2320
31055SOL    HW193743   8.642   8.302   6.278 -0.6890 -0.2183 -0.3733
31055SOL    HW293744   8.692   8.312   6.421  0.4941 -0.5760 -0.7483
31056SOL     OW93745   6.246   8.024   0.586  0.3051 -0.4230 -0.2452
31056SOL    HW193746   6.203   7.954   0.634  0.8894 -0.6863 -0.0899
31056SOL    HW293747   6.318   7.981   0.540  1.1739  0.1946  0.4996
31057SOL     OW93748   5.407   1.809   0.633  0.1124 -0.0343 -0.4275
31057SOL    HW193749   5.323   1.828   0.592  0.4001  0.9331 -0.5791
31057SOL    HW293750   5.388   1.737   0.693 -0.8523  0.2593 -0.3610
31058SOL     OW93751   6.958   5.451   1.428  0.0413 -0.1832 -0.3403
31058SOL    HW193752   7.045   5.434   1.393  0.5507 -0.3964  0.9896
31058SOL    HW293753   6.905   5.474   1.351  1.4796  0.8776 -1.0533
31059SOL     OW93754   7.468   9.268   0.253  0.0123  0.0444 -0.5386
31059SOL    HW193755   7.532   9.328   0.214  0.3971 -0.1665 -0.2496
31059SOL    HW293756   7.405   9.325   0.297  0.8561  0.2402  0.4836
31060SOL     OW93757   4.151   7.057   1.493  0.7253 -0.4029 -0.1038
31060SOL    HW193758   4.177   6.980   1.442  0.9827  0.5625 -1.4913
31060SOL    HW293759   4.089   7.103   1.437  0.1614  0.1373  0.9343
31061SOL     OW93760   4.121   8.962   7.489 -0.1438 -0.4499 -0.6424
31061SOL    HW193761   4.160   9.047   7.469  0.3997 -0.4628  0.3095
31061SOL    HW293762   4.093   8.928   7.404  0.7515  0.1370 -1.1924
31062SOL     OW93763   8.992   7.396   5.818 -0.5329  0.0167  0.0644
31062SOL    HW193764   8.966   7.421   5.730 -1.1504 -0.1996  0.1842
31062SOL    HW293765   8.920   7.343   5.851 -0.3906  0.2430  0.7677
31063SOL     OW93766   6.384   7.898   6.439 -0.2855  0.1380  0.0720
31063SOL    HW193767   6.428   7.815   6.452 -1.7854 -0.7797 -0.4851
31063SOL    HW293768   6.312   7.897   6.502 -1.7065 -0.0391 -1.4993
31064SOL     OW93769   9.770   3.584   5.562 -0.4452 -0.1404 -0.3676
31064SOL    HW193770   9.794   3.522   5.631 -2.0214 -1.0710 -0.6076
31064SOL    HW293771   9.827   3.659   5.576 -1.4087  0.1696  2.6353
31065SOL     OW93772   7.573   6.367   8.964  0.2662 -0.3711 -0.5187
31065SOL    HW193773   7.511   6.394   8.897  0.4380  4.2430  0.8678
31065SOL    HW293774   7.520   6.351   9.042  0.5117  1.2179  0.0186
31066SOL     OW93775   6.234   9.104   7.691  0.4094  0.1972  0.5186
31066SOL    HW193776   6.269   9.027   7.645  1.5850  1.1888 -0.2915
31066SOL    HW293777   6.309   9.162   7.701 -0.7372  1.8532 -0.1395
31067SOL     OW93778   0.604   0.357   0.792  0.5901 -0.2485 -0.4399
31067SOL    HW193779   0.624   0.388   0.881 -2.1582 -1.8919  0.8808
31067SOL    HW293780   0.655   0.277   0.782  2.0536  0.7203 -0.9816
31068SOL     OW93781   1.826   7.959   4.736  0.1092 -0.1238  0.5048
31068SOL    HW193782   1.765   7.907   4.788 -3.4740  1.8613 -1.3249
31068SOL    HW293783   1.842   8.037   4.790  1.6083 -0.9025  1.2323
31069SOL     OW93784   8.917   4.281   8.425  0.7058  0.0203 -0.0305
31069SOL    HW193785   8.941   4.189   8.415  1.8432  0.1157  1.4855
31069SOL    HW293786   8.966   4.326   8.356 -0.5826 -0.5743 -1.3901
31070SOL     OW93787   4.197   5.690   5.053 -0.4072  0.2316 -0.5102
31070SOL    HW193788   4.170   5.622   5.115  0.4511  0.8994  0.6318
31070SOL    HW293789   4.118   5.711   5.004 -1.1138 -0.3215  0.3669
31071SOL     OW93790   8.810   9.183   4.727  0.0077 -0.2346 -0.3236
31071SOL    HW193791   8.875   9.118   4.752 -0.8825 -1.1559 -0.3318
31071SOL    HW293792   8.789   9.163   4.636 -0.1897  0.1384 -0.3629
31072SOL     OW93793   5.974   9.099   2.485  0.5693  0.1378 -0.4222
31072SOL    HW193794   5.947   9.155   2.413 -0.3904  1.1806  0.7005
31072SOL    HW293795   6.068   9.115   2.495  0.2491  1.9418  0.1531
31073SOL     OW93796   7.676   6.280   5.102 -0.4110  0.0209  0.1550
31073SOL    HW193797   7.758   6.295   5.149  0.2606  0.0235 -0.9931
31073SOL    HW293798   7.676   6.344   5.031 -1.1636 -0.3183 -0.1677
31074SOL     OW93799   8.623   2.407   1.064  0.3485 -0.4452 -0.1523
31074SOL    HW193800   8.656   2.493   1.089  0.4448 -0.7081  0.6706
31074SOL    HW293801   8.527   2.417   1.067  0.3388  0.0204 -1.4826
31075SOL     OW93802   4.493   2.685   3.038 -0.2280 -0.6646 -0.7806
31075SOL    HW193803   4.521   2.626   2.968  0.9410 -0.1107 -0.8126
31075SOL    HW293804   4.501   2.772   3.000 -0.2309 -0.3967 -0.1733
31076SOL     OW93805   5.941   3.144   8.734  0.1534 -0.9163 -0.0435
31076SOL    HW193806   5.909   3.067   8.688  0.2434 -1.6374  1.0517
31076SOL    HW293807   6.034   3.126   8.748  0.3243 -0.3022 -0.3558
31077SOL     OW93808   5.085   1.910   2.289  0.3641 -0.0701  0.1748
31077SOL    HW193809   5.145   1.920   2.363  1.1292 -0.4044 -0.3968
31077SOL    HW293810   5.128   1.955   2.217 -1.0313  1.5030  0.2621
31078SOL     OW93811   5.870   0.105   3.386 -0.1568 -0.5681 -0.1953
31078SOL    HW193812   5.793   0.149   3.421  0.7884 -0.1012  1.4077
31078SOL    HW293813   5.926   0.176   3.355 -0.5036 -0.9243 -1.7075
31079SOL     OW93814   1.562   9.575   7.572  0.4278  0.8760  0.3559
31079SOL    HW193815   1.482   9.581   7.520  0.0449 -1.7473  0.5169
31079SOL    HW293816   1.588   9.666   7.586 -2.5182  1.8353  0.3313
31080SOL     OW93817   2.745   2.937   2.477 -0.0850  0.0655 -0.0583
31080SOL    HW193818   2.718   2.846   2.488 -2.1933  0.5118 -1.0149
31080SOL    HW293819   2.668   2.988   2.502  0.3939  1.5129 -1.3610
31081SOL     OW93820   1.559   6.895   9.631  0.5810 -1.0274  0.3616
31081SOL    HW193821   1.492   6.960   9.610 -0.7832 -2.4321  0.1708
31081SOL    HW293822   1.539   6.869   9.721  1.8110 -0.3853  0.8327
31082SOL     OW93823   9.088   7.899   9.018 -0.0366 -0.3422 -0.0942
31082SOL    HW193824   9.083   7.938   9.105 -0.4858 -1.3008  0.3266
31082SOL    HW293825   8.997   7.893   8.989 -0.0080 -1.3495 -0.0110
31083SOL     OW93826   0.376   1.700   6.201 -0.3010 -0.7877  0.4889
31083SOL    HW193827   0.444   1.707   6.269  0.3852 -0.0503 -0.2464
31083SOL    HW293828   0.322   1.626   6.229 -0.2155 -0.3253  1.9953
31084SOL     OW93829   1.799   0.561   2.108  0.2984  0.5679 -0.0641
31084SOL    HW193830   1.819   0.643   2.063 -0.1398  0.4289 -0.5197
31084SOL    HW293831   1.882   0.513   2.108  1.5108  2.3521  3.1785
31085SOL     OW93832   1.774   3.902   9.463 -0.3656 -0.1730  0.0443
31085SOL    HW193833   1.831   3.830   9.437 -2.8149 -1.1105 -3.4041
31085SOL    HW293834   1.691   3.860   9.487 -1.8149  1.3641 -1.9114
31086SOL     OW93835   6.479   6.692   4.740 -0.3873 -0.2950  0.2437
31086SOL    HW193836   6.424   6.744   4.798 -0.1551 -1.6576  1.7605
31086SOL    HW293837   6.568   6.723   4.759 -0.2276 -1.3317  1.3116
31087SOL     OW93838   9.638   6.492   2.363 -0.2842 -0.1825 -0.2337
31087SOL    HW193839   9.584   6.568   2.342 -1.1993 -0.7009  0.1990
31087SOL    HW293840   9.580   6.417   2.349  0.1463 -0.7221  0.8144
31088SOL     OW93841   6.067   1.868   6.079 -0.4336  0.0338  0.0679
31088SOL    HW193842   5.978   1.842   6.056 -0.0719 -1.1091 -0.0982
31088SOL    HW293843   6.098   1.798   6.138 -0.9045  2.2102  3.1294
31089SOL     OW93844   7.653   3.047   2.600  0.3874  0.3194  0.1177
31089SOL    HW193845   7.694   2.998   2.529 -0.1424  0.8667 -0.5954
31089SOL    HW293846   7.655   3.138   2.570 -1.0990  0.3915  0.1553
31090SOL     OW93847   9.153   9.018   3.271  0.1084 -0.5891  0.1111
31090SOL    HW193848   9.074   9.032   3.218 -0.3840  2.0303  1.4055
31090SOL    HW293849   9.218   8.986   3.209 -1.0640  0.2749 -1.6404
31091SOL     OW93850   8.542   3.375   5.720  0.6046 -0.5146 -0.3054
31091SOL    HW193851   8.620   3.403   5.672  1.3769 -3.0058 -0.6271
31091SOL    HW293852   8.528   3.285   5.692 -1.3689 -0.6974  1.0977
31092SOL     OW93853   2.045   4.000   1.411  0.2559  0.0984  0.1979
31092SOL    HW193854   2.052   4.080   1.463 -1.0671  0.2603  0.1531
31092SOL    HW293855   2.062   3.929   1.473  0.0098  0.3515  0.5582
31093SOL     OW93856   6.117   6.779   6.175 -0.0786  0.4462 -0.2382
31093SOL    HW193857   6.120   6.773   6.270  2.7786  0.9319 -0.2135
31093SOL    HW293858   6.127   6.872   6.156  0.7389  0.2278 -0.9888
31094SOL     OW93859   4.245   0.891   2.522 -0.0468  0.2420 -0.4271
31094SOL    HW193860   4.266   0.938   2.442  0.3777  0.5073 -0.1578
31094SOL    HW293861   4.328   0.853   2.550  0.2209  1.7830  0.9599
31095SOL     OW93862   4.584   3.090   2.011 -0.0933  0.5771  0.2714
31095SOL    HW193863   4.591   3.116   2.103 -1.6002  2.1105 -0.0010
31095SOL    HW293864   4.495   3.057   2.003  0.2279 -0.1196 -0.5231
31096SOL     OW93865   8.263   9.260   2.586 -0.1817  0.0715 -0.1855
31096SOL    HW193866   8.186   9.318   2.584 -0.4076 -0.2327 -0.3994
31096SOL    HW293867   8.327   9.308   2.638  0.6269  1.7393 -2.5420
31097SOL     OW93868   5.371   0.663   2.742 -0.2180  0.0873  0.0030
31097SOL    HW193869   5.399   0.592   2.799 -2.4870 -1.7100 -0.9333
31097SOL    HW293870   5.291   0.698   2.782  0.6353  1.9018  0.2358
31098SOL     OW93871   6.474   5.556   1.083 -0.1145  0.0865  0.4812
31098SOL    HW193872   6.561   5.520   1.068 -0.4647 -0.6170  0.1374
31098SOL    HW293873   6.490   5.645   1.115  0.7449  1.8336 -4.0295
31099SOL     OW93874   7.543   8.558   6.051 -0.0408 -0.0040 -0.1170
31099SOL    HW193875   7.597   8.483   6.075 -2.9077 -2.3574 -0.4299
31099SOL    HW293876   7.501   8.583   6.133 -0.1330  0.3561 -0.2745
31100SOL     OW93877   4.208   7.122   4.270 -0.0257 -0.9352 -0.1261
31100SOL    HW193878   4.119   7.151   4.247 -0.7159 -2.9459 -0.2173
31100SOL    HW293879   4.264   7.157   4.202 -1.1275 -1.5447 -1.3919
31101SOL     OW93880   9.485   6.631   1.086  0.5063  0.0523  0.1711
31101SOL    HW193881   9.514   6.652   0.997 -1.3107 -0.2173 -0.5142
31101SOL    HW293882   9.531   6.694   1.141 -0.7516  2.4071 -1.2883
31102SOL     OW93883   4.052   7.671   6.728 -0.6427  0.1137 -0.7813
31102SOL    HW193884   4.071   7.733   6.658 -0.2746 -1.8033 -2.4543
31102SOL    HW293885   3.965   7.638   6.709 -0.6021 -0.3227 -0.2359
31103SOL     OW93886   6.086   0.493   8.423 -0.3882 -0.8649 -0.1914
31103SOL    HW193887   5.998   0.530   8.410 -0.9886 -1.8697  0.8056
31103SOL    HW293888   6.070   0.400   8.442  0.6960 -0.6671  2.0767
31104SOL     OW93889   2.607   1.001   9.528  0.2646 -0.1803 -0.4702
31104SOL    HW193890   2.551   0.931   9.562 -1.2417  1.9896  1.9853
31104SOL    HW293891   2.644   1.042   9.607  0.7748  1.9874 -1.7468
31105SOL     OW93892   6.447   3.021   1.765 -0.0393  0.3856  0.0224
31105SOL    HW193893   6.522   3.070   1.732  0.9324 -0.0347  1.4979
31105SOL    HW293894   6.394   3.002   1.688  1.3171  0.7815 -1.0316
31106SOL     OW93895   7.004   0.638   6.185 -0.1581 -0.0048  0.2214
31106SOL    HW193896   6.981   0.646   6.092 -1.5555  0.1104  0.5567
31106SOL    HW293897   7.077   0.577   6.186  1.4235  1.7522 -1.1400
31107SOL     OW93898   5.655   2.499   2.944 -0.2395 -0.3173  0.4259
31107SOL    HW193899   5.577   2.444   2.938 -0.8896  0.4543  1.4639
31107SOL    HW293900   5.625   2.587   2.919  0.0859  0.1464  1.5690
31108SOL     OW93901   9.253   0.448   5.373 -0.2140  0.1093  0.0413
31108SOL    HW193902   9.254   0.440   5.469 -0.0725 -1.2277 -0.0511
31108SOL    HW293903   9.332   0.496   5.352  1.1524 -1.8646  0.4459
31109SOL     OW93904   1.202   6.047   6.326 -0.2149 -0.1875 -0.0712
31109SOL    HW193905   1.283   5.997   6.337 -0.1456  0.2811  1.9090
31109SOL    HW293906   1.231   6.133   6.297 -0.0924 -0.2953 -0.2764
31110SOL     OW93907   0.447   5.514   2.576  0.1735 -0.3934  0.3830
31110SOL    HW193908   0.513   5.553   2.633 -0.2404 -0.0145  0.6087
31110SOL    HW293909   0.365   5.526   2.623 -0.0175 -1.1661  0.2625
31111SOL     OW93910   8.377   3.715   2.508  0.3843  0.3455  0.5053
31111SOL    HW193911   8.316   3.714   2.434  0.9241  0.3529  0.0517
31111SOL    HW293912   8.432   3.637   2.495 -0.7310 -0.7298  1.9504
31112SOL     OW93913   3.297   6.019   2.030 -0.2264  0.4193 -0.1769
31112SOL    HW193914   3.294   6.064   2.114  2.1642  0.7551 -0.1907
31112SOL    HW293915   3.331   5.932   2.050 -2.2764 -0.5188 -0.5023
31113SOL     OW93916   4.844   9.714   9.111  0.4278 -0.4797  0.4936
31113SOL    HW193917   4.753   9.698   9.085  0.1270 -1.2681  1.9383
31113SOL    HW293918   4.839   9.730   9.206  1.9115 -1.6310  0.7887
31114SOL     OW93919   3.021   3.757   5.741  0.3622 -0.0542  0.4337
31114SOL    HW193920   3.054   3.792   5.659 -0.7906 -0.4089 -0.1983
31114SOL    HW293921   3.082   3.790   5.807  1.4742 -0.0064 -0.5768
31115SOL     OW93922   8.554   8.881   0.462  0.0902 -0.4045 -0.3877
31115SOL    HW193923   8.498   8.925   0.398  0.5982  0.3509 -0.3182
31115SOL    HW293924   8.638   8.871   0.418  0.3591 -0.1365  0.0602
31116SOL     OW93925   8.767   7.205   5.893  0.0482  0.1438  0.1016
31116SOL    HW193926   8.779   7.165   5.979 -0.9900 -0.3538  0.0204
31116SOL    HW293927   8.782   7.134   5.831 -1.8662 -0.1892 -0.0420
31117SOL     OW93928   9.930   3.688   0.997 -0.2050  0.3764  0.4044
31117SOL    HW193929   9.965   3.739   1.069 -1.2000  0.5112  0.8185
31117SOL    HW293930   9.948   3.597   1.022 -2.1841  0.2954  1.7941
31118SOL     OW93931   5.927   2.934   3.222  0.2987  0.0358 -0.4406
31118SOL    HW193932   6.015   2.912   3.193  1.0780  0.6644  1.3280
31118SOL    HW293933   5.874   2.858   3.197  2.0691 -2.0536  1.7548
31119SOL     OW93934   6.598   2.429   8.151 -0.4860  0.5447  0.0045
31119SOL    HW193935   6.521   2.383   8.183  0.4323  0.4211  2.1749
31119SOL    HW293936   6.574   2.521   8.154 -0.4634  0.5287  0.9822
31120SOL     OW93937   3.130   2.097   8.703  0.0687 -0.2573 -0.1938
31120SOL    HW193938   3.111   2.088   8.609 -0.5472  1.4505 -0.2706
31120SOL    HW293939   3.052   2.137   8.740  1.5116  2.1805  0.4230
31121SOL     OW93940   3.199   3.125   0.280 -0.5085 -0.4185  0.0181
31121SOL    HW193941   3.230   3.192   0.340 -1.5989  0.9804 -0.9214
31121SOL    HW293942   3.228   3.153   0.194 -2.8006  0.0500 -0.6667
31122SOL     OW93943   6.162   1.939   3.113 -0.1599 -0.0200 -0.3520
31122SOL    HW193944   6.117   1.999   3.053  0.0779  2.5468  1.8348
31122SOL    HW293945   6.232   1.900   3.061 -0.4418  1.4682 -1.9315
31123SOL     OW93946   4.989   4.633   3.166  0.8331 -0.5512  0.2338
31123SOL    HW193947   4.988   4.549   3.210  0.1510 -0.3582  0.6171
31123SOL    HW293948   4.941   4.691   3.225  0.6378 -0.0815 -0.3740
31124SOL     OW93949   2.797   7.827   1.250 -0.3184 -0.3368 -0.1868
31124SOL    HW193950   2.713   7.795   1.282 -0.0572 -1.8868 -0.9262
31124SOL    HW293951   2.858   7.755   1.265  0.4001 -0.0698 -1.5749
31125SOL     OW93952   3.309   3.593   2.603  0.3766  0.4531  0.2958
31125SOL    HW193953   3.256   3.589   2.683 -0.4342  0.7019 -0.2296
31125SOL    HW293954   3.372   3.663   2.619  0.0594  0.6635  0.6174
31126SOL     OW93955   8.815   5.825   8.934  0.4331 -0.0453 -0.0966
31126SOL    HW193956   8.811   5.906   8.985  0.7108 -0.4264  0.5416
31126SOL    HW293957   8.814   5.755   9.000  2.8285 -0.5112 -0.4643
31127SOL     OW93958   5.948   7.204   7.235  0.4521  0.1855 -0.3678
31127SOL    HW193959   5.939   7.178   7.326  0.4385 -0.7854 -0.6337
31127SOL    HW293960   6.038   7.178   7.212  0.5248  0.6109 -0.5709
31128SOL     OW93961   9.985   4.758   5.052  0.2740  0.2189  0.1387
31128SOL    HW193962   9.944   4.697   4.991  0.2705 -0.0929  0.4488
31128SOL    HW293963   9.915   4.819   5.076 -0.2738 -0.8429  1.3561
31129SOL     OW93964   6.619   7.137   8.453 -0.4463  0.5963  0.0010
31129SOL    HW193965   6.704   7.159   8.491 -0.2379  0.7482 -0.5429
31129SOL    HW293966   6.610   7.043   8.468 -0.2783  0.6184  0.2475
31130SOL     OW93967   7.827   0.034   3.308 -0.4771  0.0532  0.0666
31130SOL    HW193968   7.911   0.058   3.347 -0.8697  3.8952 -1.1087
31130SOL    HW293969   7.766   0.031   3.383 -0.1259  1.7552  0.4611
31131SOL     OW93970   0.309   0.581   9.699 -0.3371 -0.6249  0.1636
31131SOL    HW193971   0.351   0.545   9.621 -0.8945  1.9282 -1.4266
31131SOL    HW293972   0.381   0.612   9.753  0.0662 -2.6083  0.8334
31132SOL     OW93973   0.857   0.271   3.950 -0.7832  0.1173  0.3074
31132SOL    HW193974   0.823   0.346   3.999  0.7980  1.3418 -0.4037
31132SOL    HW293975   0.843   0.293   3.858 -1.4944 -1.0741  0.0985
31133SOL     OW93976   7.647   5.428   1.692  0.0319  0.2507  0.5359
31133SOL    HW193977   7.711   5.363   1.663 -2.2333 -1.7110 -0.3988
31133SOL    HW293978   7.647   5.494   1.624  1.2088  0.4118  0.6741
31134SOL     OW93979   6.236   9.432   8.762 -0.4448 -0.1697 -0.1955
31134SOL    HW193980   6.249   9.454   8.669  1.1198 -0.5531 -0.1005
31134SOL    HW293981   6.245   9.516   8.808 -0.8178 -0.0437 -0.3478
31135SOL     OW93982   6.480   2.931   9.734 -0.2956  0.0578  0.2394
31135SOL    HW193983   6.494   2.853   9.788  1.5507 -0.0338 -0.3029
31135SOL    HW293984   6.387   2.929   9.713 -0.3160 -1.9609  0.3040
31136SOL     OW93985   6.022   3.267   1.015  0.4827  0.5529 -0.3277
31136SOL    HW193986   6.080   3.281   0.941  0.8400  0.7586 -0.0125
31136SOL    HW293987   6.057   3.323   1.084  1.3925 -1.1911  0.6794
31137SOL     OW93988   3.443   1.983   3.523 -0.4644 -0.6809  0.1435
31137SOL    HW193989   3.348   1.973   3.530 -0.3421 -0.9007  1.9129
31137SOL    HW293990   3.478   1.896   3.540  0.1083 -0.1945  1.6282
31138SOL     OW93991   1.112   5.806   1.559 -0.1880 -0.0942  0.7890
31138SOL    HW193992   1.125   5.796   1.653 -2.1292  2.2112  1.4215
31138SOL    HW293993   1.124   5.900   1.544  0.8713 -0.5302 -1.4555
31139SOL     OW93994   9.385   7.213   0.201  0.3863  0.4467  0.2184
31139SOL    HW193995   9.480   7.206   0.185  0.4355  2.5865 -0.8281
31139SOL    HW293996   9.375   7.294   0.250 -0.9518  0.4264  0.0066
31140SOL     OW93997   6.084   4.151   4.622  0.1080 -0.3138 -0.1111
31140SOL    HW193998   6.177   4.170   4.627  0.3599 -1.6312  1.1209
31140SOL    HW293999   6.054   4.154   4.713 -1.1240  0.3895 -0.5194
31141SOL     OW94000   7.170   0.536   1.897  0.1840 -0.1285 -0.0377
31141SOL    HW194001   7.120   0.456   1.878  2.3178 -2.1492  2.0198
31141SOL    HW294002   7.127   0.573   1.974  1.1981 -1.3657  1.1825
31142SOL     OW94003   1.123   6.218   2.030  0.0046 -0.4698 -0.9164
31142SOL    HW194004   1.042   6.264   2.009 -0.0454  0.4553  1.0558
31142SOL    HW294005   1.191   6.269   1.986 -0.3775 -0.6448 -1.7257
31143SOL     OW94006   0.909   4.243   7.938 -0.0180  0.3401 -0.1244
31143SOL    HW194007   0.818   4.263   7.961 -0.1897 -0.8340  0.3044
31143SOL    HW294008   0.905   4.220   7.845 -0.1203  0.5108 -0.1625
31144SOL     OW94009   8.720   9.074   3.627  0.5772 -0.0876 -0.1405
31144SOL    HW194010   8.813   9.099   3.622  1.2388 -2.2026  0.4072
31144SOL    HW294011   8.700   9.075   3.721  0.7575 -1.8840 -0.0567
31145SOL     OW94012   8.336   1.207   0.590 -0.0009 -0.1595  0.1434
31145SOL    HW194013   8.372   1.121   0.609 -0.7693 -0.6116 -0.4084
31145SOL    HW294014   8.242   1.199   0.610  0.1113  0.8741  1.1642
31146SOL     OW94015   1.509   8.926   4.144 -0.1040 -0.2010  0.1255
31146SOL    HW194016   1.504   8.993   4.076 -2.0495  0.5164  0.9055
31146SOL    HW294017   1.548   8.850   4.100  0.0962  0.7305 -1.3653
31147SOL     OW94018   9.312   9.432   2.430 -0.1401 -0.8099 -0.0040
31147SOL    HW194019   9.235   9.405   2.480 -0.1802  0.7215  0.8237
31147SOL    HW294020   9.277   9.481   2.356  0.0231 -0.1728  0.3346
31148SOL     OW94021   9.498   2.248   4.770  0.3780  0.4630  0.2652
31148SOL    HW194022   9.516   2.183   4.702 -3.6483 -0.4777 -0.1156
31148SOL    HW294023   9.538   2.328   4.737  2.4248 -0.9643 -0.9511
31149SOL     OW94024   2.220   3.607   4.237 -0.3874 -0.0116 -0.3471
31149SOL    HW194025   2.299   3.565   4.202 -0.5628 -0.1012 -0.6281
31149SOL    HW294026   2.172   3.638   4.161 -1.5816 -1.6368 -0.3073
31150SOL     OW94027   5.174   8.287   5.126  0.0049 -0.8842 -0.6232
31150SOL    HW194028   5.231   8.361   5.101 -0.3676 -0.1618  0.5815
31150SOL    HW294029   5.217   8.249   5.203 -1.3417 -0.0450  0.5868
31151SOL     OW94030   0.996   7.327   9.102  0.2084 -0.2926 -0.0291
31151SOL    HW194031   0.904   7.332   9.079 -0.1939  0.1259  1.5361
31151SOL    HW294032   1.041   7.308   9.020 -0.9599  2.2528 -1.3550
31152SOL     OW94033   3.111   4.082   4.073 -0.0218 -0.1926  0.9945
31152SOL    HW194034   3.080   4.029   3.999 -0.9437  1.2310  0.3291
31152SOL    HW294035   3.047   4.153   4.081  0.5055  0.1545  2.6580
31153SOL     OW94036   6.146   0.765   6.588 -0.2586  0.0389 -0.0141
31153SOL    HW194037   6.162   0.855   6.616  0.3031 -0.4620  1.4022
31153SOL    HW294038   6.119   0.720   6.668 -0.4645 -1.0722 -0.6855
31154SOL     OW94039   0.608   8.224   9.055 -0.5584 -0.1423  0.0961
31154SOL    HW194040   0.665   8.247   8.982  2.4105 -1.2790  1.8696
31154SOL    HW294041   0.620   8.130   9.066 -3.8989 -0.7289 -0.1954
31155SOL     OW94042   7.097   9.498   8.668  0.4577 -0.7177 -1.1285
31155SOL    HW194043   7.109   9.403   8.665  1.5350 -0.5960 -1.1704
31155SOL    HW294044   7.175   9.530   8.714 -0.2481  0.0890 -0.4739
31156SOL     OW94045   2.406   3.009   0.331 -0.0292  0.1818  0.3852
31156SOL    HW194046   2.414   3.020   0.236  1.4996 -1.0938  0.3417
31156SOL    HW294047   2.458   3.080   0.368  0.1616  0.1018  0.2674
31157SOL     OW94048   1.574   7.180   7.435 -0.2633  0.4330  0.2805
31157SOL    HW194049   1.646   7.200   7.495 -0.0451 -0.8839  0.4765
31157SOL    HW294050   1.616   7.136   7.361 -0.8559 -0.3821  0.4147
31158SOL     OW94051   4.104   4.937   9.273 -0.4745 -0.1388 -0.1060
31158SOL    HW194052   4.110   4.972   9.362  1.3282  1.3619 -0.7502
31158SOL    HW294053   4.076   5.010   9.219 -0.2344 -0.6550 -0.9613
31159SOL     OW94054   3.438   6.613   8.256  0.0964 -0.3744 -0.0727
31159SOL    HW194055   3.474   6.552   8.321 -0.5512 -0.1778  0.4872
31159SOL    HW294056   3.467   6.578   8.172  1.7578 -0.1029  0.3475
31160SOL     OW94057   1.186   0.911   2.072 -0.0342 -0.3674 -0.1152
31160SOL    HW194058   1.221   0.824   2.090  0.1720 -0.2827 -0.1076
31160SOL    HW294059   1.093   0.905   2.097  0.4758  0.0562  2.1165
31161SOL     OW94060   2.998   5.311   2.463  0.2247 -0.6292  0.2475
31161SOL    HW194061   2.986   5.217   2.459 -1.1557 -0.7186  3.6146
31161SOL    HW294062   2.941   5.345   2.394 -0.1548 -2.1853 -0.2467
31162SOL     OW94063   1.227   0.438   6.752  0.1882  0.0404  0.4521
31162SOL    HW194064   1.232   0.393   6.668  2.7973  1.4964 -0.2818
31162SOL    HW294065   1.166   0.510   6.737  0.0109 -0.1834  0.0855
31163SOL     OW94066   3.131   4.278   3.013  0.5322  0.2692  0.2149
31163SOL    HW194067   3.116   4.315   2.926 -0.1386  1.6519  0.9050
31163SOL    HW294068   3.226   4.280   3.024  0.7950 -1.5695 -1.1610
31164SOL     OW94069   0.242   7.771   9.250  0.1786  0.6243 -0.0003
31164SOL    HW194070   0.179   7.700   9.240 -1.3569  1.3376  3.1820
31164SOL    HW294071   0.218   7.835   9.183 -1.9119  0.4146  0.4754
31165SOL     OW94072   7.098   3.772   1.200  0.2100 -0.4799  0.3154
31165SOL    HW194073   7.105   3.843   1.137  0.7525 -1.7103 -1.0799
31165SOL    HW294074   7.182   3.771   1.246 -0.6336  1.2034  1.9847
31166SOL     OW94075   4.807   2.739   8.875  0.2745  0.0772  0.1127
31166SOL    HW194076   4.807   2.715   8.967 -1.0207 -1.2292 -0.1919
31166SOL    HW294077   4.864   2.816   8.870  0.0993  0.3739  2.0335
31167SOL     OW94078   9.957   5.732   8.206 -0.2356 -0.5210 -0.6471
31167SOL    HW194079   9.995   5.814   8.236 -0.1903 -0.7449 -0.0659
31167SOL    HW294080   9.893   5.710   8.273  0.0331 -1.1589 -0.5902
31168SOL     OW94081   3.761   0.336   6.776 -0.4667  0.0907  0.2515
31168SOL    HW194082   3.762   0.247   6.740 -0.5334 -0.5763  1.8259
31168SOL    HW294083   3.735   0.391   6.702 -1.7118 -1.3443 -0.4498
31169SOL     OW94084   7.997   7.873   9.318 -0.1589 -0.3850  0.4492
31169SOL    HW194085   8.052   7.914   9.384  1.0246  0.5110 -1.0419
31169SOL    HW294086   8.043   7.792   9.295  1.0507  0.7614 -1.3882
31170SOL     OW94087   1.609   4.802   5.043 -0.1345 -0.2546  0.1140
31170SOL    HW194088   1.691   4.783   4.996 -0.6927  0.0059 -1.0187
31170SOL    HW294089   1.541   4.763   4.989 -0.8380  0.3554  0.5397
31171SOL     OW94090   7.858   6.567   2.877 -0.1687 -0.2832  0.2798
31171SOL    HW194091   7.906   6.543   2.799 -0.7157 -0.1108 -0.1207
31171SOL    HW294092   7.821   6.485   2.910 -1.3585 -0.1325 -0.6225
31172SOL     OW94093   2.718   8.091   1.207 -0.0282  0.4817  0.8551
31172SOL    HW194094   2.632   8.057   1.232  0.2513  0.6131  2.0403
31172SOL    HW294095   2.780   8.038   1.257  0.5248  1.1602  0.9063
31173SOL     OW94096   3.261   7.515   1.818 -0.3696  0.4267 -0.2445
31173SOL    HW194097   3.294   7.596   1.857 -0.2531 -0.4848  1.6189
31173SOL    HW294098   3.333   7.452   1.827  0.4889  0.6682 -3.8663
31174SOL     OW94099   3.356   7.495   8.566  0.1494 -0.0466 -0.4927
31174SOL    HW194100   3.403   7.568   8.606  1.1828 -1.1266  0.3400
31174SOL    HW294101   3.263   7.518   8.575  0.4524  2.1872 -2.2958
31175SOL     OW94102   8.076   5.254   3.457 -0.0843 -0.1214 -0.3486
31175SOL    HW194103   8.080   5.213   3.371  1.4691 -0.9019  0.0750
31175SOL    HW294104   8.002   5.212   3.501 -0.2612 -0.4217 -0.9298
31176SOL     OW94105   0.377   9.020   7.661 -0.0223  0.4969  0.3959
31176SOL    HW194106   0.308   8.964   7.625  0.2530 -3.1672  4.6057
31176SOL    HW294107   0.373   9.101   7.610 -2.0304 -2.4168 -4.8041
31177SOL     OW94108   2.254   5.704   7.004 -0.0923 -0.2775 -0.5427
31177SOL    HW194109   2.287   5.686   7.092 -0.3386 -1.4287 -0.6615
31177SOL    HW294110   2.312   5.656   6.946 -0.0101  0.3703 -1.0043
31178SOL     OW94111   0.966   6.693   8.664  0.1012  0.4112 -0.1137
31178SOL    HW194112   1.049   6.685   8.616 -0.0073 -0.4728 -0.1836
31178SOL    HW294113   0.993   6.699   8.756  0.2646  0.6986 -0.1801
31179SOL     OW94114   1.773   0.738   9.638  0.6786  0.0228 -0.4588
31179SOL    HW194115   1.715   0.684   9.585  0.6279  1.4153 -1.8882
31179SOL    HW294116   1.778   0.692   9.722 -0.6544 -1.3181 -1.0647
31180SOL     OW94117   8.681   6.543   0.884 -0.2384 -0.1067  0.2966
31180SOL    HW194118   8.646   6.474   0.940  0.3054 -0.4300  0.2434
31180SOL    HW294119   8.620   6.549   0.811 -0.3234 -0.4884  0.3360
31181SOL     OW94120   9.182   4.489   0.427 -0.3416  0.0328  0.0404
31181SOL    HW194121   9.184   4.403   0.386 -2.3196  0.0944 -0.2920
31181SOL    HW294122   9.232   4.545   0.369 -0.7857 -0.4660 -0.8365
31182SOL     OW94123   8.002   5.087   2.442 -0.6091  0.0846 -0.4255
31182SOL    HW194124   7.961   5.169   2.415 -2.3873 -0.4641  0.4426
31182SOL    HW294125   8.016   5.097   2.536 -0.5921 -0.5171 -0.3606
31183SOL     OW94126   6.204   5.548   4.415 -0.5855 -0.1500  0.6222
31183SOL    HW194127   6.127   5.500   4.447  0.0424 -1.6372 -0.0320
31183SOL    HW294128   6.197   5.543   4.320 -0.5115  1.1184  0.5305
31184SOL     OW94129   6.259   9.387   1.886 -0.0918  0.3184 -0.0325
31184SOL    HW194130   6.297   9.381   1.973 -0.3860 -1.6935  0.0210
31184SOL    HW294131   6.234   9.478   1.876  0.7122  0.7595  1.6497
31185SOL     OW94132   9.629   0.800   5.123  0.2274  0.5446 -0.6950
31185SOL    HW194133   9.546   0.804   5.171 -0.2932  1.7616 -1.6566
31185SOL    HW294134   9.639   0.887   5.085  1.3315  0.0371 -1.6081
31186SOL     OW94135   1.324   9.839   1.399 -0.0523 -0.0042 -0.2241
31186SOL    HW194136   1.336   9.826   1.493 -0.2315 -2.9818 -0.5407
31186SOL    HW294137   1.250   9.784   1.376  0.1236  0.4920 -2.1630
31187SOL     OW94138   8.002   7.880   1.435  0.8059 -0.2154 -0.4819
31187SOL    HW194139   8.035   7.969   1.449 -1.3385  0.6404 -0.5774
31187SOL    HW294140   8.009   7.867   1.341 -1.2792  0.9036 -0.8416
31188SOL     OW94141   4.883   3.628   6.008 -0.0111  0.0894  0.3542
31188SOL    HW194142   4.888   3.549   6.062  0.7428 -0.7308 -0.8777
31188SOL    HW294143   4.798   3.666   6.030  0.4272  0.0263  2.4174
31189SOL     OW94144   3.374   0.105   8.003  0.4379 -0.6704  0.6706
31189SOL    HW194145   3.293   0.067   8.037 -0.4724  0.9852  0.4793
31189SOL    HW294146   3.373   0.195   8.035  1.2293 -0.0424 -0.9655
31190SOL     OW94147   4.304   8.240   3.951  0.2642  0.0728 -0.1051
31190SOL    HW194148   4.326   8.301   4.021 -0.5793  0.1618  0.0881
31190SOL    HW294149   4.239   8.181   3.989 -0.7985  0.6069 -1.0284
31191SOL     OW94150   1.731   3.555   4.903  0.0716  0.2984  0.4191
31191SOL    HW194151   1.667   3.608   4.855  0.7601  0.2670 -0.5683
31191SOL    HW294152   1.769   3.616   4.966 -0.3919  0.5078  0.5069
31192SOL     OW94153   1.047   1.530   9.814 -0.4712 -0.2948  0.3762
31192SOL    HW194154   1.015   1.524   9.724 -1.1212 -0.2558  0.5997
31192SOL    HW294155   0.970   1.554   9.865 -0.2167 -0.8069  1.0166
31193SOL     OW94156   8.027   2.276   9.610  0.4823  0.5187 -0.5195
31193SOL    HW194157   8.059   2.346   9.553  1.9937 -1.7357 -2.5991
31193SOL    HW294158   7.948   2.245   9.568  0.1015  0.5861  0.1267
31194SOL     OW94159   1.147   8.875   2.842  0.2775  0.8371 -0.0447
31194SOL    HW194160   1.169   8.878   2.935  0.3247  2.2403 -0.0795
31194SOL    HW294161   1.055   8.852   2.839  0.1994  1.0959  0.3619
31195SOL     OW94162   3.618   8.784   6.174 -0.2027  0.6425 -0.2129
31195SOL    HW194163   3.549   8.795   6.239 -1.0055 -0.5102 -0.8339
31195SOL    HW294164   3.576   8.737   6.102  1.4329 -0.8875 -0.2415
31196SOL     OW94165   6.811   8.431   8.129  0.3267  0.4550  0.2080
31196SOL    HW194166   6.839   8.459   8.041  2.4616  0.3039  0.7745
31196SOL    HW294167   6.767   8.507   8.166 -2.2249 -0.0281 -1.5843
31197SOL     OW94168   8.414   0.368   9.837  0.2583 -0.4494  0.0178
31197SOL    HW194169   8.394   0.452   9.796  0.3150 -1.4291 -2.2045
31197SOL    HW294170   8.410   0.305   9.765  2.2253 -2.0603  1.1891
31198SOL     OW94171   0.504   6.732   9.828 -0.0743 -0.0216  0.5956
31198SOL    HW194172   0.436   6.798   9.838  0.0776 -0.1160  2.5902
31198SOL    HW294173   0.474   6.658   9.880 -0.3135 -1.6683 -1.7179
31199SOL     OW94174   7.653   7.690   9.184 -0.1462  0.1329 -0.0419
31199SOL    HW194175   7.566   7.651   9.185 -0.6607  1.2315 -0.5429
31199SOL    HW294176   7.711   7.620   9.216 -1.2477 -0.4797  0.6909
31200SOL     OW94177   6.265   1.645   6.259 -0.0308 -0.1489  0.0031
31200SOL    HW194178   6.352   1.605   6.257  0.1682  0.2928 -0.3683
31200SOL    HW294179   6.229   1.620   6.344  0.5095 -0.2208  0.2145
31201SOL     OW94180   3.728   5.601   1.440 -0.2792 -0.0846  0.5035
31201SOL    HW194181   3.678   5.524   1.470 -0.0783  0.0320  1.1614
31201SOL    HW294182   3.804   5.603   1.498 -0.3151  0.6472  0.5285
31202SOL     OW94183   8.569   7.381   5.166 -0.4350 -0.1566 -0.1608
31202SOL    HW194184   8.547   7.288   5.163 -0.7911 -0.0443 -3.1294
31202SOL    HW294185   8.658   7.386   5.131 -1.5023  0.8166 -3.0337
31203SOL     OW94186   8.700   4.789   3.378  0.3385  0.7801  0.2809
31203SOL    HW194187   8.793   4.785   3.355 -0.0541  1.9823 -1.8377
31203SOL    HW294188   8.699   4.814   3.470  2.1053  0.0489  0.5395
31204SOL     OW94189   9.688   0.774   8.634 -0.2896 -0.6370  0.2740
31204SOL    HW194190   9.671   0.758   8.541 -0.0990  0.1111  0.1088
31204SOL    HW294191   9.774   0.737   8.650  0.2369  0.3831 -0.1539
31205SOL     OW94192   7.920   9.465   6.894  0.0633 -0.6365 -0.1897
31205SOL    HW194193   7.868   9.538   6.928 -0.0658 -0.4302 -0.8127
31205SOL    HW294194   8.006   9.475   6.936 -0.4530 -1.1040  1.0061
31206SOL     OW94195   5.135   8.180   3.205 -0.0682  0.0767  0.3174
31206SOL    HW194196   5.091   8.258   3.240  0.5632  0.5294  0.1141
31206SOL    HW294197   5.158   8.129   3.283 -1.6707 -0.5807  0.3981
31207SOL     OW94198   7.014   1.050   5.066 -0.1474  0.0122  0.0455
31207SOL    HW194199   7.084   1.070   5.004 -0.3865 -0.0208 -0.2426
31207SOL    HW294200   6.934   1.076   5.020 -0.4393 -1.2492 -0.2003
31208SOL     OW94201   2.309   2.170   4.879 -0.0081  0.0036 -0.1148
31208SOL    HW194202   2.309   2.255   4.835  1.2902  0.3106  0.4206
31208SOL    HW294203   2.401   2.152   4.896 -0.2795 -1.4363 -0.0485
31209SOL     OW94204   2.825   2.570   1.928 -0.0364  0.2974  0.0927
31209SOL    HW194205   2.771   2.607   1.997  0.9646  1.7905  0.1129
31209SOL    HW294206   2.768   2.565   1.852 -0.6853  0.1496  0.5804
31210SOL     OW94207   1.226   6.252   2.445  0.5885  0.4496  0.2943
31210SOL    HW194208   1.176   6.316   2.496  0.4065  0.8547 -0.3806
31210SOL    HW294209   1.174   6.238   2.366  1.4057  0.6933 -0.3041
31211SOL     OW94210   8.736   1.557   9.313 -0.1350 -0.1310  0.1829
31211SOL    HW194211   8.655   1.538   9.360 -0.7628  0.3733 -0.6646
31211SOL    HW294212   8.723   1.519   9.226  0.9413 -0.9029  0.3432
31212SOL     OW94213   9.899   8.575   1.884 -0.3896 -0.2842 -0.5626
31212SOL    HW194214   9.894   8.502   1.945 -0.2275  0.9744  1.0277
31212SOL    HW294215   9.971   8.552   1.825  3.0055  0.6015  2.8393
31213SOL     OW94216   5.571   3.853   8.547  0.4696  0.3799 -0.0431
31213SOL    HW194217   5.610   3.814   8.469 -0.5072  1.1533 -0.9544
31213SOL    HW294218   5.624   3.931   8.564 -0.1430  0.9870 -0.8021
31214SOL     OW94219   1.664   1.935   4.246  0.3753 -0.4854  0.1355
31214SOL    HW194220   1.665   1.963   4.338 -0.9169 -2.3297  0.7778
31214SOL    HW294221   1.605   1.997   4.203 -0.1691 -0.4636  0.8859
31215SOL     OW94222   7.745   1.836   4.689 -0.1811 -0.4459  0.4099
31215SOL    HW194223   7.740   1.741   4.695  0.5923 -0.6329 -1.4242
31215SOL    HW294224   7.745   1.855   4.595  1.5237  1.2552  0.6892
31216SOL     OW94225   6.976   2.085   1.375 -0.3504 -0.0560 -0.2612
31216SOL    HW194226   6.914   2.087   1.447  0.8141 -1.3748  0.8467
31216SOL    HW294227   7.027   2.005   1.390  1.9593  1.2315 -0.8160
31217SOL     OW94228   7.103   8.530   7.544  0.4986  0.4860 -0.2549
31217SOL    HW194229   7.080   8.443   7.513  2.3021 -0.2800  0.4292
31217SOL    HW294230   7.082   8.588   7.470  0.8225 -0.7411 -1.3444
31218SOL     OW94231   6.718   7.112   2.057 -0.1194  0.3023 -0.1465
31218SOL    HW194232   6.729   7.205   2.041 -2.0231  0.4556 -0.8181
31218SOL    HW294233   6.785   7.069   2.003  0.8373  1.2604  0.2544
31219SOL     OW94234   5.014   7.696   9.334 -0.7587 -0.2916  0.0124
31219SOL    HW194235   5.101   7.722   9.303 -0.6656 -0.2368  0.3126
31219SOL    HW294236   5.031   7.635   9.405 -0.9742 -0.7003 -0.2811
31220SOL     OW94237   4.106   2.715   7.238  0.1050 -0.9025 -0.8686
31220SOL    HW194238   4.107   2.644   7.302  2.2798 -0.5424 -0.4438
31220SOL    HW294239   4.088   2.794   7.289 -0.4875 -0.9049 -1.0665
31221SOL     OW94240   4.608   2.744   5.785 -0.1003 -0.1654 -0.1598
31221SOL    HW194241   4.593   2.727   5.878 -3.2495 -2.0506 -0.8448
31221SOL    HW294242   4.538   2.805   5.761  1.2358  1.0279 -1.1439
31222SOL     OW94243   7.968   5.936   5.047 -0.4214  0.2704 -0.0723
31222SOL    HW194244   7.877   5.913   5.064  0.1412 -2.7711 -0.5931
31222SOL    HW294245   7.970   6.032   5.048 -3.5060  0.4088  0.3574
31223SOL     OW94246   9.056   2.105   7.162  0.6885 -0.0790 -0.4914
31223SOL    HW194247   9.020   2.159   7.093  2.6049  0.7840 -0.8686
31223SOL    HW294248   8.993   2.033   7.172  0.3972 -0.2890 -3.1879
31224SOL     OW94249   4.996   7.224   3.590 -0.3065 -0.0523  0.0002
31224SOL    HW194250   5.077   7.189   3.626 -0.2423  0.8168  0.7167
31224SOL    HW294251   4.938   7.148   3.583 -0.1484 -0.3349  1.4486
31225SOL     OW94252   5.458   1.684   1.742  0.2708 -0.4217  0.0284
31225SOL    HW194253   5.538   1.643   1.776  0.6996  1.0893  0.9380
31225SOL    HW294254   5.476   1.778   1.747 -2.9222  0.2051  3.8298
31226SOL     OW94255   8.584   8.719   1.621 -0.0197  0.4540  0.3508
31226SOL    HW194256   8.522   8.645   1.620 -0.3599  0.7407 -0.0784
31226SOL    HW294257   8.529   8.796   1.608  0.5964  0.5873 -1.9024
31227SOL     OW94258   0.525   3.327   8.238 -0.5879 -0.3241 -0.8394
31227SOL    HW194259   0.620   3.337   8.240 -0.6695  0.3763  0.2020
31227SOL    HW294260   0.498   3.362   8.153 -0.0210  0.5211 -0.6764
31228SOL     OW94261   0.385   2.755   6.798  0.0302  0.6739 -0.0612
31228SOL    HW194262   0.304   2.779   6.843  0.8306  0.0560  1.8142
31228SOL    HW294263   0.422   2.838   6.769 -2.8451  0.8299 -4.0482
31229SOL     OW94264   8.178   3.135   9.692 -0.6572 -0.0684  0.7460
31229SOL    HW194265   8.152   3.136   9.784  0.9691  0.7323  1.2488
31229SOL    HW294266   8.181   3.227   9.667  0.7495 -0.1607  0.4787
31230SOL     OW94267   5.257   5.683   0.382  0.1073 -0.3047  0.3265
31230SOL    HW194268   5.236   5.759   0.436  0.4785  0.3231 -0.3847
31230SOL    HW294269   5.288   5.720   0.299  1.6186 -1.2075  0.4475
31231SOL     OW94270   0.241   6.493   4.173  0.6162  0.3682  0.0883
31231SOL    HW194271   0.302   6.427   4.142  0.2909  0.2672 -0.3354
31231SOL    HW294272   0.240   6.559   4.104  0.5471  0.5652  0.2759
31232SOL     OW94273   5.555   0.650   7.804 -0.1433  0.1976  0.3299
31232SOL    HW194274   5.475   0.598   7.807 -0.3304  0.5136  0.7699
31232SOL    HW294275   5.568   0.669   7.711  0.3347 -1.2611  0.0727
31233SOL     OW94276   9.635   8.217   6.368  0.3630  0.4772  0.4404
31233SOL    HW194277   9.679   8.258   6.442  1.2740 -1.6242  1.1378
31233SOL    HW294278   9.632   8.124   6.390 -2.8978  0.2676 -0.4120
31234SOL     OW94279   9.413   7.455   1.596 -0.3152 -0.0290  0.0195
31234SOL    HW194280   9.355   7.383   1.622 -1.2825  0.7557  0.0353
31234SOL    HW294281   9.499   7.428   1.629 -1.1422  0.0639  2.4816
31235SOL     OW94282   7.540   9.184   8.975  0.4606 -0.4189 -0.4205
31235SOL    HW194283   7.562   9.099   9.012 -0.2463 -1.2926 -1.9344
31235SOL    HW294284   7.451   9.202   9.006  0.0806 -0.8929 -1.2109
31236SOL     OW94285   6.885   7.766   4.228 -0.1978 -0.0644  0.1807
31236SOL    HW194286   6.852   7.833   4.289 -1.5150  1.0667 -1.6547
31236SOL    HW294287   6.813   7.703   4.221 -0.9206  0.8968 -1.6812
31237SOL     OW94288   9.254   9.082   8.184  0.2471  0.1573 -0.6159
31237SOL    HW194289   9.298   9.116   8.106  1.1895 -2.9176 -1.5600
31237SOL    HW294290   9.312   9.013   8.216 -2.0578 -1.4541  0.3774
31238SOL     OW94291   0.584   8.048   0.227  0.8953  0.4966 -0.3172
31238SOL    HW194292   0.565   8.018   0.316  0.7274 -1.3428 -0.9140
31238SOL    HW294293   0.557   8.139   0.225 -1.2494 -0.0411  0.8977
31239SOL     OW94294   6.805   3.894   5.144  0.0765  0.0992 -0.0392
31239SOL    HW194295   6.782   3.952   5.071  0.3320  1.2197  0.7361
31239SOL    HW294296   6.745   3.919   5.214  3.8186  3.7164  2.3584
31240SOL     OW94297   6.214   9.586   2.628  0.0663  0.5223 -0.3035
31240SOL    HW194298   6.269   9.655   2.664  2.1392 -1.2944  0.2842
31240SOL    HW294299   6.267   9.506   2.638 -1.6461 -0.9577 -2.1258
31241SOL     OW94300   5.040   9.792   8.009 -0.3591 -0.6196 -0.5293
31241SOL    HW194301   5.064   9.731   8.079  0.2749  1.2844  0.9938
31241SOL    HW294302   4.944   9.795   8.012 -0.3315 -0.4064  0.4076
31242SOL     OW94303   3.930   4.375   8.101  0.1656 -0.3455  0.1562
31242SOL    HW194304   3.860   4.438   8.117 -0.3770 -0.8677 -0.1036
31242SOL    HW294305   3.938   4.372   8.006  0.6636 -0.1625  0.1910
31243SOL     OW94306   9.419   7.686   3.492  0.0035  0.0185 -0.3332
31243SOL    HW194307   9.436   7.660   3.582  0.1136  3.0394  0.6386
31243SOL    HW294308   9.345   7.747   3.498  0.5085  0.9008 -2.1643
31244SOL     OW94309   9.422   0.735   5.610  0.3117  0.0421  0.1110
31244SOL    HW194310   9.424   0.707   5.518 -1.2519 -0.0981  0.0806
31244SOL    HW294311   9.400   0.828   5.606  1.4318  0.3222  0.3218
31245SOL     OW94312   3.320   1.085   9.114 -0.4974 -0.5662  0.6489
31245SOL    HW194313   3.373   1.163   9.126  0.0964 -0.9073  0.3274
31245SOL    HW294314   3.237   1.117   9.079 -0.2328 -0.0822  0.4548
31246SOL     OW94315   8.571   5.718   6.998 -0.2838 -0.2057  0.1767
31246SOL    HW194316   8.559   5.809   6.971 -1.0292 -1.1577 -3.1771
31246SOL    HW294317   8.488   5.694   7.041 -0.7176  0.2417 -0.4056
31247SOL     OW94318   9.245   6.191   2.116 -0.1625 -0.5154  0.2749
31247SOL    HW194319   9.253   6.149   2.201 -1.8798 -0.1670  0.6583
31247SOL    HW294320   9.210   6.123   2.059  1.8233 -1.0120 -0.4285
31248SOL     OW94321   0.851   5.372   5.819  0.3304  0.1110 -0.4804
31248SOL    HW194322   0.876   5.279   5.825  1.1775  0.3483 -0.1533
31248SOL    HW294323   0.827   5.396   5.908  0.1028  0.2038 -0.5670
31249SOL     OW94324   7.478   4.814   3.516  0.6401 -0.8343 -0.4068
31249SOL    HW194325   7.434   4.841   3.597 -1.4134 -0.4616 -1.5631
31249SOL    HW294326   7.563   4.781   3.544  0.8605  1.2607  1.6848
31250SOL     OW94327   0.515   3.153   1.386  0.2365  0.3131  0.0094
31250SOL    HW194328   0.586   3.207   1.419 -0.3162 -0.3116  2.4606
31250SOL    HW294329   0.435   3.196   1.418 -0.3481 -0.3642 -0.5047
31251SOL     OW94330   1.591   6.328   1.930 -0.5476 -0.6363 -0.1511
31251SOL    HW194331   1.539   6.407   1.914  1.8510  1.1830  0.4683
31251SOL    HW294332   1.614   6.332   2.023  2.6235  0.0221 -0.8239
31252SOL     OW94333   4.780   3.645   0.401 -0.0549  0.1976 -0.0867
31252SOL    HW194334   4.850   3.581   0.412  0.4986  0.1882 -2.9427
31252SOL    HW294335   4.811   3.723   0.447  0.7227 -0.5478  0.6851
31253SOL     OW94336   2.446   2.666   5.738 -0.4684  0.3256 -0.2302
31253SOL    HW194337   2.438   2.702   5.827  1.2749 -0.9734  0.5152
31253SOL    HW294338   2.486   2.736   5.687  0.4402  0.3936  0.5506
31254SOL     OW94339   6.121   1.779   9.497  0.0831  0.5035  0.5063
31254SOL    HW194340   6.205   1.739   9.475 -0.0441  0.4949  0.0149
31254SOL    HW294341   6.063   1.754   9.424  0.1244  1.9606 -0.0631
31255SOL     OW94342   6.198   3.987   7.466  0.3512  0.5007  0.5841
31255SOL    HW194343   6.245   4.058   7.509  0.1107  0.3420  1.1182
31255SOL    HW294344   6.114   4.026   7.441  0.9787  0.9533 -0.9091
31256SOL     OW94345   5.547   0.034   2.622  0.1520  0.6927 -0.3506
31256SOL    HW194346   5.563   0.040   2.528 -0.7744  1.7278 -0.4599
31256SOL    HW294347   5.622   0.078   2.662  0.9945 -0.5103 -0.5431
31257SOL     OW94348   8.005   6.985   4.401  0.6537 -1.1605 -0.0173
31257SOL    HW194349   7.918   6.996   4.364  0.9376  1.0264 -0.1594
31257SOL    HW294350   7.991   6.933   4.480 -1.0792  0.7441  1.0130
31258SOL     OW94351   0.848   0.176   1.143 -0.0944 -0.4467  0.0250
31258SOL    HW194352   0.770   0.163   1.088  0.3529 -1.6368 -0.3724
31258SOL    HW294353   0.901   0.239   1.095  0.0372 -1.0578 -0.6603
31259SOL     OW94354   6.062   6.603   1.918 -0.6133 -0.5093  0.7120
31259SOL    HW194355   6.076   6.527   1.862 -1.0634 -0.4747  0.5477
31259SOL    HW294356   6.105   6.580   2.001  4.7420  1.4581 -1.1090
31260SOL     OW94357   8.446   0.093   0.932  0.6712 -0.0636  0.3295
31260SOL    HW194358   8.359   0.110   0.896  1.1541 -0.4374 -1.0684
31260SOL    HW294359   8.449  -0.002   0.943  0.9171 -0.0562  0.3265
31261SOL     OW94360   7.090   0.055   7.324  0.1615  0.3557  0.2696
31261SOL    HW194361   7.118   0.134   7.370  1.3987 -0.1964  0.5220
31261SOL    HW294362   7.086   0.081   7.232 -1.5421  1.2563  0.5579
31262SOL     OW94363   8.975   3.433   3.506 -0.4178 -0.2894 -0.0775
31262SOL    HW194364   8.922   3.400   3.578 -0.7937  1.8845  0.7182
31262SOL    HW294365   8.935   3.395   3.427 -1.9070 -0.2926  0.6447
31263SOL     OW94366   5.834   6.631   3.786  0.0469 -0.2560  0.1244
31263SOL    HW194367   5.825   6.659   3.695  1.4792 -0.9796 -0.2687
31263SOL    HW294368   5.873   6.706   3.831 -1.1634  0.3020  0.2956
31264SOL     OW94369   3.279   2.403   8.557  0.1963 -0.0959 -0.2851
31264SOL    HW194370   3.186   2.419   8.541  0.3028 -0.4788 -1.3668
31264SOL    HW294371   3.295   2.441   8.644 -0.5716  1.5916 -0.8255
31265SOL     OW94372   3.779   1.450   0.372  0.2586  0.6123  0.2915
31265SOL    HW194373   3.690   1.428   0.397  0.4459 -1.8132 -0.8824
31265SOL    HW294374   3.782   1.435   0.277  1.9876  0.2878  0.3644
31266SOL     OW94375   0.588   1.672   7.130 -0.2407 -0.4445 -0.4587
31266SOL    HW194376   0.567   1.647   7.041 -0.3111 -1.7610 -0.0911
31266SOL    HW294377   0.529   1.619   7.185  0.5513 -0.4731  0.3961
31267SOL     OW94378   5.542   9.315   0.524 -0.2087  0.0395 -0.0733
31267SOL    HW194379   5.478   9.272   0.468 -1.7388  0.8897  0.9325
31267SOL    HW294380   5.626   9.302   0.480 -0.9508 -1.7889 -1.0425
31268SOL     OW94381   2.908   1.377   3.256  0.2939  0.6400  0.1339
31268SOL    HW194382   2.869   1.312   3.315  1.4443 -0.8329 -0.6590
31268SOL    HW294383   3.002   1.357   3.257  0.3122  0.1132 -2.6325
31269SOL     OW94384   3.298   2.861   0.896  0.0685 -0.0257 -0.1630
31269SOL    HW194385   3.370   2.898   0.946 -0.1280 -1.0309  0.8983
31269SOL    HW294386   3.315   2.887   0.806  1.4001  0.2899  0.1692
31270SOL     OW94387   3.511   9.640   1.542  0.0737  0.7877  0.0575
31270SOL    HW194388   3.568   9.620   1.616  0.3295  1.9383  0.1996
31270SOL    HW294389   3.524   9.734   1.527 -1.3085  0.9461 -0.3174
31271SOL     OW94390   2.588   4.085   9.351 -0.1530 -0.2758 -0.2050
31271SOL    HW194391   2.547   4.151   9.295  2.5654  0.2014 -1.7990
31271SOL    HW294392   2.608   4.131   9.432  0.3979  0.4643 -0.7513
31272SOL     OW94393   9.104   1.251   6.407 -0.3585  0.0775  0.5012
31272SOL    HW194394   9.160   1.327   6.419  1.5104 -1.4634  2.1694
31272SOL    HW294395   9.058   1.241   6.490 -1.1643 -0.1948  0.0395
31273SOL     OW94396   1.391   3.849   8.204  0.0458  0.4175 -0.3208
31273SOL    HW194397   1.374   3.767   8.158 -0.7364  0.4724 -0.1441
31273SOL    HW294398   1.407   3.824   8.294 -2.2381  0.5827  0.1905
31274SOL     OW94399   9.555   2.871   6.130 -0.0647 -0.3241  0.0812
31274SOL    HW194400   9.608   2.889   6.053  0.1636  2.3320  0.7617
31274SOL    HW294401   9.475   2.830   6.096  1.8473 -3.4926 -1.0441
31275SOL     OW94402   8.585   4.848   0.758  0.3338 -0.3968  0.4615
31275SOL    HW194403   8.504   4.798   0.749  0.2728 -0.1548 -0.5338
31275SOL    HW294404   8.562   4.936   0.727  0.2133  0.5238  2.9551
31276SOL     OW94405   6.530   9.768   5.745  0.4766 -0.4162  0.2125
31276SOL    HW194406   6.532   9.770   5.840  0.1747  0.2891  0.2102
31276SOL    HW294407   6.491   9.684   5.723 -0.1439 -0.2676  0.7291
31277SOL     OW94408   7.783   3.303   3.131 -0.5053 -0.4587 -0.3906
31277SOL    HW194409   7.843   3.312   3.057 -0.9604  1.6622 -0.5693
31277SOL    HW294410   7.797   3.214   3.162 -0.3514 -1.4413 -3.0443
31278SOL     OW94411   5.855   7.955   4.648  0.0176 -0.3127  0.1865
31278SOL    HW194412   5.801   7.968   4.570 -1.1836 -3.2764  0.4026
31278SOL    HW294413   5.941   7.930   4.614 -0.0864 -0.1625 -0.1862
31279SOL     OW94414   0.410   2.230   9.382 -0.1718 -0.1494 -0.4118
31279SOL    HW194415   0.411   2.316   9.340  0.0718 -0.0355 -0.1767
31279SOL    HW294416   0.362   2.245   9.464 -0.6044 -0.3594 -0.6210
31280SOL     OW94417   5.962   4.844   4.766  0.2171 -0.0767 -0.3205
31280SOL    HW194418   5.911   4.864   4.688 -0.7103 -0.3376  0.2085
31280SOL    HW294419   6.052   4.864   4.741 -0.2900  1.8451 -0.7995
31281SOL     OW94420   4.622   3.493   7.450  0.6102  0.5461 -0.6067
31281SOL    HW194421   4.706   3.507   7.494 -0.1686  1.2031  0.7584
31281SOL    HW294422   4.643   3.493   7.357  1.7722  3.6180 -0.4527
31282SOL     OW94423   8.215   6.251   9.562 -0.7964 -0.3467 -0.2579
31282SOL    HW194424   8.258   6.219   9.483 -1.6421 -1.7228 -0.2054
31282SOL    HW294425   8.261   6.332   9.583  1.8121 -1.7102 -0.1839
31283SOL     OW94426   2.188   5.970   9.672 -0.2566  0.2616  0.6255
31283SOL    HW194427   2.274   5.945   9.706  0.1421  0.6488 -0.0835
31283SOL    HW294428   2.178   5.920   9.591 -1.0037 -0.3088  1.0525
31284SOL     OW94429   1.014   7.367   4.856  1.0517 -0.3289  0.1202
31284SOL    HW194430   0.955   7.402   4.789  1.2134  0.8012  0.5501
31284SOL    HW294431   0.999   7.272   4.853 -1.1741 -0.0489  0.5860
31285SOL     OW94432   8.108   1.991   7.834 -0.0883 -0.3522  0.3264
31285SOL    HW194433   8.204   1.992   7.831 -0.1067  0.2365 -1.0629
31285SOL    HW294434   8.082   2.054   7.767 -1.4502 -0.0911  1.0794
31286SOL     OW94435   7.256   6.655   7.522  0.2999 -0.0523 -0.2997
31286SOL    HW194436   7.269   6.681   7.431 -0.1915 -5.2948 -2.1620
31286SOL    HW294437   7.342   6.669   7.563  0.9519  1.0516 -1.9170
31287SOL     OW94438   9.376   5.896   1.741 -0.2405 -0.3386  0.0640
31287SOL    HW194439   9.448   5.906   1.803 -0.7948  1.4115  0.4889
31287SOL    HW294440   9.381   5.805   1.712  1.0792 -0.7159  1.3791
31288SOL     OW94441   3.469   9.742   3.177  0.0238  0.2748 -0.3207
31288SOL    HW194442   3.497   9.758   3.267 -0.0001 -0.3988 -0.1854
31288SOL    HW294443   3.381   9.778   3.172 -0.8782 -1.6166  0.5953
31289SOL     OW94444   7.668   5.952   1.998 -0.5746 -0.6948 -0.4487
31289SOL    HW194445   7.629   6.009   1.931 -1.6134  0.2004  0.8513
31289SOL    HW294446   7.598   5.889   2.019  0.7270 -2.8935 -2.2472
31290SOL     OW94447   3.662   5.618   0.598 -0.3572 -0.2961  0.3409
31290SOL    HW194448   3.720   5.645   0.527 -0.2113  2.5652  1.3920
31290SOL    HW294449   3.719   5.617   0.676 -1.0427 -0.7508  0.8490
31291SOL     OW94450   3.264   8.683   2.355  0.1218 -0.0125  0.2117
31291SOL    HW194451   3.315   8.604   2.337 -1.0183 -0.5019 -1.0991
31291SOL    HW294452   3.326   8.755   2.343  0.6403 -0.6096 -0.8494
31292SOL     OW94453   9.711   9.760   0.674 -0.0051 -0.0862 -0.5150
31292SOL    HW194454   9.692   9.789   0.584  0.2790 -0.7157 -0.7887
31292SOL    HW294455   9.702   9.665   0.670 -1.3977 -0.0230  0.4788
31293SOL     OW94456   4.017   2.202   4.186  0.0584 -0.3038 -0.0172
31293SOL    HW194457   4.030   2.153   4.105 -1.8739 -1.2173  0.1748
31293SOL    HW294458   4.073   2.279   4.177  0.1302 -0.5375 -2.0652
31294SOL     OW94459   2.741   2.037   7.995  0.1017  0.6258  0.3097
31294SOL    HW194460   2.784   2.122   7.989 -2.1780  1.8935  1.0436
31294SOL    HW294461   2.735   2.019   8.088  0.0967 -0.1040  0.1755
31295SOL     OW94462   4.051   7.467   1.326  0.1903  0.0296 -0.0357
31295SOL    HW194463   4.097   7.450   1.244  0.3516  0.9336 -0.1493
31295SOL    HW294464   3.980   7.402   1.329 -0.9181  1.0748 -1.7716
31296SOL     OW94465   5.281   0.680   1.242 -0.4857  0.7771 -0.3988
31296SOL    HW194466   5.215   0.613   1.259  0.4284 -0.4471 -1.4989
31296SOL    HW294467   5.235   0.746   1.191 -0.8250 -0.1600 -1.3303
31297SOL     OW94468   7.489   8.054   1.528 -0.7071 -0.0179  0.2975
31297SOL    HW194469   7.428   8.111   1.575 -0.8755 -0.8452  1.0945
31297SOL    HW294470   7.435   8.013   1.460 -0.4843  1.1000 -0.6000
31298SOL     OW94471   1.010   2.140   2.943 -0.2498  0.1769 -0.1060
31298SOL    HW194472   1.070   2.180   3.007  0.0747  0.3786 -0.5326
31298SOL    HW294473   1.014   2.198   2.867 -0.1947 -0.3760 -0.5279
31299SOL     OW94474   2.239   0.063   2.233 -0.5270 -0.3160  0.0905
31299SOL    HW194475   2.208  -0.026   2.220  0.1850 -0.9448  2.2662
31299SOL    HW294476   2.160   0.114   2.251 -0.9431 -0.4571 -1.2501
31300SOL     OW94477   4.788   9.010   9.358 -0.0314  0.5005 -0.2302
31300SOL    HW194478   4.868   9.041   9.402  0.3851  0.4996 -0.9793
31300SOL    HW294479   4.785   9.058   9.276 -1.5634  1.5378  0.3859
31301SOL     OW94480   1.024   0.652   3.574 -0.6692  0.0264  0.5425
31301SOL    HW194481   1.083   0.622   3.644  1.4443  0.9836 -0.7354
31301SOL    HW294482   0.967   0.716   3.616  0.7138  0.7610  1.3658
31302SOL     OW94483   0.031   4.678   8.018  0.2597 -0.1103  0.3259
31302SOL    HW194484   0.002   4.752   7.966 -2.2302 -0.2379  1.4101
31302SOL    HW294485   0.036   4.605   7.955 -0.2565  0.2906 -0.1852
31303SOL     OW94486   0.893   9.947   7.621  0.6554  0.6743 -0.0587
31303SOL    HW194487   0.810   9.924   7.578  1.0392 -0.8022 -0.0751
31303SOL    HW294488   0.870  10.016   7.682 -0.6480  0.1210  0.1123
31304SOL     OW94489   6.635   2.303   6.353  0.0774 -0.3588 -0.1997
31304SOL    HW194490   6.677   2.254   6.282  1.7561  0.3324  0.2773
31304SOL    HW294491   6.707   2.327   6.412 -1.1067  0.1657  1.0969
31305SOL     OW94492   5.577   6.067   5.387  0.6701  0.1647  0.6008
31305SOL    HW194493   5.525   6.118   5.325 -3.6604 -3.3297  0.8291
31305SOL    HW294494   5.571   6.116   5.469 -2.4209  0.0318  0.5706
31306SOL     OW94495   0.631   2.143   0.371  0.4402 -0.2518 -0.4433
31306SOL    HW194496   0.621   2.234   0.397 -2.0537  0.4195 -3.2331
31306SOL    HW294497   0.715   2.141   0.324  1.1606  0.2514  0.7817
31307SOL     OW94498   6.159   9.652   8.414  0.2018 -0.4707  0.6498
31307SOL    HW194499   6.216   9.726   8.436 -0.9081  0.9705 -1.0252
31307SOL    HW294500   6.072   9.679   8.443 -0.7018  0.1219 -2.2837
31308SOL     OW94501   9.311   8.977   9.403 -0.3414 -0.2375  0.3978
31308SOL    HW194502   9.308   8.901   9.462  0.5917 -0.4753  0.1645
31308SOL    HW294503   9.262   8.949   9.326  0.6762 -0.9242 -0.0233
31309SOL     OW94504   1.113   3.915   2.179 -0.2395  0.3850  1.0233
31309SOL    HW194505   1.076   3.998   2.209  0.1559  0.6432  0.8099
31309SOL    HW294506   1.177   3.940   2.113 -1.3456 -0.1954 -0.3215
31310SOL     OW94507   1.579   5.467   8.493 -0.1745  0.3762 -0.7672
31310SOL    HW194508   1.617   5.550   8.466  0.9778 -0.1478 -0.8249
31310SOL    HW294509   1.574   5.415   8.413  0.0193  0.0538 -0.5749
31311SOL     OW94510   6.434   8.778   0.993 -0.3607  0.7145 -0.8892
31311SOL    HW194511   6.425   8.776   1.088 -1.1420  1.4780 -0.9390
31311SOL    HW294512   6.476   8.861   0.974  1.2390 -0.1092 -1.1238
31312SOL     OW94513   6.289   6.540   8.339  0.2045  0.2479 -0.3931
31312SOL    HW194514   6.284   6.445   8.328 -2.2528  0.2498  0.0856
31312SOL    HW294515   6.291   6.575   8.250  2.0739 -0.2330 -0.5765
31313SOL     OW94516   7.737   0.943   4.190 -0.2644 -0.0594 -0.0766
31313SOL    HW194517   7.656   0.898   4.164  0.1284 -0.7458 -0.1085
31313SOL    HW294518   7.806   0.898   4.143  0.1164  0.7461 -0.3089
31314SOL     OW94519   8.758   7.010   4.867 -0.5351  0.0146 -0.3291
31314SOL    HW194520   8.829   7.035   4.807 -0.6216  0.0781 -0.4046
31314SOL    HW294521   8.802   6.996   4.951 -0.0682 -2.1702 -0.8692
31315SOL     OW94522   1.952   4.484   7.934 -0.0539 -0.1852 -0.2002
31315SOL    HW194523   2.018   4.415   7.934 -0.8506 -0.9840  0.9102
31315SOL    HW294524   1.996   4.560   7.897  0.4133 -1.6680 -2.9763
31316SOL     OW94525   3.488   1.397   4.039  0.1342 -0.4104  0.3238
31316SOL    HW194526   3.395   1.422   4.041  0.6139  1.5567  0.7817
31316SOL    HW294527   3.509   1.375   4.130  0.4321  0.5496  0.5003
31317SOL     OW94528   4.846   3.395   4.377 -0.5627  0.1379  0.1724
31317SOL    HW194529   4.830   3.311   4.333 -0.7470  0.0583  0.3874
31317SOL    HW294530   4.794   3.390   4.457 -1.9156  1.1314 -0.6054
31318SOL     OW94531   7.978   2.575   4.298  0.1206 -0.6310 -0.1987
31318SOL    HW194532   7.941   2.656   4.264  1.6720  0.0806 -0.2632
31318SOL    HW294533   7.952   2.573   4.390 -1.2735 -0.8935 -0.5766
31319SOL     OW94534   7.909   4.572   2.656 -0.1217 -0.6743  0.2194
31319SOL    HW194535   7.917   4.652   2.708  0.2126  0.5022 -1.5634
31319SOL    HW294536   7.964   4.587   2.579 -0.3369 -2.4841 -0.3454
31320SOL     OW94537   6.234   0.702   1.556  0.0862 -0.7708  0.4344
31320SOL    HW194538   6.263   0.772   1.497 -0.8953 -0.9847 -0.3257
31320SOL    HW294539   6.152   0.735   1.593 -0.4286 -1.5537  0.0068
31321SOL     OW94540   8.652   6.503   3.202 -0.5080 -0.2288 -0.0360
31321SOL    HW194541   8.726   6.535   3.253 -0.1700 -0.3236 -0.4642
31321SOL    HW294542   8.686   6.494   3.113 -1.3611  0.9273 -0.5035
31322SOL     OW94543   4.785   0.451   0.938 -0.2621 -0.7471 -0.2476
31322SOL    HW194544   4.721   0.514   0.971 -0.2577 -1.2637  0.7645
31322SOL    HW294545   4.816   0.405   1.015  1.7315 -0.1607 -0.6543
31323SOL     OW94546   9.741   5.961   6.541  0.2385 -0.1945  0.6191
31323SOL    HW194547   9.725   5.926   6.629 -0.1605 -0.1624  0.5622
31323SOL    HW294548   9.722   6.055   6.549 -0.9572 -0.3826  0.2270
31324SOL     OW94549   5.910   1.894   4.584  0.3052 -0.0376  0.5251
31324SOL    HW194550   5.925   1.919   4.493 -1.3902  0.7039  0.4158
31324SOL    HW294551   5.958   1.960   4.635 -1.1764  1.3639  0.1809
31325SOL     OW94552   9.084   8.788   1.268  0.2368  0.1173  0.3602
31325SOL    HW194553   9.016   8.826   1.213  2.1334  2.2697 -0.6795
31325SOL    HW294554   9.122   8.718   1.215 -1.3644 -1.4288  1.1344
31326SOL     OW94555   1.923   5.313   8.599 -0.0135 -0.1134  0.0320
31326SOL    HW194556   2.010   5.298   8.634 -0.2683  0.5562  0.9952
31326SOL    HW294557   1.864   5.276   8.664 -0.5016  1.3043  0.4374
31327SOL     OW94558   8.532   2.858   6.600  0.5929 -0.3018 -0.4703
31327SOL    HW194559   8.535   2.857   6.696 -0.3506 -0.9683 -0.4368
31327SOL    HW294560   8.623   2.843   6.574  0.8487 -0.1764  0.3176
31328SOL     OW94561   3.222   3.960   5.729 -0.0226  0.9096 -0.4476
31328SOL    HW194562   3.188   3.946   5.817  0.1271  1.5544 -0.2825
31328SOL    HW294563   3.296   3.899   5.722  1.0916  2.0863  0.5244
31329SOL     OW94564   3.631   7.328   5.687  0.0796  0.1937  0.0259
31329SOL    HW194565   3.691   7.275   5.738  1.6503  2.1468  0.3290
31329SOL    HW294566   3.554   7.272   5.674  1.4160 -1.9156  0.7332
31330SOL     OW94567   4.865   2.468   7.117  0.3229  0.4278 -0.1797
31330SOL    HW194568   4.813   2.388   7.124 -0.5506  0.8428 -1.5016
31330SOL    HW294569   4.956   2.438   7.115  0.4008 -0.2433  3.8916
31331SOL     OW94570   5.439   1.555   3.157 -0.1388  0.2230  0.1366
31331SOL    HW194571   5.446   1.643   3.193 -3.4743  0.7038 -0.0097
31331SOL    HW294572   5.431   1.569   3.062  0.6178 -0.3700 -0.0219
31332SOL     OW94573   3.288   3.935   3.617 -0.1360  0.5620 -0.3508
31332SOL    HW194574   3.332   3.932   3.702 -0.3051  0.2869 -0.2714
31332SOL    HW294575   3.214   3.995   3.631 -0.4106  0.1921 -0.1808
31333SOL     OW94576   3.102   6.403   5.632  0.0498  0.2287 -0.2236
31333SOL    HW194577   3.085   6.309   5.629  1.4923 -0.0663  0.1183
31333SOL    HW294578   3.195   6.410   5.656 -0.5942  1.7583  2.2214
31334SOL     OW94579   9.169   0.367   6.775  0.3284 -0.0583  0.3034
31334SOL    HW194580   9.077   0.383   6.798  0.3361  1.3449 -0.5363
31334SOL    HW294581   9.196   0.297   6.834 -1.1884 -0.2782  0.7891
31335SOL     OW94582   4.444   3.414   5.520  0.2049  0.1829 -0.0869
31335SOL    HW194583   4.486   3.449   5.441 -0.4004 -1.8707 -1.4085
31335SOL    HW294584   4.448   3.319   5.509 -0.6875 -0.1400  1.9583
31336SOL     OW94585   5.939   7.004   9.569 -0.3969 -0.3045  0.2119
31336SOL    HW194586   5.968   7.029   9.482  0.3327 -0.1622  0.4923
31336SOL    HW294587   5.995   6.930   9.593 -1.1365 -0.8705  0.2331
31337SOL     OW94588   8.081   2.582   2.352  0.1708 -0.6947  0.8090
31337SOL    HW194589   8.001   2.608   2.397  0.7233  2.8803  0.0793
31337SOL    HW294590   8.052   2.551   2.267 -0.5073 -0.8909  1.1048
31338SOL     OW94591   5.723   1.668   4.005 -0.3473  0.4285  0.2097
31338SOL    HW194592   5.741   1.742   4.063 -0.6488 -0.8651  2.0381
31338SOL    HW294593   5.802   1.614   4.010 -1.4342 -1.1134  1.7368
31339SOL     OW94594   5.733   6.778   4.916 -0.7330  0.7121  0.1756
31339SOL    HW194595   5.668   6.754   4.982  0.8828 -0.7039  1.3275
31339SOL    HW294596   5.796   6.833   4.963  0.3918 -0.2469 -0.1510
31340SOL     OW94597   9.818   9.008   7.918 -0.3507 -0.6503 -0.5910
31340SOL    HW194598   9.901   9.000   7.965  0.7022  2.1546 -1.7810
31340SOL    HW294599   9.753   9.020   7.987  0.7409  0.5089  0.2789
31341SOL     OW94600   1.431   6.879   1.506 -0.2416  0.0670 -0.1415
31341SOL    HW194601   1.486   6.923   1.571 -0.5562 -0.6917  0.6592
31341SOL    HW294602   1.366   6.945   1.481  0.2961  0.5849 -0.2072
31342SOL     OW94603   4.678   7.955   3.492 -0.6653 -0.2479 -0.6412
31342SOL    HW194604   4.673   7.889   3.423 -1.5368 -1.1596  0.2534
31342SOL    HW294605   4.589   7.988   3.500 -0.2247  1.1775 -1.1572
31343SOL     OW94606   6.115   8.842   0.419 -0.0266 -0.0173 -0.5534
31343SOL    HW194607   6.061   8.791   0.479  0.6674 -1.2322 -0.9227
31343SOL    HW294608   6.189   8.870   0.473 -1.1018  1.8960  0.0301
31344SOL     OW94609   5.306   3.582   3.188  0.3311  0.4162  0.2281
31344SOL    HW194610   5.234   3.594   3.126 -0.2906  0.6060  0.9821
31344SOL    HW294611   5.365   3.521   3.144  1.6863  3.1652 -2.0861
31345SOL     OW94612   6.128   8.683   1.555 -0.1925 -0.3456 -0.4614
31345SOL    HW194613   6.093   8.760   1.511  0.7125  0.1863 -0.2712
31345SOL    HW294614   6.159   8.626   1.485  1.5723  0.6551 -0.5497
31346SOL     OW94615   0.913   6.986   0.462 -0.1255  0.0859 -0.3841
31346SOL    HW194616   0.989   6.990   0.520  1.1312  1.0048 -1.9983
31346SOL    HW294617   0.894   6.893   0.453 -0.9694 -0.0673  2.1862
31347SOL     OW94618   5.474   7.132   5.242  0.5123  0.2915  0.3568
31347SOL    HW194619   5.404   7.078   5.207  1.0983  0.3128 -0.8793
31347SOL    HW294620   5.432   7.180   5.314 -0.2155 -1.1692  0.9525
31348SOL     OW94621   6.188   1.476   8.863  0.5816  0.1829  0.2479
31348SOL    HW194622   6.239   1.469   8.782  1.3226  0.3665  0.6904
31348SOL    HW294623   6.125   1.404   8.858  0.6402  0.1806 -0.4785
31349SOL     OW94624   1.110   4.495   6.162 -0.6528  0.6567 -0.0172
31349SOL    HW194625   1.072   4.450   6.238 -1.5328  1.4757  0.0454
31349SOL    HW294626   1.047   4.480   6.092 -0.0147  0.1992 -0.5031
31350SOL     OW94627   5.006   3.313   2.738  0.4115 -0.5339 -0.1426
31350SOL    HW194628   5.022   3.221   2.719  0.5641 -0.5931  0.2777
31350SOL    HW294629   5.034   3.359   2.658  2.0387 -0.6912  0.3018
31351SOL     OW94630   0.084   7.072   5.691 -0.1423  0.5927 -0.4998
31351SOL    HW194631   0.058   7.040   5.605 -0.2863  0.4732 -0.4117
31351SOL    HW294632   0.170   7.031   5.706 -0.7861 -0.6190  0.0687
31352SOL     OW94633   2.819   5.253   3.543 -0.2254  0.0793 -0.2184
31352SOL    HW194634   2.829   5.266   3.449 -0.4345  1.3217 -0.0803
31352SOL    HW294635   2.732   5.288   3.563 -0.4671 -0.8046  0.3338
31353SOL     OW94636   5.711   2.778   9.551  0.5224  0.1738  0.0371
31353SOL    HW194637   5.623   2.742   9.559  0.5617  0.1845  0.5519
31353SOL    HW294638   5.767   2.716   9.598  0.7550  0.2966 -0.0716
31354SOL     OW94639   0.161   6.593   7.235  0.1591 -0.5299 -0.4551
31354SOL    HW194640   0.219   6.665   7.207  0.4595 -0.5428  0.1249
31354SOL    HW294641   0.167   6.530   7.163  0.7418 -0.4608 -0.4776
31355SOL     OW94642   3.902   9.307  -0.035  0.6125  0.1215 -0.8438
31355SOL    HW194643   3.913   9.370   0.036  0.4971 -0.9183  0.1180
31355SOL    HW294644   3.846   9.239   0.002 -0.3048  0.0538 -2.2585
31356SOL     OW94645   5.621   4.302   7.994  0.1719 -0.2274 -0.3524
31356SOL    HW194646   5.607   4.345   8.078 -1.4924  0.8394 -1.1269
31356SOL    HW294647   5.658   4.216   8.017 -1.7239 -0.6146  1.5808
31357SOL     OW94648   8.635   3.452   9.343 -0.4381 -0.5069  0.2678
31357SOL    HW194649   8.730   3.466   9.353 -0.3431 -1.3375  0.5367
31357SOL    HW294650   8.604   3.433   9.431 -0.6373 -1.4992 -0.0059
31358SOL     OW94651   4.756   6.107   9.828  0.0165 -0.1051 -0.0068
31358SOL    HW194652   4.720   6.195   9.838 -0.8786 -0.3205 -1.0994
31358SOL    HW294653   4.764   6.096   9.733  2.3057 -0.3536  0.1619
31359SOL     OW94654   8.074   8.437   3.615  0.4683 -0.1768 -0.0826
31359SOL    HW194655   8.130   8.492   3.560 -0.0694 -1.4910 -2.0303
31359SOL    HW294656   8.110   8.349   3.605 -2.2292 -1.2078 -1.9407
31360SOL     OW94657   0.415   4.653   7.131 -0.1939 -0.2884 -0.4275
31360SOL    HW194658   0.484   4.603   7.088  0.0092  0.3678 -0.8751
31360SOL    HW294659   0.403   4.610   7.216  0.4004 -0.7194 -0.5597
31361SOL     OW94660   0.995   6.002   5.152  0.3567 -0.0182 -0.2388
31361SOL    HW194661   0.909   5.977   5.185  0.6762 -1.8380 -0.6896
31361SOL    HW294662   1.032   5.921   5.117  2.0416  0.8368 -0.5400
31362SOL     OW94663   9.721   9.957   3.526  0.1332  0.0376 -0.2475
31362SOL    HW194664   9.806   9.917   3.510 -0.2816 -0.8319 -0.3503
31362SOL    HW294665   9.673   9.944   3.444 -0.4678 -0.4454  0.1723
31363SOL     OW94666   2.600   6.139   7.806 -0.0679 -0.1902  0.4091
31363SOL    HW194667   2.657   6.133   7.729 -0.4010 -2.7215  0.2818
31363SOL    HW294668   2.523   6.186   7.775  0.5126  0.3246 -0.3046
31364SOL     OW94669   3.232   1.427   4.135  0.5828  0.8018 -0.3935
31364SOL    HW194670   3.143   1.393   4.124  1.7188 -2.6896 -0.0750
31364SOL    HW294671   3.266   1.381   4.211  2.8257  1.7114 -0.7737
31365SOL     OW94672   3.858   2.300   2.747  0.2208 -0.2450 -0.0622
31365SOL    HW194673   3.830   2.264   2.662  0.4007 -0.1301 -0.1681
31365SOL    HW294674   3.781   2.347   2.779  0.6870  1.1428 -0.9313
31366SOL     OW94675   4.338   3.566   6.908 -0.6179  0.0163  0.2240
31366SOL    HW194676   4.310   3.634   6.847 -3.5448 -0.0758  1.2842
31366SOL    HW294677   4.382   3.613   6.978  2.2245  0.1787 -1.5085
31367SOL     OW94678   2.336   9.634   8.531  0.2714 -0.6331 -0.0012
31367SOL    HW194679   2.413   9.637   8.473  0.0094 -1.7873 -0.4451
31367SOL    HW294680   2.306   9.543   8.526 -0.5922 -0.4150  0.8756
31368SOL     OW94681   3.075   4.708   6.467 -0.1838 -0.0640  0.5247
31368SOL    HW194682   3.141   4.667   6.410 -0.8409  0.1913 -0.4516
31368SOL    HW294683   3.068   4.797   6.432 -0.3901  0.1863  1.2055
31369SOL     OW94684   4.058   7.776   2.270 -0.6572 -0.1215 -0.0427
31369SOL    HW194685   4.033   7.693   2.310 -0.8468  0.5062  1.1776
31369SOL    HW294686   4.153   7.780   2.279 -0.5248 -0.6518 -1.0276
31370SOL     OW94687   4.482   5.852   7.573 -0.2740 -0.0027  0.5646
31370SOL    HW194688   4.511   5.882   7.487  0.0984  0.4612  0.8453
31370SOL    HW294689   4.388   5.839   7.564 -0.2878  0.3487  0.1770
31371SOL     OW94690   2.852   2.678   0.898  0.6317  0.3515  0.0677
31371SOL    HW194691   2.942   2.656   0.925  0.6780  0.0243 -0.3494
31371SOL    HW294692   2.860   2.704   0.806  0.0207 -1.6289 -0.5982
31372SOL     OW94693   9.476   2.804   0.606  0.1183 -0.8993 -0.0438
31372SOL    HW194694   9.520   2.863   0.668  1.2298 -1.4380 -0.2905
31372SOL    HW294695   9.389   2.791   0.642 -0.4080  1.4224 -0.3072
31373SOL     OW94696   1.037   0.057   2.577 -0.0034 -0.3769  0.2396
31373SOL    HW194697   0.989  -0.019   2.546 -0.6461 -0.5467  1.5900
31373SOL    HW294698   1.058   0.037   2.668  1.5355  0.2383  0.0478
31374SOL     OW94699   1.307   9.765   3.492  0.3029 -0.2207 -0.1829
31374SOL    HW194700   1.274   9.683   3.527 -1.5529  0.3350 -0.5141
31374SOL    HW294701   1.229   9.819   3.481  1.5394  1.8594  0.7020
31375SOL     OW94702   6.074   5.758   6.811  0.2014 -0.4438 -0.0182
31375SOL    HW194703   6.109   5.830   6.862  0.4925 -0.0831 -0.7071
31375SOL    HW294704   5.980   5.759   6.828  0.0560  0.7432 -0.7829
31376SOL     OW94705   0.960   0.738   9.365  0.0499 -0.1572 -0.7840
31376SOL    HW194706   0.887   0.676   9.356 -0.6033  0.6050 -0.8920
31376SOL    HW294707   0.927   0.819   9.327 -0.2602  1.1673  2.0364
31377SOL     OW94708   7.398   0.477   0.433  0.1669 -0.0644  0.1679
31377SOL    HW194709   7.421   0.567   0.407  0.9227 -0.7299 -1.6130
31377SOL    HW294710   7.303   0.475   0.429  0.1307  0.6841  0.3340
31378SOL     OW94711   8.601   2.149   1.260 -0.4781 -0.3879  0.0253
31378SOL    HW194712   8.640   2.161   1.346  0.6720 -2.1097 -0.2136
31378SOL    HW294713   8.656   2.202   1.201  0.4066 -1.3361 -0.0282
31379SOL     OW94714   9.706   5.413   7.210  0.3032 -0.1268 -0.3746
31379SOL    HW194715   9.697   5.369   7.295 -1.0288 -0.1382 -0.5031
31379SOL    HW294716   9.777   5.366   7.166 -1.0939 -2.2228 -0.5279
31380SOL     OW94717   2.030   0.141   2.511  0.0693  0.7842 -0.0374
31380SOL    HW194718   2.100   0.155   2.575 -0.0170 -0.5611  0.4028
31380SOL    HW294719   1.993   0.056   2.536  0.3743 -0.0479 -2.1815
31381SOL     OW94720   4.776   3.586   4.197  0.2277 -0.1742 -0.1918
31381SOL    HW194721   4.830   3.599   4.118  1.0632  1.6873  0.6033
31381SOL    HW294722   4.811   3.507   4.238  1.3463  0.1377 -0.5099
31382SOL     OW94723   9.809   1.307   7.543  0.1847 -0.1044  0.1181
31382SOL    HW194724   9.883   1.362   7.567  0.7722 -1.2856  1.1227
31382SOL    HW294725   9.764   1.289   7.625 -1.4057  0.8142 -0.5083
31383SOL     OW94726   1.484   3.793   4.267 -0.0614  0.0383  1.2015
31383SOL    HW194727   1.391   3.785   4.247  0.3083  0.4415 -0.9344
31383SOL    HW294728   1.529   3.770   4.186  1.6105  2.3433  1.3462
31384SOL     OW94729   3.338   7.922   7.544 -0.1511 -0.2666 -0.1976
31384SOL    HW194730   3.322   8.007   7.502 -0.2642 -0.1123  0.1470
31384SOL    HW294731   3.417   7.889   7.503 -0.9032 -0.6590 -1.3627
31385SOL     OW94732   5.855   7.530   7.446 -0.5126 -0.2027 -0.4192
31385SOL    HW194733   5.892   7.456   7.494  0.0803  1.1723  1.3494
31385SOL    HW294734   5.767   7.541   7.483 -1.2212 -0.9350 -1.7742
31386SOL     OW94735   4.063   9.000   9.159 -0.0154  0.0250 -0.6763
31386SOL    HW194736   3.969   9.018   9.151 -0.4131 -1.9931 -0.9809
31386SOL    HW294737   4.093   8.992   9.069 -0.0927 -1.7913 -0.5656
31387SOL     OW94738   9.675   0.711   6.190 -0.0245 -0.3969  0.1963
31387SOL    HW194739   9.725   0.774   6.139  1.3458 -1.1663  0.5372
31387SOL    HW294740   9.700   0.626   6.154 -1.6525 -0.7867 -0.0931
31388SOL     OW94741   2.409   4.998   0.432  0.1073  0.1117  0.0786
31388SOL    HW194742   2.457   5.023   0.512 -1.3816  2.5409  0.3005
31388SOL    HW294743   2.408   4.902   0.434 -0.6579  0.0796  3.4679
31389SOL     OW94744   5.931   5.308   0.536  0.2715  0.2404  0.1595
31389SOL    HW194745   5.986   5.230   0.538  1.3177  0.6996 -3.4057
31389SOL    HW294746   5.991   5.380   0.556 -0.7387  0.2616  3.6840
31390SOL     OW94747   1.802   5.310   6.544  0.3178  0.4254 -0.1475
31390SOL    HW194748   1.838   5.396   6.565  1.5012  0.1363 -0.9139
31390SOL    HW294749   1.875   5.261   6.506 -0.5607 -0.6230 -0.5584
31391SOL     OW94750   0.235   4.786   9.545 -0.0847  0.1493  0.2502
31391SOL    HW194751   0.218   4.844   9.619 -0.8948 -1.1827  1.1404
31391SOL    HW294752   0.159   4.796   9.488 -1.3457 -1.6724  1.5185
31392SOL     OW94753   9.275   4.206   2.918  0.0331 -0.2421  0.0384
31392SOL    HW194754   9.317   4.268   2.977  0.3331 -0.7558  0.3741
31392SOL    HW294755   9.342   4.187   2.852 -0.9652  1.9213 -1.7247
31393SOL     OW94756   8.786   7.415   1.294 -0.2227  0.0977  0.9901
31393SOL    HW194757   8.778   7.455   1.208 -2.3941 -1.1928  0.5078
31393SOL    HW294758   8.829   7.482   1.348  0.0267  1.4116 -0.7610
31394SOL     OW94759   0.216   5.862   4.426  0.1662  0.5752 -0.6085
31394SOL    HW194760   0.213   5.801   4.353 -2.2958  3.3484 -3.0641
31394SOL    HW294761   0.281   5.927   4.400 -0.1102  1.1473  0.0862
31395SOL     OW94762   5.310   0.199   7.334 -0.2598  0.0110  0.2874
31395SOL    HW194763   5.398   0.235   7.322  0.0034 -1.0963 -1.4616
31395SOL    HW294764   5.315   0.110   7.299 -1.9570 -0.2522  0.6132
31396SOL     OW94765   2.034   3.668   5.856  0.2485  0.0285  0.2762
31396SOL    HW194766   2.043   3.666   5.951 -0.3666 -1.0574  0.3367
31396SOL    HW294767   1.942   3.644   5.840 -0.3507  2.6043 -0.5336
31397SOL     OW94768   4.877   2.434   5.712 -0.3568  0.1140 -0.2344
31397SOL    HW194769   4.951   2.477   5.669  0.1684 -0.3913  0.1555
31397SOL    HW294770   4.879   2.465   5.802  1.1623 -2.0968  0.5650
31398SOL     OW94771   5.130   7.580  -0.012 -0.0598 -0.6801  0.4338
31398SOL    HW194772   5.156   7.615   0.073 -0.1547  0.0841  0.1568
31398SOL    HW294773   5.212   7.567  -0.059 -0.1025  0.9432 -0.1359
31399SOL     OW94774   7.561   8.588   8.634  0.7010  0.4865 -0.2925
31399SOL    HW194775   7.484   8.545   8.595 -0.7899  1.1828  1.6745
31399SOL    HW294776   7.636   8.541   8.599 -0.7853 -3.8361  1.6453
31400SOL     OW94777   3.572   1.127   3.423  0.1181  0.2691 -0.4187
31400SOL    HW194778   3.588   1.073   3.501  1.2562  0.8554 -0.2213
31400SOL    HW294779   3.657   1.167   3.404 -0.4811  1.2435 -1.1333
31401SOL     OW94780   0.517   7.562   1.805  0.1612 -0.2623 -0.1777
31401SOL    HW194781   0.488   7.561   1.714 -0.8189 -0.3662  0.1227
31401SOL    HW294782   0.518   7.470   1.831  1.6309 -0.3476 -0.4253
31402SOL     OW94783   3.818   4.637   8.416 -0.2733 -0.3587 -0.1760
31402SOL    HW194784   3.909   4.664   8.427  0.0345 -1.2819 -0.3186
31402SOL    HW294785   3.803   4.642   8.321 -1.0867  1.9360  0.0204
31403SOL     OW94786   6.267   8.113   9.632  0.2640 -0.2064 -0.3202
31403SOL    HW194787   6.326   8.147   9.565  0.2637  0.8492  0.1991
31403SOL    HW294788   6.285   8.166   9.709 -0.9329 -0.2652  0.0257
31404SOL     OW94789   5.126   6.108   3.859 -0.1172  0.1171 -0.0645
31404SOL    HW194790   5.221   6.122   3.855  0.0973 -1.3827 -1.3808
31404SOL    HW294791   5.117   6.015   3.881 -1.2594  0.0270 -0.8281
31405SOL     OW94792   4.477   1.636   1.316  0.1428  0.3943  0.3740
31405SOL    HW194793   4.525   1.709   1.277 -0.9171  1.9127  1.7739
31405SOL    HW294794   4.545   1.571   1.335  1.0145  0.6880 -1.5592
31406SOL     OW94795   3.817   6.921   3.730  0.0121  0.3009 -0.3714
31406SOL    HW194796   3.725   6.946   3.718 -0.2673 -1.0266 -1.1665
31406SOL    HW294797   3.820   6.829   3.705  1.2568 -0.1251  1.1611
31407SOL     OW94798   6.646   7.672   9.700 -0.1053 -0.2338  0.3760
31407SOL    HW194799   6.623   7.737   9.634 -0.0159 -0.9196 -0.3499
31407SOL    HW294800   6.739   7.653   9.683  0.0938  0.0511  1.1149
31408SOL     OW94801   4.013   9.254   4.427  0.0878 -0.7126 -0.0808
31408SOL    HW194802   3.989   9.177   4.376  2.3463 -0.8841 -1.0146
31408SOL    HW294803   3.938   9.314   4.417  0.5429 -0.5398 -4.0932
31409SOL     OW94804   5.866   1.155   2.410  0.1891  0.1138  0.0496
31409SOL    HW194805   5.866   1.190   2.499  0.7859  1.6622 -0.5325
31409SOL    HW294806   5.899   1.226   2.356 -2.1141 -0.0537 -1.7169
31410SOL     OW94807   8.924   0.789   2.601 -0.8154  0.3078  0.2963
31410SOL    HW194808   9.003   0.815   2.648 -1.8153  0.3426  2.0698
31410SOL    HW294809   8.928   0.694   2.598  0.2884  0.3648 -1.5296
31411SOL     OW94810   0.423   8.098   0.685 -0.2569 -0.3347 -0.7871
31411SOL    HW194811   0.410   8.175   0.629 -1.1001  0.2074  0.1164
31411SOL    HW294812   0.495   8.122   0.743 -0.8020 -0.0366 -0.2173
31412SOL     OW94813   1.406   7.935   8.130  0.5085 -0.2828 -0.8300
31412SOL    HW194814   1.433   7.936   8.222 -1.4175 -0.3076 -0.2247
31412SOL    HW294815   1.386   8.027   8.110 -1.1161 -0.5457 -0.5456
31413SOL     OW94816   7.549   3.079   8.586  0.0637  0.4398  0.5471
31413SOL    HW194817   7.502   3.021   8.646 -0.1478  1.1280  1.0594
31413SOL    HW294818   7.637   3.041   8.580  0.0349  0.2720  1.1586
31414SOL     OW94819   2.166   9.942   3.858 -0.1156 -0.2677  0.4349
31414SOL    HW194820   2.226  10.016   3.853  1.9897 -1.8195  1.0217
31414SOL    HW294821   2.179   9.896   3.775  0.5410 -1.3155  1.0918
31415SOL     OW94822   5.657   3.327   5.792 -0.1690  0.6775 -0.6864
31415SOL    HW194823   5.626   3.383   5.863  0.6866  1.0871 -0.6250
31415SOL    HW294824   5.718   3.266   5.834 -0.5383  0.1704 -0.8764
31416SOL     OW94825   9.601   9.796   6.794 -0.6146 -0.7371 -1.1848
31416SOL    HW194826   9.668   9.835   6.738  0.4793 -0.9703 -0.0743
31416SOL    HW294827   9.531   9.862   6.796  0.2942  0.2590 -1.0435
31417SOL     OW94828   2.405   9.436   6.011  0.2277 -0.5520  0.2708
31417SOL    HW194829   2.371   9.472   6.093  1.1878 -1.3938  1.0568
31417SOL    HW294830   2.327   9.409   5.963 -0.3694  0.3257  0.7118
31418SOL     OW94831   1.250   1.567   6.580  0.0718 -1.1710  0.0836
31418SOL    HW194832   1.335   1.578   6.537 -0.5293 -1.8419 -1.3396
31418SOL    HW294833   1.186   1.575   6.509 -1.0708 -0.6129  1.1399
31419SOL     OW94834   2.948   0.900   9.580 -0.3053 -0.4053 -0.4914
31419SOL    HW194835   2.884   0.907   9.509 -0.7796 -1.9263 -0.2526
31419SOL    HW294836   3.028   0.870   9.536 -0.9662 -2.6845 -0.2737
31420SOL     OW94837   3.916   7.038   4.484  0.4454 -0.0587 -0.2479
31420SOL    HW194838   4.008   7.015   4.497  0.0034 -0.9033  1.7602
31420SOL    HW294839   3.883   7.057   4.572 -1.3367  0.1045 -0.9012
31421SOL     OW94840   7.605   6.683   1.862 -0.2731  0.0750  0.2689
31421SOL    HW194841   7.528   6.627   1.861 -0.0675 -0.2544  1.4118
31421SOL    HW294842   7.571   6.771   1.872 -0.6469  0.3093 -2.2736
31422SOL     OW94843   4.558   2.205   6.237 -0.1819 -0.1027  0.2252
31422SOL    HW194844   4.637   2.213   6.184 -0.5575 -0.3566 -0.3864
31422SOL    HW294845   4.549   2.112   6.253 -0.8868 -0.1754 -0.5423
31423SOL     OW94846   0.734   5.819   5.779 -0.1999 -0.3460  0.2083
31423SOL    HW194847   0.808   5.867   5.742 -0.3841  1.6748  2.2383
31423SOL    HW294848   0.658   5.849   5.729 -0.5426  2.8270  2.3275
31424SOL     OW94849   2.970   7.088   4.097 -0.0520 -0.2009 -0.9975
31424SOL    HW194850   2.951   7.173   4.057 -0.1825  0.8479  1.1211
31424SOL    HW294851   3.061   7.070   4.074  0.4733  1.3006 -0.2241
31425SOL     OW94852   4.063   9.078   1.454 -0.0383  0.2118  0.0022
31425SOL    HW194853   3.982   9.113   1.492  0.5816 -0.7484  2.4014
31425SOL    HW294854   4.131   9.101   1.517  1.3688 -0.0824 -1.3529
31426SOL     OW94855   7.950   5.196   0.655 -0.1714 -0.4214 -0.0714
31426SOL    HW194856   7.940   5.218   0.562 -0.2100 -0.7295 -0.1405
31426SOL    HW294857   7.861   5.184   0.687 -0.1549 -0.3824 -0.0113
31427SOL     OW94858   6.319   3.662   6.623  0.3196  0.3341  0.2066
31427SOL    HW194859   6.381   3.598   6.588  0.9442 -0.0325  1.9110
31427SOL    HW294860   6.341   3.743   6.577  1.8311  0.1232  0.4965
31428SOL     OW94861   5.363   0.623   7.539  0.2561  0.1177 -0.6336
31428SOL    HW194862   5.290   0.581   7.494 -0.7730  0.2069  0.8628
31428SOL    HW294863   5.365   0.581   7.625  1.2635  0.8873 -0.2645
31429SOL     OW94864   6.580   9.693   9.102 -0.5938 -0.7997 -0.1254
31429SOL    HW194865   6.526   9.735   9.170 -0.7555 -1.2697  0.0361
31429SOL    HW294866   6.583   9.757   9.031 -1.1140 -0.6469 -0.0109
31430SOL     OW94867   0.876   8.232   8.383 -0.3233  0.3140  0.0112
31430SOL    HW194868   0.835   8.146   8.394  0.8673 -0.2049  0.7432
31430SOL    HW294869   0.823   8.291   8.436  0.0189 -0.4017  1.2031
31431SOL     OW94870   0.371   6.591   1.680 -0.2177 -0.5424  0.0323
31431SOL    HW194871   0.329   6.511   1.651 -0.2277 -0.9263  1.0713
31431SOL    HW294872   0.311   6.661   1.653 -0.6684 -0.9477 -0.0272
31432SOL     OW94873   6.167   6.399   4.785  0.3236  0.1100 -0.4089
31432SOL    HW194874   6.262   6.388   4.788  0.5396  1.7975  0.4771
31432SOL    HW294875   6.133   6.333   4.846  1.0348  0.3065  0.2169
31433SOL     OW94876   3.771   4.429   0.691  0.0362  0.5965 -0.0039
31433SOL    HW194877   3.866   4.444   0.699 -0.1104  1.0620  1.0147
31433SOL    HW294878   3.744   4.485   0.619  0.3000  1.6553  0.6941
31434SOL     OW94879   8.862   2.636   1.357  0.5972  0.0735 -0.6836
31434SOL    HW194880   8.810   2.561   1.385  1.2784 -0.2264 -0.2035
31434SOL    HW294881   8.799   2.708   1.352 -0.1563 -0.6231 -1.6034
31435SOL     OW94882   5.011   8.909   7.470  0.1677 -0.8259  0.0548
31435SOL    HW194883   5.099   8.906   7.431  0.8346 -0.3868  1.4447
31435SOL    HW294884   5.013   8.987   7.526 -1.8447  0.4379 -1.5256
31436SOL     OW94885   7.429   9.428   7.929 -0.4219 -0.7727  0.1509
31436SOL    HW194886   7.469   9.512   7.954 -2.0285  0.4422 -1.0854
31436SOL    HW294887   7.437   9.425   7.833 -0.6871 -1.8854  0.1489
31437SOL     OW94888   0.735   8.163   7.854 -0.1566  0.3685 -0.3841
31437SOL    HW194889   0.735   8.179   7.948  0.3208 -1.1421 -0.0992
31437SOL    HW294890   0.652   8.200   7.823  0.0280  1.5408  0.4963
31438SOL     OW94891   1.494   5.303   3.451 -0.3057 -0.1911  0.2345
31438SOL    HW194892   1.492   5.350   3.367 -0.1970  0.4859  0.5993
31438SOL    HW294893   1.581   5.263   3.454 -0.6430 -0.9984 -0.3825
31439SOL     OW94894   5.677   8.985   2.515  0.3517 -0.0298  0.3759
31439SOL    HW194895   5.673   8.998   2.610 -0.7040  2.0419  0.1019
31439SOL    HW294896   5.637   9.063   2.478  2.8260  0.3457 -1.8504
31440SOL     OW94897   2.079   0.614   1.015  0.2664  0.1793  0.3108
31440SOL    HW194898   2.173   0.613   1.036  0.5179  0.3237 -0.7356
31440SOL    HW294899   2.037   0.580   1.093  1.2295 -0.3095  0.6360
31441SOL     OW94900   5.383   9.691   2.875 -0.4120 -0.1106  0.2392
31441SOL    HW194901   5.303   9.665   2.828  0.6128 -0.8161 -1.1782
31441SOL    HW294902   5.450   9.698   2.807  0.1187  3.4282  0.9105
31442SOL     OW94903   6.076   7.552   6.847  0.5361 -0.3769  0.0854
31442SOL    HW194904   6.160   7.522   6.811  1.0833  0.9172  0.1922
31442SOL    HW294905   6.090   7.553   6.942  0.6101  0.3586  0.0776
31443SOL     OW94906   4.206   6.209   8.864  0.5169  0.2873 -0.1375
31443SOL    HW194907   4.227   6.156   8.786 -1.4197  0.3334 -0.7560
31443SOL    HW294908   4.204   6.146   8.936  2.0116  0.1891 -0.1544
31444SOL     OW94909   4.698   5.480   8.811  0.1038 -0.4672 -0.0165
31444SOL    HW194910   4.786   5.513   8.797 -0.1155 -0.0296 -0.3627
31444SOL    HW294911   4.702   5.439   8.898  0.4958  0.0613  0.2218
31445SOL     OW94912   9.582   7.400   8.238 -0.0485 -0.0053  0.0985
31445SOL    HW194913   9.488   7.411   8.220  0.0375  0.7979  0.1308
31445SOL    HW294914   9.597   7.306   8.228 -0.8051 -0.1036 -0.1713
31446SOL     OW94915   7.664   5.774   9.585  0.3666 -0.3079  0.1348
31446SOL    HW194916   7.695   5.853   9.542 -1.6086  0.9374  0.8856
31446SOL    HW294917   7.739   5.714   9.583  1.6746  1.3042 -1.0720
31447SOL     OW94918   3.049   9.843   6.751  0.0065  0.2025  0.0146
31447SOL    HW194919   2.961   9.819   6.780 -0.4916  0.1909 -1.4401
31447SOL    HW294920   3.095   9.868   6.832 -1.0021 -0.7715  0.9211
31448SOL     OW94921   7.968   3.767   1.557  0.1601 -0.2920 -0.0084
31448SOL    HW194922   8.030   3.782   1.629 -0.0727  1.7373 -0.1815
31448SOL    HW294923   7.972   3.847   1.505 -2.1024 -0.4064 -0.4294
31449SOL     OW94924   8.685   9.738   3.592 -0.2064  0.6486  0.1596
31449SOL    HW194925   8.776   9.735   3.622 -0.0755 -0.2406 -0.2990
31449SOL    HW294926   8.642   9.668   3.640 -0.6209  0.9668  0.2546
31450SOL     OW94927   1.111   0.723   0.529 -0.7026  0.1337 -0.3705
31450SOL    HW194928   1.093   0.799   0.473  2.0255  2.0053  1.0542
31450SOL    HW294929   1.200   0.696   0.504 -1.7146 -2.8976 -1.0494
31451SOL     OW94930   4.969   4.843   3.584 -0.0227  0.0853 -0.1491
31451SOL    HW194931   4.957   4.831   3.678 -0.7322  0.0145 -0.2393
31451SOL    HW294932   5.060   4.817   3.567  0.0987  0.0709  0.5074
31452SOL     OW94933   3.068   7.828   4.941  0.0869  0.3691 -0.1203
31452SOL    HW194934   3.118   7.748   4.929 -0.3119  0.3547 -1.9289
31452SOL    HW294935   3.133   7.893   4.970  0.2137 -0.8077  2.5999
31453SOL     OW94936   4.596   4.607   1.472  0.0171  0.0262  0.1248
31453SOL    HW194937   4.536   4.664   1.520  0.4215 -0.2846  1.0272
31453SOL    HW294938   4.571   4.617   1.380 -0.5657  0.8852  0.3664
31454SOL     OW94939   3.874   9.333   6.598 -0.4709 -0.3051 -0.1830
31454SOL    HW194940   3.959   9.322   6.640  0.3698  2.8703 -0.8188
31454SOL    HW294941   3.866   9.256   6.541  2.2320 -0.4355 -0.5103
31455SOL     OW94942   9.774   9.182   0.793  0.3154 -0.0151  0.5174
31455SOL    HW194943   9.759   9.192   0.887 -2.1708  1.8595  0.0053
31455SOL    HW294944   9.709   9.117   0.765  0.6062 -0.0755 -0.0285
31456SOL     OW94945   9.235   6.072   2.352 -0.2444  0.0072  0.3832
31456SOL    HW194946   9.183   5.992   2.360 -1.9296  0.9717 -0.2763
31456SOL    HW294947   9.255   6.097   2.442 -1.8299  0.1289  0.7441
31457SOL     OW94948   1.066   3.099   7.068 -0.0739  0.0162 -0.1262
31457SOL    HW194949   1.138   3.038   7.057 -0.1019 -0.0378 -0.0112
31457SOL    HW294950   1.087   3.147   7.148  0.0885  0.3492 -0.3645
31458SOL     OW94951   4.680   3.548   0.844  0.1790  0.2737  0.2860
31458SOL    HW194952   4.601   3.497   0.861  0.4020  0.2486  1.3514
31458SOL    HW294953   4.692   3.544   0.749 -0.0147 -1.3232  0.3131
31459SOL     OW94954   2.529   4.065   7.147 -0.6920 -0.0630 -0.1260
31459SOL    HW194955   2.566   4.124   7.081 -2.1305  1.5831  0.4445
31459SOL    HW294956   2.444   4.104   7.169 -1.4533 -2.0641  0.7249
31460SOL     OW94957   6.929   2.515   8.467 -0.0621  0.1219 -0.6541
31460SOL    HW194958   6.852   2.493   8.519  0.0018  2.6013  0.6542
31460SOL    HW294959   6.906   2.490   8.378 -1.9476 -0.2098 -0.1257
31461SOL     OW94960   3.676   8.574   6.679 -0.0028  0.1845  0.0793
31461SOL    HW194961   3.744   8.626   6.720 -0.8971  0.9626  0.6292
31461SOL    HW294962   3.696   8.576   6.586  0.8693  0.1639  0.2592
31462SOL     OW94963   6.958   4.378   6.791 -0.0890 -0.0758  0.4267
31462SOL    HW194964   6.943   4.367   6.697  0.1372  2.2423  0.0800
31462SOL    HW294965   7.048   4.411   6.798 -0.1849  0.0109  1.4404
31463SOL     OW94966   7.578   7.774   4.851  0.5501 -0.3453  0.0618
31463SOL    HW194967   7.553   7.855   4.808 -0.6946 -0.1174  1.1736
31463SOL    HW294968   7.673   7.780   4.861  0.8393 -0.2397 -2.2430
31464SOL     OW94969   5.187   1.103   5.143 -0.5383  0.4623  0.4602
31464SOL    HW194970   5.180   1.044   5.068 -1.9067  1.3156 -0.1052
31464SOL    HW294971   5.206   1.045   5.217 -2.4512 -0.7895  0.0337
31465SOL     OW94972   2.920   5.258   7.555  0.1728  0.2372  0.2557
31465SOL    HW194973   2.981   5.300   7.496 -0.1186  1.7695  0.9839
31465SOL    HW294974   2.918   5.316   7.632  1.1628 -2.0724  2.1449
31466SOL     OW94975   1.379   8.461   8.931 -0.1394  0.3030 -0.4649
31466SOL    HW194976   1.419   8.548   8.927  2.1972 -0.5851  1.3626
31466SOL    HW294977   1.374   8.441   9.025  0.7355 -2.0625 -0.8442
31467SOL     OW94978   1.231   2.690   4.139  0.1171 -0.2558 -0.1976
31467SOL    HW194979   1.203   2.625   4.204  1.6849  1.0987  1.9714
31467SOL    HW294980   1.163   2.757   4.140  0.8672  0.5308  1.2861
31468SOL     OW94981   0.416   4.120   4.111 -0.0302  0.7324 -0.1149
31468SOL    HW194982   0.435   4.031   4.139 -1.6663  1.1165  2.5152
31468SOL    HW294983   0.406   4.114   4.016 -0.3600 -1.9274  0.0327
31469SOL     OW94984   8.866   5.522   7.213 -0.4063 -0.0478 -0.8668
31469SOL    HW194985   8.961   5.516   7.223 -0.6000  0.5953  2.5139
31469SOL    HW294986   8.843   5.610   7.243 -2.2722 -1.3489  2.1702
31470SOL     OW94987   4.680   4.257   1.877  0.1374  0.6831 -0.1895
31470SOL    HW194988   4.601   4.283   1.925  0.6208  1.1368  0.3874
31470SOL    HW294989   4.742   4.231   1.946 -0.4180 -2.4459 -0.7329
31471SOL     OW94990   2.196   9.009   3.171 -0.9594  0.4294 -0.0127
31471SOL    HW194991   2.271   8.954   3.197 -0.4326  1.3064  0.3649
31471SOL    HW294992   2.127   8.946   3.151 -0.5495 -0.3640  0.9627
31472SOL     OW94993   4.913   8.055   3.437 -0.4283  0.0438 -0.2829
31472SOL    HW194994   4.837   8.013   3.476 -0.4566 -1.0671 -1.4456
31472SOL    HW294995   4.942   7.994   3.370  2.1251 -0.0405  0.7963
31473SOL     OW94996   4.754   7.846   7.611 -0.4426  0.4401 -0.0967
31473SOL    HW194997   4.840   7.877   7.583 -0.8304  0.5747 -1.2031
31473SOL    HW294998   4.761   7.751   7.611 -0.2067  0.4560  0.1248
31474SOL     OW94999   6.190   8.917   5.399  0.1642 -0.4062 -0.7675
31474SOL    HW195000   6.160   8.880   5.482 -0.0242  0.0763 -0.6149
31474SOL    HW295001   6.152   8.860   5.332  0.4550 -0.8944 -0.5189
31475SOL     OW95002   2.685   6.505   5.707 -0.1813  0.3303  0.2497
31475SOL    HW195003   2.669   6.599   5.716 -0.8675  0.1582  0.9718
31475SOL    HW295004   2.620   6.475   5.643 -0.4330  0.2336  0.5467
31476SOL     OW95005   2.157   2.539   0.164  0.1005 -0.3370  0.2478
31476SOL    HW195006   2.233   2.506   0.213 -0.7230 -1.1685  1.0086
31476SOL    HW295007   2.194   2.572   0.082  1.2741 -0.8194  0.5584
31477SOL     OW95008   1.408   0.596   3.398 -0.0053  0.1406  0.6281
31477SOL    HW195009   1.411   0.530   3.329 -2.5637 -0.7199  1.2318
31477SOL    HW295010   1.478   0.571   3.458 -1.0310 -2.2482  0.9525
31478SOL     OW95011   5.009   2.473   3.206 -0.1142  0.4121 -0.2167
31478SOL    HW195012   5.031   2.515   3.123  3.2833 -2.0409 -0.7616
31478SOL    HW295013   4.927   2.428   3.189  0.6930 -0.3510 -2.4303
31479SOL     OW95014   6.871   9.541   7.736  0.1027 -0.6372 -0.1081
31479SOL    HW195015   6.829   9.460   7.767  0.0415 -0.7993 -0.6008
31479SOL    HW295016   6.916   9.575   7.813  0.2996 -1.2519  0.0568
31480SOL     OW95017   5.675   6.501   3.978 -0.7156  0.7685 -0.5118
31480SOL    HW195018   5.654   6.584   4.020  0.9549  1.1768 -0.4427
31480SOL    HW295019   5.743   6.522   3.914  0.2302 -0.6473 -0.0203
31481SOL     OW95020   4.899   7.729   9.857 -0.1089  0.3024  0.1804
31481SOL    HW195021   4.855   7.736   9.941  0.2563  0.1320  0.3893
31481SOL    HW295022   4.986   7.694   9.878 -0.0869  0.0681 -0.2883
31482SOL     OW95023   0.446   5.479   0.134  0.1576 -0.9200 -0.1887
31482SOL    HW195024   0.450   5.450   0.043  0.2357  0.0283 -0.4876
31482SOL    HW295025   0.500   5.416   0.182 -0.3253 -1.7436 -0.7063
31483SOL     OW95026   8.804   2.678   7.375 -0.4843  0.2269  0.1208
31483SOL    HW195027   8.885   2.719   7.344 -1.5991  0.7523 -2.3617
31483SOL    HW295028   8.760   2.748   7.423  0.3598  0.0236  1.2370
31484SOL     OW95029   9.607   2.108   6.552  0.5428 -0.1486 -0.0816
31484SOL    HW195030   9.555   2.096   6.631  1.8221  0.1214  0.8344
31484SOL    HW295031   9.696   2.083   6.577  0.9260 -0.3248 -1.5173
31485SOL     OW95032   0.299   1.255   2.564 -0.4656  0.8011 -0.2567
31485SOL    HW195033   0.314   1.342   2.526  0.3816  1.1481  0.8141
31485SOL    HW295034   0.228   1.218   2.512 -0.6484  2.0198 -0.9159
31486SOL     OW95035   3.115   3.618   2.776  0.4817  0.2460  0.7312
31486SOL    HW195036   3.049   3.672   2.820 -1.6557 -1.1880 -0.5315
31486SOL    HW295037   3.117   3.537   2.828  0.1114 -0.3020 -0.0896
31487SOL     OW95038   1.212   7.584   5.367 -0.0697  0.4329 -0.4879
31487SOL    HW195039   1.183   7.675   5.363 -0.7501  0.2162 -0.6061
31487SOL    HW295040   1.154   7.537   5.307  0.1951 -0.0996 -0.3359
31488SOL     OW95041   0.636   3.536   7.024 -0.0364 -0.3528 -0.6286
31488SOL    HW195042   0.646   3.442   7.009  0.7808 -0.4581  0.4466
31488SOL    HW295043   0.561   3.544   7.083  1.1636 -0.5204  0.9736
31489SOL     OW95044   1.530   5.617   1.607  0.1364  0.6434  0.0772
31489SOL    HW195045   1.580   5.657   1.678 -0.2639  1.4330 -0.0735
31489SOL    HW295046   1.462   5.681   1.586  0.4099  0.5407 -1.1961
31490SOL     OW95047   0.601   3.917   9.349 -0.6705 -0.4289  0.2657
31490SOL    HW195048   0.649   3.880   9.424  0.1963 -0.5873 -0.3430
31490SOL    HW295049   0.522   3.955   9.387  0.1775  0.2948  1.3994
31491SOL     OW95050   7.123   7.437   0.740  0.5060 -0.2699  0.4149
31491SOL    HW195051   7.100   7.438   0.647 -0.7077 -2.0651  0.6415
31491SOL    HW295052   7.117   7.528   0.767  0.0122  0.1673 -1.0686
31492SOL     OW95053   9.170   6.494   0.566  0.0202  0.5938  0.2502
31492SOL    HW195054   9.254   6.536   0.546 -0.1256  0.5203 -0.5037
31492SOL    HW295055   9.156   6.432   0.495 -1.2479  1.4374 -0.2697
31493SOL     OW95056   9.544   9.579   3.631  0.8401  0.0511 -0.6165
31493SOL    HW195057   9.467   9.527   3.606  0.2667  0.6915 -0.2076
31493SOL    HW295058   9.519   9.621   3.713  2.3804 -1.3637  0.6554
31494SOL     OW95059   6.708   1.770   5.317 -0.5895 -0.1777  0.2831
31494SOL    HW195060   6.673   1.829   5.384  1.6296  2.6981 -0.8879
31494SOL    HW295061   6.742   1.695   5.367 -1.8030  0.3703  2.0372
31495SOL     OW95062   3.739   7.839   6.816  0.2246  0.7792  0.1134
31495SOL    HW195063   3.649   7.868   6.799  0.0927  0.4445  0.2401
31495SOL    HW295064   3.792   7.889   6.754  0.0686  1.7506  0.7390
31496SOL     OW95065   5.419   4.041   6.078 -0.4273 -0.6670 -0.9196
31496SOL    HW195066   5.371   4.123   6.073  0.0170 -0.3633 -0.2814
31496SOL    HW295067   5.510   4.064   6.057 -0.2659 -0.9542 -0.5557
31497SOL     OW95068   2.100   2.184   6.150 -0.3162 -0.1932 -0.5190
31497SOL    HW195069   2.080   2.266   6.104  0.5581  1.3410  1.6968
31497SOL    HW295070   2.175   2.148   6.103  0.2266  1.0545 -0.6470
31498SOL     OW95071   1.404   3.932   6.197  0.0848 -0.4140  0.1905
31498SOL    HW195072   1.344   3.880   6.144 -1.1657  0.7899  0.3566
31498SOL    HW295073   1.413   4.014   6.148  2.9028 -1.1310 -0.6471
31499SOL     OW95074   6.801   3.553   9.166 -0.1300 -0.4090 -0.2984
31499SOL    HW195075   6.857   3.573   9.241  0.5055 -0.6053 -0.7151
31499SOL    HW295076   6.859   3.560   9.091 -1.1436  1.6079 -0.9720
31500SOL     OW95077   2.231   1.977   6.361 -0.2792  0.3801 -0.3400
31500SOL    HW195078   2.198   1.899   6.315  0.2570 -0.0567 -0.0053
31500SOL    HW295079   2.286   1.941   6.431 -1.9683  0.9923  1.3711
31501SOL     OW95080   4.356   5.336   9.783  0.2773  0.0396  0.0652
31501SOL    HW195081   4.276   5.347   9.732  0.2917  2.1737  0.3970
31501SOL    HW295082   4.342   5.257   9.834 -0.8401 -0.6522 -1.2410
31502SOL     OW95083   7.483   4.079   3.605 -0.0438 -0.4715 -0.1145
31502SOL    HW195084   7.416   4.019   3.572 -1.7809  1.1840  0.2094
31502SOL    HW295085   7.451   4.166   3.581  0.6392  0.5552  2.3635
31503SOL     OW95086   7.294   9.937   0.688 -0.4859  0.5032 -0.1234
31503SOL    HW195087   7.328  10.015   0.646 -1.5364  0.0147 -2.0436
31503SOL    HW295088   7.199   9.940   0.671 -0.7262 -0.5331  0.8796
31504SOL     OW95089   4.177   6.847   5.266  0.1878 -0.2180  0.2933
31504SOL    HW195090   4.145   6.809   5.348  0.3582  0.1801  0.5482
31504SOL    HW295091   4.097   6.874   5.220 -0.0323 -2.1969 -0.5601
31505SOL     OW95092   4.434   3.562   2.318  0.4924 -0.0238  0.0658
31505SOL    HW195093   4.387   3.479   2.310 -1.0938  0.8656 -0.2194
31505SOL    HW295094   4.519   3.545   2.277 -0.6234 -0.8952 -2.0434
31506SOL     OW95095   0.618   1.022   2.861  0.4357  0.2128 -0.2447
31506SOL    HW195096   0.548   1.022   2.795 -1.8988  2.5586  1.9839
31506SOL    HW295097   0.581   0.975   2.936  1.1464  1.6124  1.0472
31507SOL     OW95098   7.627   6.445   7.031 -0.1304  0.6032  0.4842
31507SOL    HW195099   7.648   6.493   7.112 -1.9269  1.0646  0.7160
31507SOL    HW295100   7.532   6.440   7.030 -0.1390  0.4112 -1.5150
31508SOL     OW95101   7.273   5.763   6.385 -0.5027 -0.1521  0.6430
31508SOL    HW195102   7.280   5.762   6.480  1.4168  0.5632  0.5510
31508SOL    HW295103   7.208   5.696   6.365  0.6925 -1.9240  2.3436
31509SOL     OW95104   3.515   9.601   0.011  1.1468 -0.1552  0.6090
31509SOL    HW195105   3.553   9.658   0.077  0.6303 -0.1737  0.9244
31509SOL    HW295106   3.591   9.558  -0.030  1.4853  0.1202  0.9396
31510SOL     OW95107   2.059   9.147   5.043  0.4245  0.1269  0.3010
31510SOL    HW195108   2.154   9.143   5.039  0.4000 -0.0339 -0.2548
31510SOL    HW295109   2.037   9.235   5.013  0.3784 -0.0151 -0.0924
31511SOL     OW95110   1.873   1.083   5.357  0.3303 -0.5385 -0.1192
31511SOL    HW195111   1.878   0.989   5.339 -0.3591 -0.5182 -0.4301
31511SOL    HW295112   1.924   1.124   5.287 -0.9892 -0.5634 -1.1191
31512SOL     OW95113   5.326   0.679   0.843  0.0503  0.1953  0.2491
31512SOL    HW195114   5.411   0.720   0.860 -0.1155  1.4253 -1.6793
31512SOL    HW295115   5.291   0.724   0.767 -0.9126 -2.4403 -1.0146
31513SOL     OW95116   9.452   8.843   3.979  0.3861 -0.0022 -0.1028
31513SOL    HW195117   9.490   8.896   3.909  0.0724  1.4441  0.7852
31513SOL    HW295118   9.525   8.791   4.012  0.9598  0.6837 -0.2685
31514SOL     OW95119   3.607   4.863   7.684 -0.3913  0.2274  0.3721
31514SOL    HW195120   3.699   4.838   7.682 -0.9618 -2.0914  0.4891
31514SOL    HW295121   3.582   4.872   7.592 -0.3442 -0.3125  0.3073
31515SOL     OW95122   9.939   1.598   1.722 -0.0609 -0.6869 -0.2865
31515SOL    HW195123   9.908   1.547   1.797 -0.0624 -0.7649 -0.3404
31515SOL    HW295124   9.908   1.687   1.739 -2.4464 -1.2064 -1.5283
31516SOL     OW95125   0.289   0.951   1.200  0.2409 -0.4205  0.0329
31516SOL    HW195126   0.242   1.012   1.257  0.3340 -1.3655  1.1617
31516SOL    HW295127   0.227   0.880   1.185 -0.3744  0.5312 -2.4049
31517SOL     OW95128   6.599   7.922   1.545 -0.0756  0.3740 -0.4862
31517SOL    HW195129   6.510   7.895   1.568  0.1818  0.9344  1.3063
31517SOL    HW295130   6.656   7.864   1.595  0.5312  1.3572 -0.0034
31518SOL     OW95131   2.462   7.842   5.521 -0.1056 -0.2406  0.1987
31518SOL    HW195132   2.390   7.850   5.458 -0.0730  0.6274  0.2496
31518SOL    HW295133   2.485   7.750   5.520  2.7960  0.2133 -4.3297
31519SOL     OW95134   8.674   3.671   5.831 -0.4892  0.3165  0.0801
31519SOL    HW195135   8.686   3.629   5.916 -2.1202  0.4857  0.4384
31519SOL    HW295136   8.582   3.698   5.830  0.1848  2.8985 -0.5798
31520SOL     OW95137   7.606   3.978   5.328  0.4392  0.0192 -0.2100
31520SOL    HW195138   7.526   3.984   5.380  0.6620  0.0157  0.1338
31520SOL    HW295139   7.649   4.063   5.340  1.1138 -0.4255  0.6313
31521SOL     OW95140   5.389   8.019   8.909  0.3665  0.5264  0.4146
31521SOL    HW195141   5.423   8.078   8.977 -0.6459 -0.0279  1.4557
31521SOL    HW295142   5.410   7.931   8.941  1.0957  0.2875 -0.6916
31522SOL     OW95143   9.173   6.355   8.215  0.0380 -0.0151  0.0836
31522SOL    HW195144   9.136   6.357   8.127  0.3619  0.1871 -0.0492
31522SOL    HW295145   9.229   6.432   8.219  1.1622 -0.8002 -0.0295
31523SOL     OW95146   0.333   3.648   2.684  0.0853 -0.1715 -0.0252
31523SOL    HW195147   0.427   3.656   2.702  0.8594 -0.9035 -3.1375
31523SOL    HW295148   0.316   3.715   2.618 -1.7714  0.3332  0.9056
31524SOL     OW95149   2.898   8.071   6.458  0.2743  0.1548 -0.5198
31524SOL    HW195150   2.942   7.989   6.432 -2.5877 -2.1349  1.1687
31524SOL    HW295151   2.845   8.094   6.381  0.1205 -0.3495 -0.5757
31525SOL     OW95152   9.198   1.215   0.107  0.0854  0.3512  0.1784
31525SOL    HW195153   9.108   1.247   0.110 -0.0573  0.1472 -1.1333
31525SOL    HW295154   9.251   1.293   0.089  0.2104  0.5183  1.2413
31526SOL     OW95155   5.516   4.735   9.023  0.1971 -0.2470 -0.2116
31526SOL    HW195156   5.523   4.713   8.930  2.2605 -1.8505  0.2720
31526SOL    HW295157   5.540   4.655   9.069  3.2170  1.5728  1.6823
31527SOL     OW95158   2.503   4.704   9.166  0.0273 -0.2229 -0.3121
31527SOL    HW195159   2.538   4.731   9.081  0.4247 -0.8575 -0.3569
31527SOL    HW295160   2.462   4.783   9.202  0.0187  0.0945 -1.0111
31528SOL     OW95161   3.614   1.489   8.442 -0.1726 -0.4201 -0.5391
31528SOL    HW195162   3.537   1.432   8.437 -0.9477  0.2978  1.9868
31528SOL    HW295163   3.577   1.578   8.443  0.8810  0.0719 -1.9117
31529SOL     OW95164   4.720   1.397   7.070  0.7271  0.5441 -0.2716
31529SOL    HW195165   4.789   1.345   7.109 -0.3632 -0.7061  0.0758
31529SOL    HW295166   4.716   1.367   6.979 -0.4840 -0.6930  0.1456
31530SOL     OW95167   3.512   7.807   2.768 -0.4094  0.1041  0.4416
31530SOL    HW195168   3.550   7.728   2.804 -0.0554  0.0787  0.0249
31530SOL    HW295169   3.500   7.788   2.675  1.1248  1.0570  0.0029
31531SOL     OW95170   3.366   0.852   9.007  0.5401 -0.7704 -0.7441
31531SOL    HW195171   3.356   0.940   9.043  0.6320 -1.1593  0.2602
31531SOL    HW295172   3.307   0.797   9.059  0.3478 -1.2767 -1.4775
31532SOL     OW95173   2.990   3.166   4.130  0.6386  0.1482 -0.3926
31532SOL    HW195174   3.080   3.134   4.120  0.9486  0.9853 -0.4140
31532SOL    HW295175   2.947   3.100   4.184  0.0708 -2.4257 -3.6480
31533SOL     OW95176   0.211   3.749   1.578 -0.4903  0.3418  0.2608
31533SOL    HW195177   0.299   3.784   1.593 -1.2994  1.9745  1.5777
31533SOL    HW295178   0.217   3.704   1.494  1.8793 -0.6220  0.8473
31534SOL     OW95179   5.487   6.530   4.593 -0.3735  0.2238  0.0194
31534SOL    HW195180   5.428   6.459   4.569 -0.9714  0.7863 -0.2200
31534SOL    HW295181   5.504   6.516   4.686 -0.5605 -0.1731 -0.0031
31535SOL     OW95182   3.956   1.856   2.472  0.0839  0.0588 -0.3542
31535SOL    HW195183   3.911   1.926   2.425 -1.3204  0.0991  0.9694
31535SOL    HW295184   4.048   1.868   2.450 -0.2972  1.3796 -1.3625
31536SOL     OW95185   8.850   5.498   8.749  0.2339  0.1322 -0.2662
31536SOL    HW195186   8.943   5.498   8.728  0.3906 -2.3493  0.1517
31536SOL    HW295187   8.806   5.483   8.665  0.2589  0.2129 -0.2939
31537SOL     OW95188   0.377   0.497   9.425 -0.1413  0.0576 -0.0325
31537SOL    HW195189   0.360   0.462   9.338  2.5824  0.2134 -0.7142
31537SOL    HW295190   0.418   0.425   9.473  1.2108  0.8428  0.0591
31538SOL     OW95191   9.147   4.770   1.857 -0.1531 -0.0490 -0.1707
31538SOL    HW195192   9.146   4.857   1.896 -1.8573  0.9511 -2.1952
31538SOL    HW295193   9.107   4.782   1.770  1.6054 -2.4564 -1.4411
31539SOL     OW95194   0.815   9.173   4.515 -0.2794 -0.3658  0.0346
31539SOL    HW195195   0.723   9.176   4.544 -0.7625 -2.0266 -1.1995
31539SOL    HW295196   0.850   9.260   4.538 -2.3905  0.6297 -0.2579
31540SOL     OW95197   8.451   2.690   2.247 -0.4461 -0.8928 -0.2978
31540SOL    HW195198   8.512   2.758   2.275  0.5542 -2.1126  0.6097
31540SOL    HW295199   8.498   2.608   2.262 -1.6640 -1.8002 -1.2380
31541SOL     OW95200   4.210   3.666   0.127 -0.0564  0.1238  0.1294
31541SOL    HW195201   4.245   3.614   0.199 -1.0413  1.0707  1.3588
31541SOL    HW295202   4.140   3.717   0.167  0.2314  1.6651 -1.2322
31542SOL     OW95203   2.721   8.586   1.022 -0.0181  0.2088  0.6167
31542SOL    HW195204   2.758   8.581   1.110 -0.1575 -1.1254  0.6197
31542SOL    HW295205   2.788   8.547   0.965 -0.4275 -0.0465  0.3025
31543SOL     OW95206   4.687   1.401   2.262  0.1914  0.2957  0.2352
31543SOL    HW195207   4.628   1.476   2.268  0.7218  0.6887  0.6236
31543SOL    HW295208   4.735   1.401   2.345 -0.4682 -1.0520  0.6655
31544SOL     OW95209   7.712   2.503   5.053  0.1448  0.2395 -0.0595
31544SOL    HW195210   7.645   2.454   5.102  0.8768 -0.2471  0.4704
31544SOL    HW295211   7.748   2.565   5.117 -0.7141  1.4542 -0.6986
31545SOL     OW95212   7.538   3.252   1.250  0.3164 -0.0203 -0.1675
31545SOL    HW195213   7.546   3.283   1.340 -1.1921  1.4478 -0.4855
31545SOL    HW295214   7.619   3.280   1.207  1.5365 -1.6672  0.9374
31546SOL     OW95215   7.894   5.081   6.160  0.0355 -0.8959 -0.5959
31546SOL    HW195216   7.875   4.987   6.165  0.3192 -0.8977  1.2355
31546SOL    HW295217   7.808   5.123   6.161 -0.0709 -1.1140 -0.2812
31547SOL     OW95218   6.129   1.017   1.130 -0.2001 -0.1229  0.6735
31547SOL    HW195219   6.052   1.009   1.186 -0.8534  1.0223 -0.0148
31547SOL    HW295220   6.100   0.986   1.044 -0.5931  2.2238 -0.1357
31548SOL     OW95221   9.407   9.291   7.200  0.7427 -0.0285 -0.6512
31548SOL    HW195222   9.492   9.295   7.156  0.9726 -1.8043 -0.4608
31548SOL    HW295223   9.344   9.278   7.129  0.5383  1.7843 -0.8392
31549SOL     OW95224   9.064   6.192   3.044  0.3988 -0.0921  0.3290
31549SOL    HW195225   9.088   6.280   3.017 -0.5026  0.2093  0.4598
31549SOL    HW295226   9.088   6.188   3.137 -2.6034  1.2400  1.3017
31550SOL     OW95227   8.734   0.494   8.366 -0.4620 -0.5416 -0.2435
31550SOL    HW195228   8.682   0.430   8.318  0.5050 -0.9436 -0.7803
31550SOL    HW295229   8.825   0.467   8.352 -0.1109 -0.0453  0.9323
31551SOL     OW95230   0.106   9.887   4.553  0.0346 -0.3972 -0.2082
31551SOL    HW195231   0.061   9.945   4.613 -0.8025 -1.4920  0.2540
31551SOL    HW295232   0.173   9.843   4.607 -0.1059 -0.7076 -0.2846
31552SOL     OW95233   7.350   6.070   8.073 -0.2400  0.1144  0.0993
31552SOL    HW195234   7.382   6.039   8.157 -1.1389 -0.8807  0.0952
31552SOL    HW295235   7.299   5.997   8.038 -1.8853  1.3676 -0.2224
31553SOL     OW95236   2.809   7.686   5.146 -0.6047  1.0199 -0.1734
31553SOL    HW195237   2.756   7.760   5.115  1.0577  2.4628  0.2865
31553SOL    HW295238   2.803   7.690   5.242 -0.9641  0.1799 -0.1466
31554SOL     OW95239   3.676   6.316   5.497 -0.0982 -0.2083  0.0993
31554SOL    HW195240   3.676   6.220   5.494 -0.8542 -0.2236  0.4581
31554SOL    HW295241   3.732   6.342   5.424 -0.2578 -0.9179 -0.2823
31555SOL     OW95242   2.424   3.480   3.189  0.0482  0.1622  0.1767
31555SOL    HW195243   2.360   3.424   3.145  1.6519 -1.9285  0.3593
31555SOL    HW295244   2.408   3.465   3.282 -2.4820  3.5913  0.4890
31556SOL     OW95245   1.952   3.355   0.425 -0.0210  0.0047  0.1086
31556SOL    HW195246   1.990   3.369   0.512 -0.1584 -0.2377  0.2109
31556SOL    HW295247   1.946   3.259   0.417 -0.3151  0.0343 -0.0325
31557SOL     OW95248   8.985   6.339   4.483  0.3959 -0.1904  0.8729
31557SOL    HW195249   9.064   6.291   4.456 -0.0057  0.0109 -0.7653
31557SOL    HW295250   8.915   6.302   4.429  0.0151  1.9819 -0.2539
31558SOL     OW95251   0.005   9.558   9.569  0.2070  0.2867  0.1874
31558SOL    HW195252   0.016   9.643   9.526 -2.5331  0.7900  0.2969
31558SOL    HW295253   0.050   9.496   9.512  2.9789  1.8526  0.5253
31559SOL     OW95254   4.614   0.159   5.883  0.0887  0.5923 -0.0227
31559SOL    HW195255   4.553   0.157   5.958 -0.4062 -0.9288 -0.4394
31559SOL    HW295256   4.640   0.068   5.871 -0.1628  0.7353 -1.9597
31560SOL     OW95257   6.601   9.548   6.599  0.5855 -0.3392  0.0230
31560SOL    HW195258   6.556   9.518   6.520  0.7149 -0.4601 -0.0049
31560SOL    HW295259   6.676   9.489   6.608 -0.8650 -2.0873  1.7140
31561SOL     OW95260   2.554   9.494   8.431 -0.3943 -0.3079  0.8570
31561SOL    HW195261   2.599   9.556   8.489  1.4704 -0.8160  0.0261
31561SOL    HW295262   2.528   9.422   8.488 -0.0006 -0.0771  1.3416
31562SOL     OW95263   8.668   4.381   2.385 -0.4288 -0.1768 -0.2170
31562SOL    HW195264   8.603   4.447   2.410  2.2207  2.7419 -0.2570
31562SOL    HW295265   8.693   4.405   2.295  3.6010  1.7170  1.1521
31563SOL     OW95266   1.381   1.849   5.814  0.1540  0.2943 -0.8302
31563SOL    HW195267   1.454   1.909   5.827  0.8219 -0.5657 -0.5586
31563SOL    HW295268   1.316   1.901   5.766  0.5639  1.3397 -0.2921
31564SOL     OW95269   3.595   5.502   8.773 -0.5105 -0.1903 -0.0148
31564SOL    HW195270   3.619   5.502   8.681 -0.0676 -1.0798  0.0958
31564SOL    HW295271   3.635   5.582   8.808  1.4826 -1.1168 -0.0584
31565SOL     OW95272   7.999   8.955   3.019 -0.3957 -0.2503 -0.3014
31565SOL    HW195273   8.023   9.010   2.945  0.8109  0.5231  0.6241
31565SOL    HW295274   8.050   8.989   3.092 -1.8383 -0.7303  1.0040
31566SOL     OW95275   8.148   4.290   7.091 -0.7922  0.4210  0.5174
31566SOL    HW195276   8.149   4.356   7.022 -0.3900 -0.6748 -0.5587
31566SOL    HW295277   8.079   4.229   7.066 -2.1175  1.1413  2.2296
31567SOL     OW95278   2.846   2.832   5.931  0.4593 -0.2189  0.2663
31567SOL    HW195279   2.815   2.913   5.972 -1.1551 -1.1120  0.9355
31567SOL    HW295280   2.809   2.835   5.843 -1.4090 -1.1140  0.9480
31568SOL     OW95281   0.585   9.640   4.610 -0.2761 -0.0629 -0.4697
31568SOL    HW195282   0.491   9.636   4.628  0.2555  0.2204  3.1168
31568SOL    HW295283   0.601   9.731   4.583 -0.7107  0.7866  1.8827
31569SOL     OW95284   8.843   9.793   7.436 -0.3798  0.0602 -0.0812
31569SOL    HW195285   8.852   9.721   7.373  0.9047  1.8092 -2.0684
31569SOL    HW295286   8.784   9.854   7.393 -0.8879  0.5183  1.2490
31570SOL     OW95287   8.842   3.292   3.135  0.2718  0.4682 -0.5360
31570SOL    HW195288   8.859   3.306   3.042  0.1689 -0.5885 -0.7218
31570SOL    HW295289   8.899   3.219   3.159 -0.3842  0.1258  0.0095
31571SOL     OW95290   3.771   7.927   1.733 -0.1220 -0.3943  0.0132
31571SOL    HW195291   3.721   7.884   1.663 -0.9553  1.2910 -0.4744
31571SOL    HW295292   3.715   7.917   1.811 -2.0276  2.6281 -0.7933
31572SOL     OW95293   4.166   4.706   3.511 -0.3553  0.4162 -0.2901
31572SOL    HW195294   4.255   4.690   3.542 -0.0356 -0.8113 -1.7337
31572SOL    HW295295   4.111   4.678   3.584  0.4073 -0.7345 -0.1303
31573SOL     OW95296   2.351   7.179   8.806 -0.0157 -0.1039  0.7533
31573SOL    HW195297   2.316   7.118   8.870 -0.0010 -1.5828 -0.5790
31573SOL    HW295298   2.388   7.123   8.737 -2.4496  1.2947 -1.9080
31574SOL     OW95299   0.049   8.665   6.683 -0.0590 -0.4166 -0.1983
31574SOL    HW195300   0.049   8.601   6.754  0.0149  0.3821  0.5370
31574SOL    HW295301   0.055   8.613   6.603 -1.2927 -1.3902  0.3191
31575SOL     OW95302   2.488   2.392   5.007 -0.1652 -0.4747  0.2102
31575SOL    HW195303   2.464   2.462   4.947  0.2147 -1.8639 -1.6332
31575SOL    HW295304   2.581   2.405   5.023 -0.1780 -0.3559  0.1926
31576SOL     OW95305   2.211   2.105   0.196  0.3880 -0.2954 -0.0115
31576SOL    HW195306   2.296   2.120   0.239 -0.5624 -0.5763  2.0804
31576SOL    HW295307   2.167   2.041   0.252 -0.4495 -1.6997 -2.1418
31577SOL     OW95308   4.645   1.426   4.752 -0.4883 -0.3843 -0.0317
31577SOL    HW195309   4.714   1.397   4.693 -0.1587 -1.3136  0.7880
31577SOL    HW295310   4.657   1.374   4.831 -0.3250  1.5102  1.2446
31578SOL     OW95311   0.388   9.226   9.129 -0.2769  0.2726 -0.1409
31578SOL    HW195312   0.454   9.164   9.161 -0.0609  0.2408 -0.6456
31578SOL    HW295313   0.305   9.193   9.165  0.0377  0.6235  0.9493
31579SOL     OW95314   3.289   4.248   3.328 -0.3453  0.2780 -0.6845
31579SOL    HW195315   3.243   4.181   3.278 -0.4443 -0.2706  0.1163
31579SOL    HW295316   3.379   4.215   3.335  0.0221  1.0198 -1.6617
31580SOL     OW95317   2.122   6.134   4.895  0.2061 -0.6279  0.1111
31580SOL    HW195318   2.047   6.147   4.953  1.3870  0.6668  1.4252
31580SOL    HW295319   2.099   6.181   4.815  0.2376  1.1385  1.0929
31581SOL     OW95320   1.169   1.124   5.452  0.6325  0.4765  0.3328
31581SOL    HW195321   1.159   1.217   5.474 -0.0571  0.1821  1.2914
31581SOL    HW295322   1.174   1.123   5.356 -0.7166  1.3830  0.2338
31582SOL     OW95323   5.259   8.406   0.785 -0.6163  0.3149  0.1008
31582SOL    HW195324   5.305   8.465   0.725  0.1127 -0.2094  0.1316
31582SOL    HW295325   5.170   8.401   0.751 -0.1676 -0.1019 -1.0310
31583SOL     OW95326   8.340   7.751   9.092 -0.0790  0.3380 -0.0609
31583SOL    HW195327   8.283   7.825   9.070 -0.9788  0.0502  1.1715
31583SOL    HW295328   8.286   7.696   9.149  0.0613 -2.0381 -2.0621
31584SOL     OW95329   2.497   9.405   2.902  0.5636  0.1001  0.4673
31584SOL    HW195330   2.580   9.369   2.934  1.7727  0.9005 -1.6065
31584SOL    HW295331   2.495   9.494   2.937  1.6902  0.8352 -1.2101
31585SOL     OW95332   8.054   1.096   0.737  0.0933 -0.3316 -0.6724
31585SOL    HW195333   8.089   1.106   0.825 -1.2822 -2.4627  0.1739
31585SOL    HW295334   8.059   1.184   0.699 -1.1288  1.0881  2.2090
31586SOL     OW95335   0.745   3.271   1.378  0.6020  0.2138  0.2982
31586SOL    HW195336   0.808   3.211   1.337  0.9239  0.9623 -0.3198
31586SOL    HW295337   0.772   3.358   1.348 -2.3663  0.3935 -2.3020
31587SOL     OW95338   7.889   9.470   6.524  0.3700  0.0512  0.5824
31587SOL    HW195339   7.984   9.477   6.510  0.1805 -0.8825 -1.7614
31587SOL    HW295340   7.880   9.404   6.593  1.4271 -0.2164  0.4947
31588SOL     OW95341   9.742   9.231   2.808 -0.2635 -1.0049 -0.2689
31588SOL    HW195342   9.748   9.314   2.761 -1.8303 -0.4443  0.4413
31588SOL    HW295343   9.800   9.241   2.883  2.0939 -1.8303 -1.8890
31589SOL     OW95344   9.471   2.436   9.219  0.5905  0.2004  0.1429
31589SOL    HW195345   9.457   2.434   9.124  2.8813  1.5884 -0.2876
31589SOL    HW295346   9.429   2.517   9.248 -1.3620 -0.9015  0.6357
31590SOL     OW95347   1.829   3.966   6.413  0.1855  0.3997  0.1619
31590SOL    HW195348   1.785   3.986   6.495  1.9420  0.7386  1.0577
31590SOL    HW295349   1.786   3.886   6.382  0.1318 -0.2875  1.8936
31591SOL     OW95350   5.083   7.850   3.607  0.1087  0.1236 -0.3972
31591SOL    HW195351   5.128   7.793   3.669 -0.2772  1.6169  1.3249
31591SOL    HW295352   4.993   7.855   3.639 -0.3863  0.0690 -1.7104
31592SOL     OW95353   2.681   3.382   9.906 -0.4468  0.1578  1.0592
31592SOL    HW195354   2.671   3.373  10.001 -2.3728 -0.0479  0.8606
31592SOL    HW295355   2.676   3.477   9.891  0.4137  0.2384  1.1864
31593SOL     OW95356   6.118   5.247   7.822  0.3142 -0.5039  0.1590
31593SOL    HW195357   6.160   5.325   7.785 -0.8081 -0.0756 -0.2788
31593SOL    HW295358   6.036   5.280   7.858 -0.2013 -1.4998 -0.0811
31594SOL     OW95359   6.160   5.473   0.588  0.2932 -1.1276  0.0939
31594SOL    HW195360   6.212   5.416   0.643  2.5218 -0.3613 -1.0639
31594SOL    HW295361   6.213   5.485   0.509  0.7116  3.5374  0.7603
31595SOL     OW95362   9.911   7.229   7.694  0.7058  0.2307  0.0461
31595SOL    HW195363   9.983   7.229   7.631  1.0258 -0.6222  0.3989
31595SOL    HW295364   9.866   7.146   7.680 -0.3234  0.8256 -0.2809
31596SOL     OW95365   8.902   8.072  -0.001 -0.1656  0.0443 -0.0746
31596SOL    HW195366   8.941   8.069   0.087  1.8957 -0.5314 -0.9315
31596SOL    HW295367   8.964   8.125  -0.052 -1.3335  0.3727 -1.1807
31597SOL     OW95368   8.884   6.598   7.888  0.1680  0.2455  0.0610
31597SOL    HW195369   8.888   6.603   7.793 -0.1962  2.6777  0.1262
31597SOL    HW295370   8.863   6.687   7.917  2.2704  0.0621  2.5323
31598SOL     OW95371   0.506   8.110   4.420 -0.3208  0.2074  0.4299
31598SOL    HW195372   0.556   8.190   4.405  3.5110 -2.0313 -0.4032
31598SOL    HW295373   0.433   8.115   4.359  2.5374  1.0786 -3.3411
31599SOL     OW95374   6.041   9.947   5.748  1.2153 -0.1821  0.2536
31599SOL    HW195375   6.101  10.021   5.739  1.5530 -0.5571 -0.7813
31599SOL    HW295376   5.968   9.968   5.690  1.5925 -0.9185 -0.5084
31600SOL     OW95377   6.732   0.165   9.862 -0.0596  0.1163 -0.9227
31600SOL    HW195378   6.681   0.089   9.835  1.8511 -0.9508 -1.8006
31600SOL    HW295379   6.706   0.235   9.801 -0.1945 -0.5156 -1.6078
31601SOL     OW95380   1.026   5.148   1.062 -0.6218  0.0762 -0.6803
31601SOL    HW195381   1.085   5.182   1.129 -0.1429 -1.0931 -0.5016
31601SOL    HW295382   0.966   5.091   1.108 -0.4022 -0.5971 -1.2079
31602SOL     OW95383   2.474   7.943   3.167 -0.2531 -0.8600  0.2598
31602SOL    HW195384   2.382   7.946   3.193  0.1662  0.3634  1.7245
31602SOL    HW295385   2.522   7.978   3.242  1.5377 -2.6251  0.0324
31603SOL     OW95386   8.591   4.495   0.836  0.0872 -0.1714  0.0769
31603SOL    HW195387   8.585   4.517   0.743  0.6797 -0.5761 -0.0586
31603SOL    HW295388   8.538   4.415   0.844 -0.0989 -0.0455  0.1240
31604SOL     OW95389   6.465   8.199   7.760 -0.3307  0.3425 -0.3797
31604SOL    HW195390   6.443   8.166   7.673  0.9927  3.4338 -2.0274
31604SOL    HW295391   6.421   8.284   7.766  0.7639  0.8425  1.3785
31605SOL     OW95392   6.835   3.668   5.936  0.8025  0.5256  0.2371
31605SOL    HW195393   6.874   3.580   5.941 -1.3158 -0.5010 -0.1384
31605SOL    HW295394   6.854   3.697   5.847 -0.5415 -0.6234 -0.4646
31606SOL     OW95395   7.409   2.074   6.659  0.1238 -0.1739 -0.2717
31606SOL    HW195396   7.469   1.999   6.660 -0.8914 -1.0167 -0.1471
31606SOL    HW295397   7.330   2.041   6.617  0.6588  1.7013 -2.9819
31607SOL     OW95398   8.134   2.402   3.330  0.5030  0.4198  0.2456
31607SOL    HW195399   8.118   2.492   3.300 -1.1314  0.1615  0.2631
31607SOL    HW295400   8.115   2.404   3.424 -0.0387 -0.0466  0.1505
31608SOL     OW95401   4.631   0.364   8.380  0.5002  0.1071  0.1889
31608SOL    HW195402   4.567   0.349   8.310 -0.2502 -0.4108  0.9734
31608SOL    HW295403   4.679   0.281   8.387  0.5636  0.1535  0.3066
31609SOL     OW95404   6.690   1.744   5.067 -0.9056  0.1687  0.1436
31609SOL    HW195405   6.689   1.741   5.163 -0.2879  1.3068  0.2063
31609SOL    HW295406   6.616   1.800   5.044 -0.3072  0.9388  0.0340
31610SOL     OW95407   7.177   4.824   9.852  0.1262  0.1040 -0.0483
31610SOL    HW195408   7.196   4.731   9.856  1.5385  0.2339 -2.0034
31610SOL    HW295409   7.085   4.829   9.827 -0.0963 -0.7366  0.5660
31611SOL     OW95410   3.300   0.374   2.031  0.2932  1.0660 -0.6136
31611SOL    HW195411   3.262   0.426   1.959  0.2331 -0.2219 -1.5521
31611SOL    HW295412   3.313   0.287   1.993 -2.1721 -0.4318  1.6482
31612SOL     OW95413   3.395   6.763   0.735 -0.3934  0.2814 -0.5433
31612SOL    HW195414   3.382   6.799   0.823  1.2819 -0.6703  0.1431
31612SOL    HW295415   3.316   6.787   0.687 -1.8562 -0.1091  1.5412
31613SOL     OW95416   6.763   8.024   3.777 -0.1796  0.6791 -0.0799
31613SOL    HW195417   6.714   7.977   3.845 -0.4348  0.1453 -0.6216
31613SOL    HW295418   6.737   8.115   3.786 -0.7948  0.4920  0.0476
31614SOL     OW95419   3.134   9.635   2.701 -0.0948  0.0129 -0.0368
31614SOL    HW195420   3.216   9.624   2.652 -0.1062  1.5225 -0.4284
31614SOL    HW295421   3.129   9.556   2.756  0.7162 -0.9513 -1.2917
31615SOL     OW95422   7.026   2.603   3.633  0.3920  0.5904  0.6724
31615SOL    HW195423   7.090   2.583   3.564 -0.7085 -0.6481 -0.0475
31615SOL    HW295424   7.072   2.662   3.692  1.1578  2.3025 -1.5015
31616SOL     OW95425   9.033   3.371   2.599 -0.5872 -0.2142 -0.4396
31616SOL    HW195426   9.102   3.330   2.651 -1.2912 -0.5904  0.2233
31616SOL    HW295427   9.074   3.389   2.514  0.3999 -0.1643  0.0305
31617SOL     OW95428   7.325   0.678   3.511 -0.1725 -0.1052 -1.1462
31617SOL    HW195429   7.282   0.606   3.465  0.3707 -0.8548 -0.5229
31617SOL    HW295430   7.418   0.655   3.509  0.1888  1.3005 -2.1667
31618SOL     OW95431   6.810   8.276   3.617 -0.5341 -0.2131 -0.3369
31618SOL    HW195432   6.865   8.249   3.543 -0.1114  1.7112 -0.7801
31618SOL    HW295433   6.767   8.356   3.587 -0.5083  0.5129  1.4288
31619SOL     OW95434   6.037   4.320   4.119  0.2095 -0.1203  0.0736
31619SOL    HW195435   6.113   4.278   4.081 -0.6493  0.4310 -2.4534
31619SOL    HW295436   6.006   4.259   4.186  1.1578 -1.7178 -0.8911
31620SOL     OW95437   6.398   6.806   6.292 -0.6481 -0.0634  0.1492
31620SOL    HW195438   6.407   6.744   6.364 -1.9650 -0.1419  0.2576
31620SOL    HW295439   6.381   6.890   6.334  1.7934  0.5804  0.0358
31621SOL     OW95440   3.590   8.173   6.435 -0.0094  0.0544  0.8172
31621SOL    HW195441   3.536   8.239   6.391 -1.3419 -0.6583  1.3270
31621SOL    HW295442   3.534   8.094   6.438  0.6148 -0.3677  2.3887
31622SOL     OW95443   0.937   2.343   2.768 -0.2981 -0.6306  0.0108
31622SOL    HW195444   0.843   2.329   2.754 -0.2486 -1.1618  0.1643
31622SOL    HW295445   0.970   2.372   2.683 -0.3376 -1.9457 -0.4786
31623SOL     OW95446   0.687   7.475   8.284  0.4360  0.5017 -0.3608
31623SOL    HW195447   0.751   7.408   8.259  0.0324 -0.2720  0.6017
31623SOL    HW295448   0.657   7.513   8.201  0.0698 -1.0894 -0.9845
31624SOL     OW95449   1.708   7.772   6.913 -0.1615  0.3091 -0.1256
31624SOL    HW195450   1.693   7.809   6.826 -0.3726  1.6395  0.4673
31624SOL    HW295451   1.802   7.787   6.929 -0.1051 -0.0078 -0.1522
31625SOL     OW95452   2.562   9.927   0.606 -0.2735  0.0345  0.4413
31625SOL    HW195453   2.553   9.929   0.701  1.2916 -0.0530  0.6288
31625SOL    HW295454   2.611  10.006   0.585 -2.4510  1.1885 -0.5690
31626SOL     OW95455   6.353   1.260   5.158  0.0235  0.0661 -0.7890
31626SOL    HW195456   6.393   1.304   5.083  0.0071  0.4988 -0.5489
31626SOL    HW295457   6.350   1.167   5.133 -0.5977  0.2924 -1.5971
31627SOL     OW95458   9.545   8.395   1.199  0.3810 -0.3873 -0.0521
31627SOL    HW195459   9.586   8.362   1.279  1.4675 -1.0108 -0.8378
31627SOL    HW295460   9.607   8.459   1.164  0.4331 -0.9076 -0.9500
31628SOL     OW95461   6.188   7.139   4.825  0.1689 -0.0714  0.3166
31628SOL    HW195462   6.133   7.214   4.805 -0.5289 -0.1431  1.8155
31628SOL    HW295463   6.232   7.162   4.907 -0.7389 -1.6062  1.2967
31629SOL     OW95464   2.561   1.976   9.380  0.0927  0.1394 -0.1270
31629SOL    HW195465   2.468   1.983   9.399  0.0463  1.0108 -0.6143
31629SOL    HW295466   2.601   1.945   9.461 -0.5915 -0.0414  0.1409
31630SOL     OW95467   6.265   6.259   2.229 -0.0742 -0.2409  0.6269
31630SOL    HW195468   6.283   6.246   2.136 -1.5153 -0.8557  0.3972
31630SOL    HW295469   6.200   6.192   2.250 -0.7511  0.7223  1.7550
31631SOL     OW95470   3.962   0.025   7.153  0.1199  0.6059 -0.2146
31631SOL    HW195471   3.951  -0.015   7.067  1.9113 -1.2354  0.3276
31631SOL    HW295472   3.984   0.117   7.134  1.3768  0.0335 -1.7705
31632SOL     OW95473   6.570   0.097   3.245 -0.2851  0.0033 -0.4582
31632SOL    HW195474   6.589   0.003   3.246 -0.3582 -0.0505  1.8903
31632SOL    HW295475   6.644   0.137   3.291 -0.5843  1.0190 -0.8354
31633SOL     OW95476   6.802   6.044   8.163 -0.2093 -0.6949  0.0349
31633SOL    HW195477   6.874   6.094   8.202 -0.7032 -0.4160  0.5927
31633SOL    HW295478   6.846   5.981   8.105  0.6628 -2.0061  1.9902
31634SOL     OW95479   3.256   5.168   8.013  0.2785  0.1655  0.3088
31634SOL    HW195480   3.326   5.164   7.948  1.7423  0.0886  1.8416
31634SOL    HW295481   3.177   5.182   7.961  1.2888 -0.6303 -1.5365
31635SOL     OW95482   9.674   8.665   8.072  0.0062 -0.1403 -0.5055
31635SOL    HW195483   9.605   8.709   8.023  0.9102 -0.1263 -1.8112
31635SOL    HW295484   9.742   8.645   8.007  0.6889 -1.2812  0.5001
31636SOL     OW95485   4.710   8.519   2.242 -0.2818  0.5385 -0.1873
31636SOL    HW195486   4.734   8.477   2.160 -0.6758  1.2099 -0.6533
31636SOL    HW295487   4.640   8.464   2.278 -0.6115  0.6420 -0.6619
31637SOL     OW95488   8.285   0.475   5.373 -0.3253  0.2797  0.4865
31637SOL    HW195489   8.340   0.515   5.441  1.0696  1.0736 -1.0534
31637SOL    HW295490   8.257   0.548   5.318  1.9808 -0.6960 -2.1812
31638SOL     OW95491   5.539   1.057   4.811 -0.1921 -0.3566  0.0709
31638SOL    HW195492   5.473   0.995   4.781 -0.1346 -0.1656 -0.4721
31638SOL    HW295493   5.621   1.024   4.774  0.3128 -1.4914  2.0421
31639SOL     OW95494   9.342   2.293   2.241  0.5866  0.7740 -0.0654
31639SOL    HW195495   9.384   2.326   2.162  2.0665 -1.1987 -0.1933
31639SOL    HW295496   9.255   2.264   2.213  0.9998  0.3484 -0.9385
31640SOL     OW95497   3.563   6.250   7.927 -0.2130  0.2443  0.0152
31640SOL    HW195498   3.546   6.260   8.021  0.7112  1.3055  0.1040
31640SOL    HW295499   3.659   6.247   7.921 -0.2010  1.4398 -0.9742
31641SOL     OW95500   6.267   5.091   8.287 -0.1576 -0.2465  0.4253
31641SOL    HW195501   6.249   5.092   8.193 -1.6089  1.6490  0.6710
31641SOL    HW295502   6.245   5.002   8.314  1.1306 -1.1165 -1.1226
31642SOL     OW95503   3.132   8.185   9.012 -0.0487 -0.3492  0.4108
31642SOL    HW195504   3.138   8.240   8.934  0.0524 -1.3502 -0.3039
31642SOL    HW295505   3.053   8.216   9.056 -0.5460 -0.2843 -0.4954
31643SOL     OW95506   4.338   8.810   9.488 -0.9233 -0.2151 -0.3094
31643SOL    HW195507   4.310   8.820   9.579 -1.8465  1.0160 -0.6927
31643SOL    HW295508   4.407   8.876   9.478 -0.7299 -0.4426 -0.4581
31644SOL     OW95509   8.092   8.919   2.501  0.3333 -0.0802  0.0116
31644SOL    HW195510   8.047   8.861   2.562 -0.3028  1.4830  1.0988
31644SOL    HW295511   8.024   8.977   2.467  1.1912  1.1678  0.3198
31645SOL     OW95512   4.928   3.989   0.940  0.0324  0.1372 -0.0702
31645SOL    HW195513   4.975   3.907   0.952 -0.1309 -0.3117 -2.0943
31645SOL    HW295514   4.991   4.047   0.897 -0.2611  0.6276  0.1507
31646SOL     OW95515   5.673   3.490   9.277  0.3487  0.3859 -0.0106
31646SOL    HW195516   5.614   3.415   9.278 -0.5819  1.0836 -0.9552
31646SOL    HW295517   5.701   3.498   9.186  0.8272  0.8963  0.1736
31647SOL     OW95518   6.821   3.210   9.080 -0.1868  0.1547 -0.5693
31647SOL    HW195519   6.903   3.213   9.030 -0.9619  1.2202 -1.8525
31647SOL    HW295520   6.776   3.132   9.047  0.6988 -1.0036  0.8485
31648SOL     OW95521   9.122   9.315   1.143 -0.3985  0.2818 -0.4981
31648SOL    HW195522   9.090   9.265   1.068 -1.3617 -0.8267  0.6011
31648SOL    HW295523   9.205   9.274   1.166 -0.5598  0.0203 -0.3827
31649SOL     OW95524   1.931   7.525   6.165  0.2504  0.2518  0.0586
31649SOL    HW195525   1.908   7.455   6.226  1.5858 -0.0066  0.2832
31649SOL    HW295526   1.941   7.603   6.220  1.4389  0.0220  0.1925
31650SOL     OW95527   5.151   7.203   9.930 -0.1626  0.2194 -0.2752
31650SOL    HW195528   5.098   7.221   9.852 -0.0537  0.3103 -0.3279
31650SOL    HW295529   5.230   7.257   9.919  1.4453 -2.2291 -1.7500
31651SOL     OW95530   7.502   9.193   5.071 -0.0205  0.0660 -0.4764
31651SOL    HW195531   7.414   9.204   5.035  0.4513 -1.4336 -2.2226
31651SOL    HW295532   7.535   9.113   5.031  0.8323 -1.4647  2.8982
31652SOL     OW95533   5.621   5.802   5.363 -0.4534  0.2218  0.0645
31652SOL    HW195534   5.592   5.892   5.377  0.2177  0.5988 -0.9505
31652SOL    HW295535   5.553   5.749   5.405 -0.5524  1.1981  1.2047
31653SOL     OW95536   4.147   3.254   8.729  0.2414 -0.1031  0.0715
31653SOL    HW195537   4.090   3.243   8.652  0.9179  1.2422 -0.6640
31653SOL    HW295538   4.235   3.236   8.697  0.2418 -3.2673  1.4587
31654SOL     OW95539   9.220   9.192   3.659  0.1924 -0.2086 -0.4567
31654SOL    HW195540   9.253   9.282   3.671 -0.2148 -0.1394  0.1853
31654SOL    HW295541   9.250   9.168   3.571 -0.7943  1.0462 -1.1912
31655SOL     OW95542   6.309   1.509   5.796  0.1124  0.2181 -0.1600
31655SOL    HW195543   6.293   1.470   5.882  1.4581  0.5789  0.2891
31655SOL    HW295544   6.347   1.595   5.816 -1.5852  1.2357 -1.1229
31656SOL     OW95545   2.935   7.960   1.037  0.3674 -0.0080  0.1697
31656SOL    HW195546   2.851   7.955   0.991 -0.3469  0.5515  1.3483
31656SOL    HW295547   2.913   7.941   1.128  1.5019  0.3290  0.5277
31657SOL     OW95548   5.505   2.850   3.726 -0.6153 -0.2747  0.2181
31657SOL    HW195549   5.465   2.825   3.643  0.5073 -0.9833 -0.1241
31657SOL    HW295550   5.431   2.859   3.786 -1.2984 -1.4184 -0.4243
31658SOL     OW95551   5.929   7.479   7.860  0.3351 -0.4378 -0.0018
31658SOL    HW195552   5.953   7.417   7.929  1.7242  2.8708  2.8021
31658SOL    HW295553   5.842   7.510   7.885 -0.3731 -1.2277 -1.4086
31659SOL     OW95554   0.767   7.502   4.991  0.0220  0.4437 -0.2109
31659SOL    HW195555   0.824   7.574   5.018  0.8377 -0.5665  0.8407
31659SOL    HW295556   0.780   7.494   4.897 -0.2915  1.8373 -0.3929
31660SOL     OW95557   3.878   8.134   6.390  0.3023 -0.3213  0.6531
31660SOL    HW195558   3.789   8.168   6.382  1.0956  1.9344  0.5652
31660SOL    HW295559   3.888   8.073   6.317 -0.9875 -0.1841  0.3472
31661SOL     OW95560   3.376   4.312   7.044 -0.0861 -0.8592 -0.0160
31661SOL    HW195561   3.308   4.302   7.111 -0.7581  3.2600  0.1525
31661SOL    HW295562   3.454   4.338   7.093  0.9767 -2.9351 -0.4794
31662SOL     OW95563   4.410   2.927   9.175  0.0081 -0.4312  0.2166
31662SOL    HW195564   4.343   2.924   9.107  0.1471  1.0022 -0.0192
31662SOL    HW295565   4.363   2.953   9.254  0.1665 -0.1586  0.2213
31663SOL     OW95566   5.691   0.598   1.465 -0.4162 -0.0251 -0.3022
31663SOL    HW195567   5.617   0.659   1.465  0.4276  1.0404  0.4906
31663SOL    HW295568   5.754   0.638   1.405  0.3701  0.1915  0.6489
31664SOL     OW95569   0.433   6.724   8.176 -0.2063 -0.1261 -0.5120
31664SOL    HW195570   0.391   6.658   8.231  2.2031  1.7020  4.0028
31664SOL    HW295571   0.397   6.807   8.205  0.4044  0.9449 -2.5861
31665SOL     OW95572   7.221   5.503   6.529 -0.2184 -0.1242  0.6039
31665SOL    HW195573   7.300   5.459   6.498 -0.3564  1.1965 -1.9047
31665SOL    HW295574   7.151   5.441   6.511 -0.1706  0.2217 -0.8753
31666SOL     OW95575   2.408   7.803   4.120 -0.0342 -0.5181  0.3202
31666SOL    HW195576   2.450   7.774   4.201  1.0564  0.6926  0.2069
31666SOL    HW295577   2.386   7.722   4.074 -0.3143 -1.2122  1.6368
31667SOL     OW95578   8.708   4.688   8.040 -0.3123  0.3426  0.3039
31667SOL    HW195579   8.779   4.734   7.997  0.3367 -1.0751 -0.2115
31667SOL    HW295580   8.720   4.596   8.014 -1.9938 -0.0112  0.6577
31668SOL     OW95581   6.680   3.713   2.124 -0.6483 -0.2997  0.7048
31668SOL    HW195582   6.747   3.662   2.078  0.2111 -0.3343  1.9340
31668SOL    HW295583   6.641   3.651   2.186  0.0945  0.3834  1.9003
31669SOL     OW95584   0.424   3.075   7.989 -0.6238 -0.8960  0.2871
31669SOL    HW195585   0.479   3.000   8.012 -1.0404 -0.6561  2.3216
31669SOL    HW295586   0.368   3.087   8.066 -2.9213 -0.5777 -1.3467
31670SOL     OW95587   5.505   6.021   7.559  0.5412  0.5141 -0.4540
31670SOL    HW195588   5.438   6.040   7.624 -0.1763 -0.0060 -1.0249
31670SOL    HW295589   5.544   5.938   7.588 -0.1203  0.0199 -0.9319
31671SOL     OW95590   5.732   1.529   8.578  0.0545  0.3463  0.2831
31671SOL    HW195591   5.828   1.524   8.577  0.1292  1.6414 -0.5398
31671SOL    HW295592   5.710   1.546   8.670  0.6574  0.8025  0.3473
31672SOL     OW95593   0.511   3.733   1.454  0.3522  0.3326 -0.4660
31672SOL    HW195594   0.477   3.822   1.449 -1.1547 -0.1574  0.1228
31672SOL    HW295595   0.492   3.695   1.369 -0.1083  0.2237 -0.3179
31673SOL     OW95596   6.123   4.979   5.343  0.3285  0.2554  0.2366
31673SOL    HW195597   6.125   4.978   5.438 -0.5598 -1.2233  0.2689
31673SOL    HW295598   6.061   4.910   5.319  1.6750 -0.4612 -1.4452
31674SOL     OW95599   2.775   5.665   3.640  0.0112  0.5547  0.0852
31674SOL    HW195600   2.793   5.749   3.683  1.9612  1.4381 -2.1951
31674SOL    HW295601   2.831   5.602   3.686  1.6705  1.3733 -0.7175
31675SOL     OW95602   9.077   9.508   3.000 -0.0922  0.1305 -0.0603
31675SOL    HW195603   9.155   9.553   2.967 -0.2782  0.9681  0.5934
31675SOL    HW295604   9.051   9.449   2.929  0.5621  0.5594 -0.6701
31676SOL     OW95605   7.181   1.148   4.851 -0.3451 -0.0466 -0.1593
31676SOL    HW195606   7.112   1.198   4.807  0.2890  2.0627  1.1008
31676SOL    HW295607   7.255   1.150   4.790 -0.8195 -0.8715 -0.7890
31677SOL     OW95608   6.570   6.858   3.399  0.9545  0.2274  0.1022
31677SOL    HW195609   6.570   6.951   3.374  0.6948  0.2792  0.2842
31677SOL    HW295610   6.492   6.849   3.455 -0.6109 -0.6751 -2.0894
31678SOL     OW95611   7.220   1.697   8.538 -0.6930  0.0524 -0.0437
31678SOL    HW195612   7.193   1.763   8.475 -1.1694 -0.8336 -0.7979
31678SOL    HW295613   7.138   1.669   8.580 -0.2786  1.3048  1.6710
31679SOL     OW95614   8.638   0.344   1.616 -0.0635  0.4514  0.0358
31679SOL    HW195615   8.680   0.314   1.536 -0.3351 -1.2386  0.4893
31679SOL    HW295616   8.693   0.310   1.687 -0.9633  0.1313  0.5935
31680SOL     OW95617   2.782   4.317   9.811 -0.5905 -0.0864 -0.0321
31680SOL    HW195618   2.810   4.397   9.855 -1.0749 -0.4678  1.0104
31680SOL    HW295619   2.700   4.292   9.855 -1.8658  0.2418 -2.0562
31681SOL     OW95620   3.914   1.253   1.243  0.5176  0.0106  0.1468
31681SOL    HW195621   3.980   1.287   1.303  0.6392  0.9523 -0.4963
31681SOL    HW295622   3.836   1.240   1.298  0.9956 -0.3669  0.7490
31682SOL     OW95623   6.565   0.933   5.352 -0.1066 -0.2525 -0.1216
31682SOL    HW195624   6.634   0.982   5.395 -0.6551 -0.9179  1.6267
31682SOL    HW295625   6.484   0.981   5.373 -0.6099 -1.6303  1.3577
31683SOL     OW95626   7.687   0.188   0.809 -1.0230  0.9276 -0.1915
31683SOL    HW195627   7.616   0.143   0.856 -1.1635  2.4660  1.1854
31683SOL    HW295628   7.699   0.138   0.728 -0.9254 -1.7471  1.3624
31684SOL     OW95629   6.483   4.205   1.274 -0.2014 -0.2376 -0.1713
31684SOL    HW195630   6.456   4.255   1.197 -3.0318 -0.2388  0.7090
31684SOL    HW295631   6.431   4.125   1.270  0.9545 -1.0876  0.8212
31685SOL     OW95632   6.746   6.483   4.926  0.1286  0.3020  0.3217
31685SOL    HW195633   6.684   6.474   4.853  0.4982 -0.4117  0.0869
31685SOL    HW295634   6.691   6.507   5.001 -0.7813 -2.4815  0.6507
31686SOL     OW95635   6.305   8.341   8.337  0.5432  0.2638 -0.1330
31686SOL    HW195636   6.264   8.288   8.269 -0.2771  0.7359 -0.0148
31686SOL    HW295637   6.305   8.430   8.300 -0.6502  0.6710  0.7970
31687SOL     OW95638   0.086   3.645   8.596  0.1676 -0.2671  0.0441
31687SOL    HW195639   0.126   3.655   8.683  0.0802  1.9002 -0.1228
31687SOL    HW295640   0.141   3.580   8.553  1.0155 -0.4078  1.2667
31688SOL     OW95641   1.056   4.530   4.637 -0.2775  0.4270 -0.4410
31688SOL    HW195642   1.085   4.439   4.644  0.6559  0.8057  1.5545
31688SOL    HW295643   1.008   4.534   4.555  0.2130 -1.7087 -0.8996
31689SOL     OW95644  -0.032   8.434   9.346 -0.0688  0.5938  0.0186
31689SOL    HW195645   0.021   8.424   9.267  0.5523  1.6098  0.2884
31689SOL    HW295646   0.025   8.404   9.417  0.4018  2.2549  0.3809
31690SOL     OW95647   7.951   3.246   7.153 -0.5405  0.4120  0.2090
31690SOL    HW195648   7.881   3.207   7.205  0.7219 -0.9540  0.9339
31690SOL    HW295649   7.939   3.340   7.164 -0.4469  0.1825  2.8125
31691SOL     OW95650   0.672   5.862   2.338  0.6056  0.2050  0.4169
31691SOL    HW195651   0.704   5.772   2.349 -1.5671 -1.1704 -2.9727
31691SOL    HW295652   0.592   5.865   2.391 -0.3981 -0.5807 -1.0077
31692SOL     OW95653   8.769   3.945   6.914  0.1423  0.4942  0.2981
31692SOL    HW195654   8.769   3.906   6.826  0.0871  0.6838  0.2128
31692SOL    HW295655   8.739   3.875   6.972 -1.0726  0.7411  0.0003
31693SOL     OW95656   3.663   3.980   8.359  0.2678 -0.0958 -0.0938
31693SOL    HW195657   3.579   3.951   8.323 -0.2870 -0.5195  1.4382
31693SOL    HW295658   3.689   4.054   8.304 -2.8222  2.2976  1.3176
31694SOL     OW95659   6.636   7.041   3.759  0.1317  0.0674 -0.1693
31694SOL    HW195660   6.704   6.975   3.769  1.0989  1.2957  2.0883
31694SOL    HW295661   6.676   7.109   3.705 -0.5526 -0.6962 -1.7186
31695SOL     OW95662   5.913   0.652   3.952 -0.3044  0.9570  0.0806
31695SOL    HW195663   5.863   0.575   3.925 -0.0946  0.3700  1.2855
31695SOL    HW295664   5.904   0.713   3.880 -1.1611  0.1155 -0.5495
31696SOL     OW95665   0.267   0.334   6.064  0.6462  0.3321 -0.4357
31696SOL    HW195666   0.263   0.264   6.129  0.8617  0.6336 -0.0860
31696SOL    HW295667   0.317   0.404   6.108 -0.6958  1.2243 -0.2741
31697SOL     OW95668   5.679   7.731   7.184 -0.5109 -0.6939 -0.2992
31697SOL    HW195669   5.587   7.702   7.183 -0.7221 -0.1685  1.1726
31697SOL    HW295670   5.729   7.653   7.161 -1.3798 -0.4376 -3.6321
31698SOL     OW95671   9.830   0.187   9.308  0.3882 -0.5532  0.5218
31698SOL    HW195672   9.904   0.178   9.247  0.9231 -1.3872  1.2830
31698SOL    HW295673   9.813   0.098   9.338 -0.3690 -0.2430  1.0212
31699SOL     OW95674   9.752   7.967   8.153 -0.4979  0.2270  0.1124
31699SOL    HW195675   9.706   7.967   8.069 -0.0520 -0.6590 -0.1452
31699SOL    HW295676   9.689   7.928   8.215 -0.9140  1.0988  0.2514
31700SOL     OW95677   3.043   6.371   4.428  0.5693 -0.4987  0.3899
31700SOL    HW195678   3.015   6.459   4.454  0.1044 -0.6931  0.5489
31700SOL    HW295679   3.136   6.381   4.407  0.4764  0.0667  0.2348
31701SOL     OW95680   7.396   0.186   7.739  0.5892  0.6072 -0.1055
31701SOL    HW195681   7.402   0.106   7.791  1.1713  0.0814 -0.9580
31701SOL    HW295682   7.485   0.220   7.735  0.3828  1.1818  0.0628
31702SOL     OW95683   3.994   9.901   6.904 -0.0217  0.5851 -0.8369
31702SOL    HW195684   4.001   9.958   6.827  0.1727 -0.1086 -1.3444
31702SOL    HW295685   3.990   9.812   6.868 -2.0561  0.3468 -0.1573
31703SOL     OW95686   8.591   8.354   1.680  0.5444  0.0522 -0.2260
31703SOL    HW195687   8.664   8.408   1.711  0.1700  0.0966  0.6131
31703SOL    HW295688   8.632   8.290   1.622  1.2121  0.2753 -0.0178
31704SOL     OW95689   8.129   7.917   8.995 -0.0565  0.2085  0.2776
31704SOL    HW195690   8.065   7.846   8.998  0.6756 -0.4304  1.3872
31704SOL    HW295691   8.129   7.945   8.903 -1.1420 -0.4868  0.0453
31705SOL     OW95692   1.479   1.817   4.704 -0.0658 -0.2467  0.3213
31705SOL    HW195693   1.512   1.766   4.779 -0.2350  0.9511  1.2306
31705SOL    HW295694   1.397   1.854   4.735 -0.5811 -0.4254 -0.7753
31706SOL     OW95695   5.436   1.352   6.910 -0.2705 -0.3789  0.0647
31706SOL    HW195696   5.414   1.270   6.866 -0.8322  0.4890 -1.3447
31706SOL    HW295697   5.524   1.338   6.945 -0.8726 -2.0257  1.0265
31707SOL     OW95698   1.574   3.397   6.684 -0.2357 -0.4587 -0.2685
31707SOL    HW195699   1.499   3.457   6.690 -0.3530 -0.7573  1.6916
31707SOL    HW295700   1.603   3.406   6.593 -1.5623  0.9692 -0.6112
31708SOL     OW95701   4.011   6.202   7.174  0.0407 -0.3050 -0.2912
31708SOL    HW195702   4.011   6.133   7.107  0.8802 -0.4904 -0.1159
31708SOL    HW295703   3.987   6.281   7.127  0.1498 -0.5233 -0.7255
31709SOL     OW95704   2.956   3.094   0.403  0.6394  0.5819 -0.2467
31709SOL    HW195705   2.915   3.162   0.350  0.4813 -0.7571 -1.9218
31709SOL    HW295706   3.050   3.107   0.389  0.9144  2.9293  2.6889
31710SOL     OW95707   9.629   8.697   4.127  0.0778  0.1424 -0.1602
31710SOL    HW195708   9.640   8.602   4.117  1.2780  0.2783 -0.2290
31710SOL    HW295709   9.649   8.714   4.219 -0.9410  0.2390  0.0589
31711SOL     OW95710   1.765   7.955   5.074  0.0616 -0.8506 -0.0618
31711SOL    HW195711   1.699   7.910   5.021  0.8189 -1.2539 -0.6962
31711SOL    HW295712   1.837   7.891   5.081  1.4729  0.4817 -1.5914
31712SOL     OW95713   9.074   0.277   4.543 -0.5158  0.0896 -0.1705
31712SOL    HW195714   9.101   0.236   4.461 -1.5300  1.5723 -1.2945
31712SOL    HW295715   8.996   0.229   4.569 -1.3889  0.9056 -1.1963
31713SOL     OW95716   5.508   2.865   8.981  0.2268  0.6993  0.3197
31713SOL    HW195717   5.601   2.888   8.981  0.2412  0.7105  1.6411
31713SOL    HW295718   5.477   2.891   9.067 -0.5854 -0.9658  0.5772
31714SOL     OW95719   3.085   1.163   3.948  0.1523  0.0197  0.4200
31714SOL    HW195720   3.061   1.179   4.040 -0.0688  0.3137  0.3132
31714SOL    HW295721   3.073   1.069   3.937 -1.1653  0.1714  0.3255
31715SOL     OW95722   2.470   6.209   8.614 -0.0934 -0.2804  0.7139
31715SOL    HW195723   2.474   6.148   8.540 -1.7579  1.6623 -1.0761
31715SOL    HW295724   2.451   6.153   8.689 -0.6988 -2.0839 -0.6954
31716SOL     OW95725   1.683   0.103   9.496  0.3329 -0.7571 -0.0120
31716SOL    HW195726   1.630   0.025   9.479 -1.9644  0.3450  1.5759
31716SOL    HW295727   1.659   0.164   9.427 -0.3874 -0.3160  0.6144
31717SOL     OW95728   5.367   9.534   9.437 -0.6716  0.8476 -0.9112
31717SOL    HW195729   5.314   9.573   9.507  0.5969 -0.0076  0.6027
31717SOL    HW295730   5.412   9.609   9.397 -0.4951  1.2582  0.0087
31718SOL     OW95731   9.969   1.055   3.388  0.0193 -0.0286  0.0569
31718SOL    HW195732   9.915   0.995   3.337 -1.6195  2.0997 -0.8402
31718SOL    HW295733  10.028   1.095   3.324  0.0230  0.4655  0.3619
31719SOL     OW95734   8.742   0.621   0.703  0.0661 -0.1533 -0.4021
31719SOL    HW195735   8.716   0.642   0.613  0.9768 -1.1607 -0.9215
31719SOL    HW295736   8.767   0.528   0.700  0.5835 -0.0720  0.7794
31720SOL     OW95737   3.055   8.091   6.829  0.0162  0.5018 -0.3164
31720SOL    HW195738   3.135   8.115   6.876 -0.8377  1.4268  0.7340
31720SOL    HW295739   3.033   8.004   6.863  2.1995 -1.2239 -2.8914
31721SOL     OW95740   4.792   9.253   8.294 -0.4257 -0.3984  0.3354
31721SOL    HW195741   4.854   9.188   8.261  0.0652 -0.2978  1.0366
31721SOL    HW295742   4.739   9.206   8.358 -1.0950 -0.4876 -0.2756
31722SOL     OW95743   5.799   3.288   5.384  0.5783 -0.4273 -0.3510
31722SOL    HW195744   5.761   3.246   5.461 -0.8987 -1.2466 -1.4751
31722SOL    HW295745   5.790   3.381   5.401  2.7512 -0.4987  1.6302
31723SOL     OW95746   0.243   2.672   7.200  0.3967  0.1388  0.0245
31723SOL    HW195747   0.247   2.718   7.284 -0.2842  0.7056 -0.2355
31723SOL    HW295748   0.276   2.584   7.219  0.3336  0.2842  0.8625
31724SOL     OW95749   1.530   6.507   1.224 -0.3994  0.0616  0.1625
31724SOL    HW195750   1.548   6.573   1.292 -2.3431  0.0656  0.7116
31724SOL    HW295751   1.524   6.424   1.271 -0.5108 -0.1256 -0.1776
31725SOL     OW95752   3.527   3.752   1.391 -0.0132  1.4507  0.4515
31725SOL    HW195753   3.616   3.749   1.355 -0.3683  2.1685 -0.5425
31725SOL    HW295754   3.533   3.814   1.464  0.6818  0.1032  1.5921
31726SOL     OW95755   2.290   0.044   5.225  0.2761  0.0787  0.3536
31726SOL    HW195756   2.216   0.076   5.174 -2.5168 -1.3924  3.1362
31726SOL    HW295757   2.330  -0.024   5.170  0.7580  2.0183 -1.8851
31727SOL     OW95758   3.632   3.365   1.641  0.3918  0.3206  0.2857
31727SOL    HW195759   3.674   3.315   1.711  1.1533  1.0058  0.3475
31727SOL    HW295760   3.706   3.398   1.589 -0.1918 -1.1828 -1.5701
31728SOL     OW95761   1.345   8.300   7.411 -0.2311 -0.1157  0.0359
31728SOL    HW195762   1.277   8.237   7.387  2.4375 -2.2868 -2.3876
31728SOL    HW295763   1.379   8.331   7.328  0.2775  2.7336  1.1831
31729SOL     OW95764   2.498   4.624   7.390 -0.0213  0.4138  0.3021
31729SOL    HW195765   2.523   4.568   7.464 -1.1012  1.9006  1.8610
31729SOL    HW295766   2.407   4.647   7.407 -0.4517  0.4474 -1.7714
31730SOL     OW95767   4.896   6.916   4.014  0.3696 -0.4993 -0.3472
31730SOL    HW195768   4.941   6.998   3.992  0.9905 -0.6679  0.2387
31730SOL    HW295769   4.938   6.888   4.095  0.1971 -1.4211 -0.5684
31731SOL     OW95770   3.356   2.559   3.556  0.5335  0.1708 -0.3496
31731SOL    HW195771   3.329   2.628   3.616  1.0579 -1.6709  2.1364
31731SOL    HW295772   3.301   2.573   3.478 -1.8279  1.3213  1.3957
31732SOL     OW95773   0.448   4.389   0.308 -0.1937 -0.1344  0.1171
31732SOL    HW195774   0.509   4.315   0.305 -0.3141 -0.2047 -1.4662
31732SOL    HW295775   0.475   4.439   0.385  2.0763 -0.0065 -0.6838
31733SOL     OW95776   2.551   0.119   9.248 -0.1219 -0.2334  0.0798
31733SOL    HW195777   2.580   0.193   9.194 -1.0081 -0.4807 -0.7671
31733SOL    HW295778   2.612   0.118   9.322  0.1402  1.1041 -0.0878
31734SOL     OW95779   9.383   5.360   1.301 -0.0844  0.4522 -0.2934
31734SOL    HW195780   9.351   5.365   1.391  1.7689 -0.2968  0.4599
31734SOL    HW295781   9.418   5.272   1.292  0.9041  0.9155 -1.3388
31735SOL     OW95782   0.450   2.792   0.165  0.3912  0.4320  0.3303
31735SOL    HW195783   0.545   2.803   0.156  0.4303  1.1753  1.5040
31735SOL    HW295784   0.433   2.803   0.258 -0.6306 -1.6100  0.4372
31736SOL     OW95785   6.922   3.103   5.452 -0.7612  0.1845 -0.5327
31736SOL    HW195786   6.858   3.130   5.386 -0.8790  1.3547  0.0236
31736SOL    HW295787   6.880   3.124   5.536 -0.6490 -1.3484 -0.0683
31737SOL     OW95788   4.816   6.027   4.024  0.4171  0.2134  0.5500
31737SOL    HW195789   4.809   6.120   4.002  0.2365 -0.1436 -0.9794
31737SOL    HW295790   4.893   6.022   4.081  0.5974  1.2530  0.4270
31738SOL     OW95791   9.040   4.262   2.795 -0.2998  0.6170 -0.2432
31738SOL    HW195792   9.053   4.227   2.707  0.4238 -1.0085  0.4702
31738SOL    HW295793   9.126   4.253   2.838 -1.1999 -0.9393  1.3851
31739SOL     OW95794   6.769   5.490   1.035 -0.1155  0.4680 -0.5772
31739SOL    HW195795   6.739   5.401   1.016 -0.1109  0.2722  0.2885
31739SOL    HW295796   6.862   5.481   1.056 -0.0764  0.7013 -0.6405
31740SOL     OW95797   7.272   2.716   2.456  0.3546  0.0173 -0.0655
31740SOL    HW195798   7.180   2.710   2.480  0.1781  1.6261 -0.2246
31740SOL    HW295799   7.318   2.730   2.539  0.4800 -0.8446  0.0209
31741SOL     OW95800   8.285   1.269   3.971 -0.1715  0.4859  0.1840
31741SOL    HW195801   8.328   1.341   3.925  0.0776  0.1555 -0.1066
31741SOL    HW295802   8.242   1.310   4.046  1.4694  0.7166  1.0630
31742SOL     OW95803   8.358   0.152   2.804  0.4531 -0.1057  0.7190
31742SOL    HW195804   8.444   0.120   2.776 -0.2214 -1.3778  0.0215
31742SOL    HW295805   8.345   0.233   2.755  1.6636  0.6646  1.5965
31743SOL     OW95806   0.352   2.697   5.000  0.2792 -0.6915 -0.1789
31743SOL    HW195807   0.442   2.726   4.984 -0.5472  1.2525 -1.7419
31743SOL    HW295808   0.325   2.655   4.919 -0.0390 -1.8540  0.5038
31744SOL     OW95809   0.059   0.494   9.745  0.4348  0.4156 -0.3282
31744SOL    HW195810   0.135   0.552   9.742 -0.5297  1.7501  0.0268
31744SOL    HW295811   0.056   0.453   9.658  0.7135  1.4616 -0.8445
31745SOL     OW95812   2.880   4.305   3.695  0.3823 -0.2380  0.1244
31745SOL    HW195813   2.791   4.329   3.721  1.0089  1.4716  0.8479
31745SOL    HW295814   2.882   4.319   3.600 -0.3034 -0.9706 -0.0049
31746SOL     OW95815   5.934   0.175   5.997 -0.1462  0.3872 -0.2548
31746SOL    HW195816   5.980   0.177   5.913 -0.4473  1.6275 -0.4026
31746SOL    HW295817   5.884   0.257   6.000  1.7716  1.6257  2.2077
31747SOL     OW95818   0.942   7.086   8.042 -0.0244 -0.1690 -0.3062
31747SOL    HW195819   0.972   7.066   8.131 -1.1539  1.8000  0.5766
31747SOL    HW295820   0.878   7.018   8.022  0.9475 -1.1991 -0.0427
31748SOL     OW95821   4.736   2.301   7.989 -0.4198  0.1690 -0.2220
31748SOL    HW195822   4.722   2.374   8.049 -0.4861  0.0270 -0.0650
31748SOL    HW295823   4.667   2.310   7.923  0.1549  0.8120 -0.7518
31749SOL     OW95824   8.335   2.982   2.030  0.0740  0.5736  0.4798
31749SOL    HW195825   8.399   3.042   2.068  0.7159  0.2797 -0.1009
31749SOL    HW295826   8.304   2.929   2.103  0.3807  0.8363  0.7999
31750SOL     OW95827   0.745   6.285   0.760 -0.4963  0.0410 -0.0677
31750SOL    HW195828   0.787   6.211   0.716 -0.7292 -1.8791  2.6820
31750SOL    HW295829   0.816   6.330   0.805 -0.8523 -1.4376  2.1381
31751SOL     OW95830   6.221   4.867   8.383  0.1433 -0.2758  0.0451
31751SOL    HW195831   6.163   4.800   8.346 -1.9190  1.8707 -0.9022
31751SOL    HW295832   6.214   4.855   8.478  2.1348 -3.1456 -0.0402
31752SOL     OW95833   1.392   1.725   1.982  0.4370  0.0799  0.0240
31752SOL    HW195834   1.414   1.648   1.929 -0.8728 -0.1189 -0.2691
31752SOL    HW295835   1.346   1.689   2.058  0.2381  0.5319  0.1223
31753SOL     OW95836   8.731   2.446   9.047 -0.6331  0.3113 -0.2276
31753SOL    HW195837   8.641   2.433   9.018 -0.5457 -0.7821 -0.0525
31753SOL    HW295838   8.739   2.391   9.125 -0.3453  1.8163  0.8554
31754SOL     OW95839   3.697   6.338   0.568  0.4872 -0.1753  0.1655
31754SOL    HW195840   3.743   6.344   0.652 -0.5070  0.8791  0.6506
31754SOL    HW295841   3.629   6.405   0.572  0.7542  0.2723 -1.7013
31755SOL     OW95842   0.765   1.486   2.426  0.1439 -0.2488 -0.1272
31755SOL    HW195843   0.816   1.565   2.409 -0.7028  0.2354 -0.5117
31755SOL    HW295844   0.828   1.414   2.421  1.3695  0.5422  2.3957
31756SOL     OW95845   3.407   5.264   8.237  0.5401  0.3529 -0.2511
31756SOL    HW195846   3.366   5.227   8.160  1.2958  1.5186 -1.2508
31756SOL    HW295847   3.486   5.308   8.204  0.5487  1.4030  1.0764
31757SOL     OW95848   9.143   4.327   9.678 -0.0446  0.2162  0.3647
31757SOL    HW195849   9.198   4.249   9.681  0.8395  0.5590 -3.0316
31757SOL    HW295850   9.204   4.400   9.674 -0.6778  0.6963 -1.9904
31758SOL     OW95851   2.983   5.051   4.762 -0.0397 -0.0183 -0.1066
31758SOL    HW195852   3.060   4.998   4.781  0.2712 -0.8118 -3.0479
31758SOL    HW295853   2.909   4.992   4.778  0.2478 -0.9597 -1.9081
31759SOL     OW95854   7.744   8.398   0.105 -0.2014  0.1506 -0.5202
31759SOL    HW195855   7.779   8.392   0.016  0.2178  0.1518 -0.3567
31759SOL    HW295856   7.792   8.331   0.154 -0.1688  0.3985 -0.2107
31760SOL     OW95857   1.131   9.564   2.047  0.0265  0.2998  0.3341
31760SOL    HW195858   1.050   9.608   2.020  1.3151  1.3501 -2.1123
31760SOL    HW295859   1.150   9.503   1.976  1.5253  0.2743  0.7273
31761SOL     OW95860   2.076   1.914   2.552  0.8239 -0.7018  0.1699
31761SOL    HW195861   2.049   1.828   2.519 -0.3548  0.1539 -1.2470
31761SOL    HW295862   2.156   1.934   2.504  0.8858 -0.8521  0.2108
31762SOL     OW95863   7.720   3.870   2.243 -0.2384 -0.4980 -0.4414
31762SOL    HW195864   7.715   3.849   2.336  0.1469  0.1941 -0.2604
31762SOL    HW295865   7.811   3.852   2.219 -0.1570 -0.0011 -0.5155
31763SOL     OW95866   8.735   4.893   3.635 -0.7615 -0.7079  0.7639
31763SOL    HW195867   8.828   4.914   3.638 -0.8800 -0.0090 -0.0626
31763SOL    HW295868   8.721   4.832   3.707 -0.4140  2.1663  3.4897
31764SOL     OW95869   2.970   8.773   1.187 -0.7297 -0.1869  0.1988
31764SOL    HW195870   2.952   8.686   1.223 -0.1346  0.2287  1.5908
31764SOL    HW295871   2.910   8.781   1.113 -0.0447 -2.1938 -0.6544
31765SOL     OW95872   1.484   8.252   2.744 -0.0463  0.2162  0.2209
31765SOL    HW195873   1.567   8.214   2.774 -0.3036 -0.5886 -0.0442
31765SOL    HW295874   1.502   8.280   2.654  0.3691  1.4783  0.6773
31766SOL     OW95875   5.838   5.341   9.309  0.2253 -0.1069 -0.4410
31766SOL    HW195876   5.793   5.270   9.355  0.2438 -0.1921 -0.5540
31766SOL    HW295877   5.930   5.332   9.335  0.0935  0.4445  0.2791
31767SOL     OW95878   9.821   9.647   1.200 -0.4629 -1.1267 -0.0791
31767SOL    HW195879   9.839   9.670   1.292 -1.4689 -1.4923  0.2190
31767SOL    HW295880   9.726   9.649   1.193 -0.3715 -0.4530 -1.3002
31768SOL     OW95881   3.200   5.744   5.965  0.1740  0.6281 -0.0923
31768SOL    HW195882   3.224   5.762   6.056  0.8639 -0.0990 -0.1211
31768SOL    HW295883   3.205   5.649   5.957  3.5337  0.7807 -1.7497
31769SOL     OW95884   0.168   8.470   2.716  0.2676 -0.8691  0.8978
31769SOL    HW195885   0.150   8.398   2.776 -3.3524 -0.7309  0.1699
31769SOL    HW295886   0.148   8.435   2.629 -1.6396  0.9297  0.5302
31770SOL     OW95887   4.748   1.237   0.938 -0.9021 -0.0452 -0.2952
31770SOL    HW195888   4.705   1.318   0.913  0.7174  1.4429  1.4525
31770SOL    HW295889   4.841   1.252   0.918 -0.4312 -1.0462  1.0228
31771SOL     OW95890   6.749   8.334   1.798  0.4987 -0.0614  0.4849
31771SOL    HW195891   6.711   8.269   1.740  0.0989 -0.8132  1.5490
31771SOL    HW295892   6.683   8.404   1.802 -0.5460 -1.0677  1.8182
31772SOL     OW95893   0.654   3.692   3.409 -0.2848 -0.5292  0.0275
31772SOL    HW195894   0.738   3.683   3.455 -0.7469 -0.1464  0.9630
31772SOL    HW295895   0.591   3.714   3.477 -1.0986 -0.4948 -0.7136
31773SOL     OW95896   9.204   8.928   4.059 -0.2143  0.5292  0.0453
31773SOL    HW195897   9.278   8.913   4.000 -0.7547 -1.9419 -0.1421
31773SOL    HW295898   9.150   8.993   4.016  1.0068  1.1214 -0.6242
31774SOL     OW95899   4.347   2.903   0.768 -0.0345 -0.2654  0.2796
31774SOL    HW195900   4.388   2.968   0.711  0.6811 -1.4333 -0.5769
31774SOL    HW295901   4.325   2.951   0.848  1.6586  0.7403  0.1849
31775SOL     OW95902   4.329   6.998   7.836 -0.4830  0.2303 -0.1707
31775SOL    HW195903   4.356   7.052   7.910 -1.2835  1.3575 -0.6542
31775SOL    HW295904   4.397   6.931   7.828 -0.2339  0.2683  1.3773
31776SOL     OW95905   1.261   4.721   1.134  0.0507 -0.2146  0.1594
31776SOL    HW195906   1.271   4.744   1.226 -0.6600  0.8676 -0.0171
31776SOL    HW295907   1.239   4.803   1.091 -1.7424 -1.0743 -0.6540
31777SOL     OW95908   9.511   3.569   4.119 -0.5956  0.6852  0.1264
31777SOL    HW195909   9.538   3.601   4.033  0.8519 -0.8710 -0.0502
31777SOL    HW295910   9.588   3.523   4.152 -1.8922 -0.7706  1.2386
31778SOL     OW95911   6.298   7.627   0.301 -0.0520  0.4310 -0.5049
31778SOL    HW195912   6.357   7.642   0.227 -0.6367  2.8524 -0.5489
31778SOL    HW295913   6.211   7.650   0.269 -0.6105 -0.3121  0.4028
31779SOL     OW95914   8.924   5.423   0.507 -0.2688 -0.0240 -0.2099
31779SOL    HW195915   8.981   5.489   0.467 -0.8916  0.6414 -0.0431
31779SOL    HW295916   8.929   5.440   0.601 -0.6181 -0.0509 -0.1821
31780SOL     OW95917   8.952   5.228   2.746  0.2485 -0.6007 -0.0086
31780SOL    HW195918   8.948   5.136   2.769 -0.1357 -0.7756 -0.7511
31780SOL    HW295919   8.864   5.249   2.714 -0.9830  1.0723  3.9317
31781SOL     OW95920   1.932   6.675   7.342 -0.3732  0.6901  0.2456
31781SOL    HW195921   1.862   6.629   7.295 -0.3151  1.3597 -0.5133
31781SOL    HW295922   2.009   6.662   7.288 -0.1335  0.8113  0.5572
31782SOL     OW95923   3.112   5.080   1.191 -0.4445  0.2876  0.2857
31782SOL    HW195924   3.070   5.050   1.272  0.5341  0.2171  0.7756
31782SOL    HW295925   3.071   5.165   1.173 -0.8994  0.1557  0.6683
31783SOL     OW95926   7.800   0.200   8.481  0.1562 -0.0099  0.5639
31783SOL    HW195927   7.765   0.170   8.564  0.2380 -2.9804 -0.3476
31783SOL    HW295928   7.747   0.276   8.457 -2.0560 -1.0966  1.7763
31784SOL     OW95929   1.820   1.776   2.764  0.1445  0.0487  0.7753
31784SOL    HW195930   1.779   1.768   2.850 -0.5833 -0.1783  0.4163
31784SOL    HW295931   1.782   1.855   2.726  0.6690  0.3022  0.7653
31785SOL     OW95932   9.767   8.087   8.889 -0.1403 -0.4522 -0.0678
31785SOL    HW195933   9.700   8.114   8.826 -0.1963  0.0783  0.2082
31785SOL    HW295934   9.719   8.041   8.957 -0.2961  0.3236  0.3589
31786SOL     OW95935   2.535   2.213   4.254 -0.1284  0.2970  0.1547
31786SOL    HW195936   2.456   2.160   4.242 -1.1992  1.8004  0.2160
31786SOL    HW295937   2.551   2.211   4.348  0.1801 -0.4059  0.0835
31787SOL     OW95938   9.407   0.387   3.144  0.0529  0.6097 -0.7013
31787SOL    HW195939   9.388   0.377   3.237  1.6329 -0.1384 -0.4153
31787SOL    HW295940   9.325   0.366   3.099 -0.1877 -1.1010  0.4574
31788SOL     OW95941   7.407   6.370   6.709 -0.5295 -0.0013  0.1153
31788SOL    HW195942   7.343   6.391   6.641 -2.2075 -2.0624  0.9357
31788SOL    HW295943   7.384   6.427   6.783 -1.4609 -0.7139  0.3962
31789SOL     OW95944   3.281   7.426   2.592 -0.0379 -0.2851 -0.2703
31789SOL    HW195945   3.205   7.466   2.549  0.1253  0.3398  0.0201
31789SOL    HW295946   3.287   7.469   2.677 -0.8040 -2.0265  0.7357
31790SOL     OW95947   2.249   0.848   7.755  0.4179 -0.5086  0.3241
31790SOL    HW195948   2.249   0.866   7.849 -2.2050  2.0881 -0.0419
31790SOL    HW295949   2.336   0.875   7.725  0.0301  2.3295  1.4917
31791SOL     OW95950   5.322   7.224   2.627  0.2971  0.0772  0.0211
31791SOL    HW195951   5.277   7.140   2.635 -0.1017  0.3816  1.0313
31791SOL    HW295952   5.261   7.288   2.662  0.0626  0.9937 -1.9055
31792SOL     OW95953   5.516   2.307   3.336 -0.3400  0.0073  0.0789
31792SOL    HW195954   5.571   2.229   3.344 -0.0527  0.1816 -0.1826
31792SOL    HW295955   5.539   2.361   3.412 -0.1112  0.1034 -0.0585
31793SOL     OW95956   5.721   5.162   4.874  0.0009 -0.0343  0.3338
31793SOL    HW195957   5.778   5.191   4.945 -0.7563  1.3572  0.4183
31793SOL    HW295958   5.642   5.216   4.884 -0.8165 -1.0433 -0.5229
31794SOL     OW95959   9.198   0.507   4.841  0.0934  0.2992 -0.1269
31794SOL    HW195960   9.221   0.569   4.909  1.1670  1.2363 -1.2987
31794SOL    HW295961   9.102   0.508   4.838  0.0565  0.6085  1.0166
31795SOL     OW95962   8.176   1.984   4.325 -0.1057 -0.5218 -0.3116
31795SOL    HW195963   8.252   1.927   4.322 -0.1177 -0.5313 -0.4762
31795SOL    HW295964   8.185   2.040   4.247 -0.3402 -0.6204 -0.4122
31796SOL     OW95965   1.529   2.693   8.798 -0.2036 -0.1595  0.9639
31796SOL    HW195966   1.531   2.656   8.710 -1.2967  0.8718  0.4799
31796SOL    HW295967   1.463   2.641   8.844  0.2278 -0.5713  1.1281
31797SOL     OW95968   4.907   0.621   3.412  0.1103 -0.5640 -0.6751
31797SOL    HW195969   4.992   0.649   3.377 -0.3597  1.9074 -0.0340
31797SOL    HW295970   4.928   0.583   3.497  0.4735  1.8664  0.3923
31798SOL     OW95971   4.032   6.221   1.214  0.3347  0.0636 -0.4834
31798SOL    HW195972   4.026   6.257   1.303 -2.5856 -1.0546 -0.1386
31798SOL    HW295973   3.994   6.134   1.220  3.0887 -1.3981 -2.2382
31799SOL     OW95974   0.451   3.063   9.223 -0.6617  0.6518 -0.0343
31799SOL    HW195975   0.535   3.021   9.242  0.0179  1.7243 -0.5003
31799SOL    HW295976   0.420   3.094   9.308 -0.7941 -0.1050  0.1994
31800SOL     OW95977   4.331   8.391   6.824 -0.2231 -0.1966  0.9691
31800SOL    HW195978   4.392   8.435   6.765 -1.7377  0.5112 -0.1527
31800SOL    HW295979   4.245   8.417   6.793 -1.1136 -0.3160  3.1328
31801SOL     OW95980   3.390   7.460   5.512 -1.0259  0.2362 -0.1664
31801SOL    HW195981   3.437   7.383   5.543 -3.0871 -0.9059  0.3476
31801SOL    HW295982   3.408   7.528   5.577  1.7302  0.6264 -1.2153
31802SOL     OW95983   7.499   9.865   2.880 -0.1315 -0.0357 -0.1258
31802SOL    HW195984   7.565   9.864   2.949 -0.1813 -2.3185 -0.0324
31802SOL    HW295985   7.539   9.917   2.810  1.9013 -1.5313 -0.1555
31803SOL     OW95986   2.025   8.274   6.248 -0.6037  0.1023 -0.2379
31803SOL    HW195987   1.980   8.258   6.331 -1.3917  0.2330 -0.6318
31803SOL    HW295988   1.982   8.351   6.212  1.1529  1.3555  0.2263
31804SOL     OW95989   8.728   8.383   9.188  0.3125  0.1595 -0.2721
31804SOL    HW195990   8.676   8.392   9.268 -0.2451  0.6255 -0.6790
31804SOL    HW295991   8.819   8.383   9.218  0.1045  0.1516  0.3735
31805SOL     OW95992   6.709   2.551   9.214  0.8215 -0.3837  0.5261
31805SOL    HW195993   6.646   2.623   9.219  1.1186 -0.0885  0.0309
31805SOL    HW295994   6.771   2.568   9.285  0.5927 -0.4387  0.7408
31806SOL     OW95995   4.989   2.410   2.487 -0.0544  0.8316  0.2980
31806SOL    HW195996   5.032   2.496   2.492  0.5740  0.5054  0.4678
31806SOL    HW295997   4.904   2.429   2.446 -0.0736  1.5894  0.6734
31807SOL     OW95998   2.561   7.363   8.755  0.4821  0.3736  0.2753
31807SOL    HW195999   2.571   7.298   8.687 -0.0153  0.7320 -0.1504
31807SOL    HW296000   2.512   7.319   8.824  0.4749  0.1831  0.1473
31808SOL     OW96001   0.374   7.125   2.935  0.1544 -0.0522  0.0316
31808SOL    HW196002   0.324   7.193   2.978 -1.0466  0.4471 -2.0130
31808SOL    HW296003   0.338   7.043   2.969  0.3343  0.3123  1.1237
31809SOL     OW96004   8.932   9.019   8.014 -0.4803  0.1034 -0.3989
31809SOL    HW196005   8.933   9.077   7.938 -0.4149  0.7765  0.1110
31809SOL    HW296006   8.940   9.077   8.089  1.3051 -0.6693  0.0598
31810SOL     OW96007   3.135   0.041   0.357  0.2250  0.1339  0.4121
31810SOL    HW196008   3.151   0.121   0.407  0.2261  0.2924  0.1617
31810SOL    HW296009   3.104   0.072   0.272 -1.9222 -0.1558  1.0413
31811SOL     OW96010   5.483   9.954   9.123 -0.0512  0.5413 -0.4308
31811SOL    HW196011   5.485   9.866   9.085 -0.3409  0.2493  0.2300
31811SOL    HW296012   5.477   9.940   9.217  1.3715  1.2497 -0.2027
31812SOL     OW96013   6.090   2.213   1.224  0.3041  0.1414 -0.2268
31812SOL    HW196014   6.166   2.199   1.167  0.8637  0.7257  0.3540
31812SOL    HW296015   6.089   2.137   1.282 -0.3009 -0.4826 -1.0403
31813SOL     OW96016   5.197   9.147   0.791  0.5212 -0.2430  0.6679
31813SOL    HW196017   5.259   9.194   0.847 -0.1247 -0.4081  1.5395
31813SOL    HW296018   5.253   9.093   0.734  1.1693 -1.1943  2.1485
31814SOL     OW96019   3.146   2.273   4.402 -0.0145 -0.8003  0.7451
31814SOL    HW196020   3.171   2.251   4.312  0.1551 -2.1665  1.0999
31814SOL    HW296021   3.167   2.366   4.411  2.9527 -1.3290  0.3407
31815SOL     OW96022   1.853   6.322   9.500  0.2176 -0.0075  0.0118
31815SOL    HW196023   1.908   6.327   9.579  1.9833  0.9370 -1.2126
31815SOL    HW296024   1.807   6.406   9.498 -1.4943 -0.8585  1.1207
31816SOL     OW96025   3.905   5.458   6.350  0.2273 -0.0355  0.0951
31816SOL    HW196026   3.947   5.377   6.381 -0.3767 -0.4018 -0.0249
31816SOL    HW296027   3.965   5.527   6.377  2.1507 -0.6833 -2.1521
31817SOL     OW96028   9.843   1.411   5.556 -0.2758  0.1365 -0.1211
31817SOL    HW196029   9.806   1.475   5.495 -0.4260  0.0675 -0.1004
31817SOL    HW296030   9.928   1.387   5.517 -0.8320 -0.7030 -0.8458
31818SOL     OW96031   3.711   7.817   4.917  0.1476  0.0584 -0.4792
31818SOL    HW196032   3.649   7.745   4.918 -0.4970  0.5636 -1.7866
31818SOL    HW296033   3.769   7.800   4.991  0.6817 -2.3731 -1.3673
31819SOL     OW96034   9.741   7.568   9.178  0.6741 -0.0731  0.6242
31819SOL    HW196035   9.749   7.480   9.215  1.8808  0.0842  0.7696
31819SOL    HW296036   9.797   7.567   9.101 -1.1630 -0.1402 -0.7981
31820SOL     OW96037   8.018   3.490   2.995  0.3694  0.2997 -0.0509
31820SOL    HW196038   8.089   3.433   3.025  0.9042  0.2753 -1.2899
31820SOL    HW296039   7.983   3.447   2.917  2.9740  3.0700 -3.1025
31821SOL     OW96040   3.128   7.904   2.165 -0.2749  0.6590 -0.4089
31821SOL    HW196041   3.058   7.951   2.120  0.7412  1.1394 -1.5409
31821SOL    HW296042   3.208   7.951   2.141  0.6730 -1.0395 -0.7506
31822SOL     OW96043   0.094   3.167   1.228 -0.2361 -0.4073  0.4247
31822SOL    HW196044   0.002   3.186   1.206 -0.0238 -0.7656 -0.8747
31822SOL    HW296045   0.119   3.099   1.166  0.4399 -1.5035  1.8347
31823SOL     OW96046   0.221   9.026   1.206 -0.3864  0.1995  0.0805
31823SOL    HW196047   0.273   9.087   1.259 -0.1243  0.0305  0.0176
31823SOL    HW296048   0.242   9.049   1.116  1.7138 -1.6308  0.0066
31824SOL     OW96049   4.680   1.386   6.082 -0.0142  0.3313  0.7394
31824SOL    HW196050   4.731   1.374   6.001 -0.4181 -1.2486  0.6870
31824SOL    HW296051   4.627   1.464   6.065  0.2637  0.3031 -0.3381
31825SOL     OW96052   5.479   1.281   4.552 -0.0746 -0.0439  0.1364
31825SOL    HW196053   5.572   1.299   4.565  0.0488  0.0785 -0.8949
31825SOL    HW296054   5.449   1.249   4.637  0.9193 -0.1328  0.4600
31826SOL     OW96055   3.743   2.251   2.483 -0.4106  0.8151  0.1377
31826SOL    HW196056   3.793   2.185   2.436  1.6125  1.0928  1.7198
31826SOL    HW296057   3.676   2.201   2.530  0.4743 -0.0313  0.5480
31827SOL     OW96058   5.550   6.648   8.503  0.5422  0.1603  0.2312
31827SOL    HW196059   5.510   6.571   8.462  1.4708 -1.1440  1.6548
31827SOL    HW296060   5.479   6.687   8.554  0.4072 -0.5765  0.6209
31828SOL     OW96061   6.663   1.326   5.680  0.2563  0.0039  0.6017
31828SOL    HW196062   6.753   1.356   5.695  0.2354  0.3892 -0.0045
31828SOL    HW296063   6.668   1.274   5.600 -0.0559  0.0060  0.5809
31829SOL     OW96064   2.887   8.888   7.716 -0.0045 -0.9188 -0.3273
31829SOL    HW196065   2.925   8.815   7.667 -0.5019 -0.7535 -0.9724
31829SOL    HW296066   2.963   8.932   7.755  0.5068 -0.4407 -1.7949
31830SOL     OW96067   7.896   1.915   8.659 -0.2476  0.0330 -0.6573
31830SOL    HW196068   7.928   1.950   8.576 -1.3144  2.7493 -0.0252
31830SOL    HW296069   7.826   1.855   8.634 -1.7853  2.1470 -1.7903
31831SOL     OW96070   7.667   9.189   4.379  0.3484  0.5169  0.3997
31831SOL    HW196071   7.671   9.122   4.447 -1.6544 -0.5499 -0.4375
31831SOL    HW296072   7.582   9.231   4.393 -1.3896 -1.4789 -2.8510
31832SOL     OW96073   4.277   3.519   9.296 -0.6830 -0.6705  0.0493
31832SOL    HW196074   4.356   3.508   9.243 -0.4325  0.4601  0.1486
31832SOL    HW296075   4.245   3.607   9.273 -1.1490 -0.5827  0.9939
31833SOL     OW96076   0.037   6.739   0.793 -0.5037  0.2341 -0.5914
31833SOL    HW196077   0.047   6.648   0.822 -1.8262  0.4465  0.6314
31833SOL    HW296078  -0.041   6.738   0.738  0.8255  0.2252 -2.5787
31834SOL     OW96079   3.091   9.360   8.628 -0.2536  0.2058 -0.0278
31834SOL    HW196080   3.070   9.327   8.540 -1.0964 -0.0178  0.2424
31834SOL    HW296081   3.008   9.398   8.659  0.0693  0.3871  0.6225
31835SOL     OW96082   5.989   2.039   1.578  0.5757 -0.0132 -0.2267
31835SOL    HW196083   5.903   2.071   1.604  0.7309 -0.7320  1.2664
31835SOL    HW296084   6.017   1.983   1.651  2.2952  0.1889 -0.6912
31836SOL     OW96085   6.460   7.120   4.206 -0.0205  0.1100  0.1528
31836SOL    HW196086   6.462   7.054   4.275  1.0846 -2.1101 -1.8658
31836SOL    HW296087   6.368   7.123   4.179  0.1529 -2.0514 -0.9323
31837SOL     OW96088   0.572   5.076   6.674  0.0452  0.0287  0.2286
31837SOL    HW196089   0.664   5.071   6.649  0.8296  0.1037  2.8154
31837SOL    HW296090   0.569   5.145   6.740 -0.9789 -2.8386  3.4423
31838SOL     OW96091   2.742   8.707   8.009  0.5155  0.7647  0.2053
31838SOL    HW196092   2.751   8.760   7.929  1.5702  1.4074  0.7290
31838SOL    HW296093   2.825   8.719   8.055  0.7922 -1.3805  0.3424
31839SOL     OW96094   9.879   8.671   3.950  0.1142  0.2485 -0.4350
31839SOL    HW196095   9.810   8.674   3.883  0.1131 -0.5028 -0.4787
31839SOL    HW296096   9.865   8.587   3.994  1.6148 -0.3878 -1.1039
31840SOL     OW96097   4.313   6.915   1.849  0.2430  0.3454  0.6593
31840SOL    HW196098   4.337   7.006   1.831 -0.3818  0.8425  2.2468
31840SOL    HW296099   4.393   6.876   1.886 -0.0231  0.7554  1.6820
31841SOL     OW96100   6.598   9.364   2.269  0.5491  0.2192  0.2444
31841SOL    HW196101   6.506   9.344   2.250 -0.0250  0.9232  2.0953
31841SOL    HW296102   6.621   9.431   2.204  0.1860 -0.8758 -1.0673
31842SOL     OW96103   8.057   0.342   7.898  0.3172 -0.2166 -0.1153
31842SOL    HW196104   7.982   0.332   7.957  0.1173  2.6607  0.2340
31842SOL    HW296105   8.134   0.331   7.954  0.1258  2.1579  0.7243
31843SOL     OW96106   4.180   8.928   8.421  0.4036  0.1621 -0.0271
31843SOL    HW196107   4.265   8.958   8.451 -0.2654  1.3538  0.7519
31843SOL    HW296108   4.196   8.840   8.386  2.0280  0.5817 -0.3838
31844SOL     OW96109   3.835   1.235   5.458  0.1356 -0.0771  0.0303
31844SOL    HW196110   3.907   1.267   5.512 -1.6667  3.4571  0.6777
31844SOL    HW296111   3.864   1.252   5.368 -0.0669  2.1469  0.3094
31845SOL     OW96112   3.320   6.336   4.425  0.0704  0.1268 -0.7918
31845SOL    HW196113   3.364   6.400   4.481 -0.8034  1.5911 -1.7290
31845SOL    HW296114   3.379   6.326   4.350 -0.1348  0.4162 -0.9961
31846SOL     OW96115   7.544   9.825   9.693 -0.5131 -0.1898  0.5654
31846SOL    HW196116   7.568   9.917   9.693  0.7829 -0.4612 -1.3191
31846SOL    HW296117   7.490   9.814   9.615  0.3631 -1.2207  0.0771
31847SOL     OW96118   7.189   0.910   2.977  0.0534  0.3156  0.1719
31847SOL    HW196119   7.193   0.821   2.941  2.2424 -0.0868  1.2628
31847SOL    HW296120   7.235   0.964   2.912 -1.3514  0.7167 -0.5335
31848SOL     OW96121   9.508   8.171   8.139  0.0428  0.1422 -0.6962
31848SOL    HW196122   9.532   8.132   8.055  0.2012  3.3013 -2.2655
31848SOL    HW296123   9.591   8.195   8.179 -0.0970 -0.0254 -0.2992
31849SOL     OW96124   9.232   4.825   4.725  0.2986  0.5852 -0.1504
31849SOL    HW196125   9.198   4.861   4.807  1.7579  0.2039  0.6492
31849SOL    HW296126   9.321   4.798   4.746 -0.3007 -2.4419 -0.9849
31850SOL     OW96127   3.704   1.231   1.677  0.1210 -0.1957 -0.1043
31850SOL    HW196128   3.626   1.241   1.731 -0.6992 -0.2844 -1.2358
31850SOL    HW296129   3.756   1.164   1.721  0.1708  0.7389  1.3278
31851SOL     OW96130   4.946   5.421   9.528  0.2702 -0.2924 -0.4690
31851SOL    HW196131   5.023   5.477   9.534 -1.0192  1.3956  1.4611
31851SOL    HW296132   4.871   5.481   9.528 -1.1093 -1.8485 -2.4769
31852SOL     OW96133   0.417   5.482   1.689 -0.3041  0.4111 -0.4412
31852SOL    HW196134   0.438   5.391   1.709  0.3222  0.8026  0.8292
31852SOL    HW296135   0.481   5.508   1.623  0.0040  0.1464 -0.2474
31853SOL     OW96136   2.828   4.618   0.325  0.0566 -0.2180 -0.2940
31853SOL    HW196137   2.824   4.714   0.324  1.6914 -0.0810  1.3948
31853SOL    HW296138   2.754   4.592   0.381 -0.6880  0.0034 -1.1514
31854SOL     OW96139   0.429   6.177   3.148 -0.3332 -0.1396 -0.0814
31854SOL    HW196140   0.493   6.146   3.212  0.3349 -0.3467 -0.8489
31854SOL    HW296141   0.344   6.155   3.187  0.0831 -2.9428 -0.5560
31855SOL     OW96142   9.351   8.825   2.199  0.4181  0.1027  0.0892
31855SOL    HW196143   9.348   8.887   2.272 -1.2412 -0.3033  0.4019
31855SOL    HW296144   9.314   8.872   2.125 -0.5624 -0.4021  0.2498
31856SOL     OW96145   3.722   7.545   2.620 -0.3805  0.5226 -0.2148
31856SOL    HW196146   3.769   7.468   2.653  0.0823  1.2819  0.9753
31856SOL    HW296147   3.630   7.528   2.642 -0.2388  0.4410  0.3226
31857SOL     OW96148   5.329   3.135   0.419  0.5753 -0.7363 -0.2282
31857SOL    HW196149   5.387   3.086   0.361  0.0557 -0.7874 -0.7104
31857SOL    HW296150   5.289   3.201   0.364  2.8239  1.6852  0.8320
31858SOL     OW96151   9.310   5.238   4.773 -0.1162 -0.4052 -0.2064
31858SOL    HW196152   9.224   5.249   4.814  0.7736  1.5361  1.3301
31858SOL    HW296153   9.364   5.198   4.841  0.5494 -0.2932 -0.6575
31859SOL     OW96154   7.291   5.139   2.161  0.8897  0.1430  0.0679
31859SOL    HW196155   7.362   5.182   2.113  0.3124  0.3693 -0.6019
31859SOL    HW296156   7.299   5.173   2.250  1.1183  0.8077 -0.1927
31860SOL     OW96157   2.277   1.155   9.882  0.2955  0.2132  0.3803
31860SOL    HW196158   2.216   1.113   9.943  1.2024  1.2286  2.0448
31860SOL    HW296159   2.359   1.164   9.931  1.5543 -0.3270 -1.5113
31861SOL     OW96160   6.199   8.982   3.813 -0.0019 -0.0630  0.8578
31861SOL    HW196161   6.110   8.948   3.808  0.1896 -0.4953  0.3837
31861SOL    HW296162   6.243   8.923   3.874  0.5653 -1.2223 -0.6125
31862SOL     OW96163   0.376   5.047   3.825  0.0558 -0.3465  0.2184
31862SOL    HW196164   0.369   5.092   3.741  0.6461  1.0347  0.8741
31862SOL    HW296165   0.291   5.062   3.867 -0.7964 -2.3062 -0.6947
31863SOL     OW96166   7.914   7.141   7.898  0.1414 -0.5478 -0.0965
31863SOL    HW196167   7.856   7.201   7.944  0.9674  1.4125 -1.4761
31863SOL    HW296168   7.900   7.160   7.805  1.2876 -1.6667 -0.5364
31864SOL     OW96169   8.411   3.753   4.226  0.4508  0.8310 -0.2419
31864SOL    HW196170   8.365   3.676   4.192  0.2195  1.0785 -0.4996
31864SOL    HW296171   8.459   3.721   4.302  1.4107  0.1407 -1.1105
31865SOL     OW96172   9.719   8.950   2.862  0.1717 -0.4555  0.1908
31865SOL    HW196173   9.640   8.920   2.908  0.6365 -1.1413  0.5629
31865SOL    HW296174   9.706   9.044   2.851 -0.1373 -0.3379  1.3909
31866SOL     OW96175   5.316   6.665   2.692 -0.2005 -0.0685 -0.0720
31866SOL    HW196176   5.379   6.713   2.639  0.7114 -0.8208  0.3165
31866SOL    HW296177   5.314   6.578   2.653 -1.5384  0.1324 -0.5122
31867SOL     OW96178   8.039   1.876   2.928  0.7244 -0.3019  0.4363
31867SOL    HW196179   8.094   1.934   2.875  0.1223  1.1835  1.3729
31867SOL    HW296180   8.017   1.928   3.005 -0.7955 -1.3777  0.7735
31868SOL     OW96181   0.645   4.272   8.027  0.6205  0.0261  0.5823
31868SOL    HW196182   0.562   4.285   8.072  0.2958 -3.3480  1.2206
31868SOL    HW296183   0.620   4.237   7.941  1.3023 -1.7398  1.0557
31869SOL     OW96184   8.740   3.760   9.464 -0.3090  0.0927  0.1228
31869SOL    HW196185   8.803   3.689   9.456 -1.2155 -0.6685 -0.4885
31869SOL    HW296186   8.730   3.795   9.376 -1.5310 -0.5114  0.0023
31870SOL     OW96187   8.848   5.513   2.148  0.3684  0.1465  0.2541
31870SOL    HW196188   8.765   5.556   2.166 -0.5516 -1.3231 -0.3200
31870SOL    HW296189   8.881   5.555   2.068  0.5558  1.2337  0.8944
31871SOL     OW96190   2.847   9.658   2.114  0.5794 -0.2302 -0.7005
31871SOL    HW196191   2.911   9.730   2.110  0.8626 -0.4773 -0.6228
31871SOL    HW296192   2.807   9.658   2.027  0.6702 -0.0609 -0.7440
31872SOL     OW96193   0.590   1.159   5.886  0.1493 -0.5587  0.0127
31872SOL    HW196194   0.504   1.181   5.850  0.7314 -1.2428 -1.9177
31872SOL    HW296195   0.638   1.242   5.888 -0.2953 -0.3039  0.4140
31873SOL     OW96196   6.960   5.074   4.953  0.0240  0.3192 -0.2180
31873SOL    HW196197   6.885   5.094   5.009  0.6419  0.8004  0.4564
31873SOL    HW296198   6.925   5.016   4.886 -0.8666  0.2152  0.3199
31874SOL     OW96199   6.491   5.515   4.259 -0.5774 -0.0169 -0.1411
31874SOL    HW196200   6.443   5.547   4.183  0.2867 -1.6335 -1.4246
31874SOL    HW296201   6.455   5.565   4.333 -0.6927  2.3500 -1.7194
31875SOL     OW96202   8.415   5.270   7.013 -0.3036  0.4633 -0.5088
31875SOL    HW196203   8.454   5.231   7.091  1.0118  0.7368 -1.0008
31875SOL    HW296204   8.326   5.292   7.039 -0.0541  0.0545  0.7454
31876SOL     OW96205   8.973   2.708   7.606 -0.3343 -0.2630  0.2168
31876SOL    HW196206   8.987   2.755   7.524 -0.1356 -0.3740  0.1858
31876SOL    HW296207   8.898   2.650   7.588 -1.3101  0.8367  0.5974
31877SOL     OW96208   1.411   7.224   6.234 -0.0252  0.0661 -0.5491
31877SOL    HW196209   1.464   7.195   6.308 -1.2914  0.9085  0.7536
31877SOL    HW296210   1.472   7.272   6.178  0.5269  1.4263  1.1336
31878SOL     OW96211   4.702   1.033   4.372 -0.1519  0.0953  0.2980
31878SOL    HW196212   4.746   1.050   4.289  0.5100 -2.0213  0.1554
31878SOL    HW296213   4.610   1.023   4.348 -0.0390 -0.0031 -0.1089
31879SOL     OW96214   6.820   2.909   1.179 -0.4019 -0.5367 -0.2167
31879SOL    HW196215   6.860   2.878   1.261 -2.1412  1.5958  1.5808
31879SOL    HW296216   6.883   2.970   1.142 -0.4337  0.0289  0.6413
31880SOL     OW96217   3.975   8.857   3.489 -0.1676 -0.3028 -0.0884
31880SOL    HW196218   4.026   8.937   3.487 -0.0950 -0.3436  0.1606
31880SOL    HW296219   3.946   8.848   3.580 -1.3161  0.1626 -0.3891
31881SOL     OW96220   5.873   9.138   4.122  0.6920 -0.7077 -0.3360
31881SOL    HW196221   5.811   9.139   4.050  1.2609  0.6882 -0.8360
31881SOL    HW296222   5.954   9.175   4.085  0.8402  0.5380  1.1307
31882SOL     OW96223   6.899   8.788   3.190  0.1456 -0.3482  0.1681
31882SOL    HW196224   6.833   8.740   3.141  1.1042 -0.1744 -1.3390
31882SOL    HW296225   6.974   8.728   3.194  0.6575  0.2655 -0.0310
31883SOL     OW96226   8.465   5.384   8.301  0.1676 -0.8381 -0.1620
31883SOL    HW196227   8.557   5.404   8.318  0.0993 -0.2172 -0.4695
31883SOL    HW296228   8.418   5.421   8.375 -0.0404  0.9900 -1.1487
31884SOL     OW96229   9.308   4.839   6.638  0.0445 -0.5099  0.0109
31884SOL    HW196230   9.392   4.855   6.680 -0.2199  1.7899 -0.1747
31884SOL    HW296231   9.250   4.906   6.675 -1.2349 -0.9489 -1.1109
31885SOL     OW96232   1.913   6.807   4.864 -0.3124 -0.2961 -0.0416
31885SOL    HW196233   1.891   6.733   4.808 -3.4666  0.2897  0.2302
31885SOL    HW296234   1.934   6.768   4.949 -1.4838 -0.9441 -0.0280
31886SOL     OW96235   9.088   9.541   8.198 -0.0147 -0.3943 -0.2154
31886SOL    HW196236   9.176   9.505   8.194 -0.3410 -1.0856 -1.4535
31886SOL    HW296237   9.051   9.506   8.279  0.4383 -1.0547 -0.2924
31887SOL     OW96238   6.408   6.289   0.428 -0.0066 -0.7735 -0.2477
31887SOL    HW196239   6.352   6.301   0.351 -0.5075 -1.1941  0.0394
31887SOL    HW296240   6.378   6.206   0.465  2.1898 -2.1206 -1.2578
31888SOL     OW96241   6.109   4.920   2.089 -0.2382  0.0838 -0.2028
31888SOL    HW196242   6.066   4.836   2.104 -0.9692  0.6826  1.3064
31888SOL    HW296243   6.041   4.975   2.051 -0.9155  1.0211  2.1450
31889SOL     OW96244   1.901   4.591   4.339  0.6303 -0.5628 -0.3188
31889SOL    HW196245   1.947   4.593   4.255 -1.7956 -0.4736 -1.7238
31889SOL    HW296246   1.864   4.503   4.344  1.9721 -1.0873  1.4246
31890SOL     OW96247   1.023   4.887   8.758  0.7144 -0.0277 -0.0022
31890SOL    HW196248   0.961   4.944   8.804 -1.8388 -1.4540 -1.4781
31890SOL    HW296249   1.078   4.948   8.707  0.2327  1.2509  0.9432
31891SOL     OW96250   2.097   4.513   0.475  0.1480 -0.1033 -0.1689
31891SOL    HW196251   2.063   4.425   0.462  1.1693 -1.0917  2.9191
31891SOL    HW296252   2.054   4.543   0.556 -0.3080  2.3500 -1.2166
31892SOL     OW96253   9.591   0.203   9.453 -0.1559  0.4390 -0.0230
31892SOL    HW196254   9.652   0.206   9.379  0.1514  2.6165  0.2280
31892SOL    HW296255   9.647   0.184   9.529 -0.2756 -0.5620 -0.1809
31893SOL     OW96256   4.994   5.841   2.219 -0.2487 -0.0534  0.3706
31893SOL    HW196257   4.963   5.754   2.196 -0.1688  0.2545 -0.9731
31893SOL    HW296258   5.088   5.838   2.204 -0.2666  0.2951  0.1723
31894SOL     OW96259   0.827   4.771   9.113  0.0434 -0.0731 -0.1871
31894SOL    HW196260   0.900   4.735   9.062 -0.7747 -0.5433 -1.0458
31894SOL    HW296261   0.753   4.714   9.094 -0.6799  0.6695  0.3103
31895SOL     OW96262   2.175   3.592   7.563 -0.0269  0.3183  0.1319
31895SOL    HW196263   2.089   3.607   7.524  0.1874  1.8009  0.1730
31895SOL    HW296264   2.156   3.553   7.648 -0.5583 -1.3508 -0.7081
31896SOL     OW96265   4.066   6.187   2.350  0.4909  0.1003 -0.2197
31896SOL    HW196266   4.091   6.116   2.291 -0.2954 -1.1510  0.9127
31896SOL    HW296267   4.131   6.185   2.420 -0.4868 -0.6102  0.6852
31897SOL     OW96268   0.450   3.029   6.766  0.1550 -0.4090 -0.3413
31897SOL    HW196269   0.478   3.019   6.675 -0.1732 -0.3306 -0.4527
31897SOL    HW296270   0.452   3.124   6.781 -0.9819 -0.3189 -0.6554
31898SOL     OW96271   6.110   1.965   0.931  0.4560 -0.4134  0.1327
31898SOL    HW196272   6.105   2.056   0.902  1.0676 -0.8787 -1.5688
31898SOL    HW296273   6.191   1.932   0.891  0.0341 -1.8122  0.3893
31899SOL     OW96274   2.308   7.565   7.626 -0.1404 -0.7197 -0.3458
31899SOL    HW196275   2.400   7.541   7.631  0.2620  0.8557  0.7293
31899SOL    HW296276   2.293   7.585   7.534  1.0958  0.7197 -0.2676
31900SOL     OW96277   8.535   6.826   2.246 -0.2355  0.0361 -0.3859
31900SOL    HW196278   8.548   6.760   2.314 -0.5768 -0.7072 -1.0305
31900SOL    HW296279   8.538   6.909   2.293 -2.9619 -0.5328  0.9619
31901SOL     OW96280   7.238   4.786   5.689 -0.6224 -0.4081 -0.3888
31901SOL    HW196281   7.271   4.871   5.660 -0.5979  0.1327  1.1070
31901SOL    HW296282   7.206   4.802   5.778 -1.6125 -1.7327 -0.4774
31902SOL     OW96283   6.711   4.293   8.951  0.0396  0.2092  0.3652
31902SOL    HW196284   6.801   4.307   8.921  1.2703 -1.3575  3.0201
31902SOL    HW296285   6.683   4.378   8.984  0.5563  0.6741 -0.3417
31903SOL     OW96286   2.626   7.801   6.183 -0.0947 -0.2412 -0.0904
31903SOL    HW196287   2.621   7.727   6.123  2.2408 -1.4938  1.1006
31903SOL    HW296288   2.565   7.779   6.253 -0.6042 -0.2452 -0.5329
31904SOL     OW96289   2.890   1.948   4.706 -0.1789 -0.1228  0.2187
31904SOL    HW196290   2.908   2.009   4.634 -0.7499  0.1069  0.2631
31904SOL    HW296291   2.942   1.870   4.685 -0.9582 -0.3754 -0.8588
31905SOL     OW96292   3.489   5.910   0.632  0.0409 -0.8097  0.1597
31905SOL    HW196293   3.482   5.832   0.686  0.4968 -0.0761  1.3058
31905SOL    HW296294   3.404   5.954   0.643 -0.9780 -2.0494 -2.0058
31906SOL     OW96295   0.448   9.554   8.641  0.9603  0.4151  0.1742
31906SOL    HW196296   0.408   9.472   8.669 -1.1996  1.7489  1.1888
31906SOL    HW296297   0.522   9.527   8.586 -0.3612 -2.1707 -0.4516
31907SOL     OW96298   9.121   1.274   6.834 -0.2100  0.2989 -0.2683
31907SOL    HW196299   9.073   1.241   6.758 -0.4377  1.0222 -0.4390
31907SOL    HW296300   9.123   1.369   6.823 -0.3816  0.4279  0.7020
31908SOL     OW96301   2.089   8.429   4.374 -0.1741 -0.1085  0.1030
31908SOL    HW196302   2.054   8.445   4.462 -2.6417  0.7468 -0.9207
31908SOL    HW296303   2.035   8.484   4.318 -1.5166 -3.6579 -2.4299
31909SOL     OW96304   4.745   6.275   8.883  0.1324 -1.0214  0.5598
31909SOL    HW196305   4.708   6.305   8.966 -0.5773 -0.2962 -0.0101
31909SOL    HW296306   4.684   6.208   8.852  1.0261 -2.1777  1.1835
31910SOL     OW96307   0.909   5.096   7.204 -0.0563 -0.3192 -0.2745
31910SOL    HW196308   0.912   5.163   7.136  1.0573 -0.6491 -0.5670
31910SOL    HW296309   0.865   5.138   7.277  3.2835  1.8609  0.7105
31911SOL     OW96310   4.258   0.698   6.130  0.2018  0.5145 -0.1842
31911SOL    HW196311   4.330   0.726   6.074  0.2804  1.3048  0.3036
31911SOL    HW296312   4.212   0.779   6.152  0.9435  0.4221  1.9522
31912SOL     OW96313   1.775   1.267   9.182 -0.5248 -0.0362  0.2601
31912SOL    HW196314   1.816   1.182   9.167 -2.0727 -0.8737  0.5050
31912SOL    HW296315   1.728   1.257   9.264  1.6860  2.0742  1.9248
31913SOL     OW96316   6.330   4.227   9.258 -0.0072  0.0686 -0.7506
31913SOL    HW196317   6.321   4.195   9.348 -1.1021 -0.4609 -1.0338
31913SOL    HW296318   6.413   4.274   9.258 -0.9279  1.8344  1.0661
31914SOL     OW96319   8.903   5.512   3.522  0.0484  0.4855  0.3569
31914SOL    HW196320   8.872   5.584   3.576  1.7172  1.5791 -0.0571
31914SOL    HW296321   8.883   5.433   3.573  0.5896  1.4047  2.0611
31915SOL     OW96322   3.002   3.729   6.290 -0.3286 -0.0763  0.1975
31915SOL    HW196323   3.093   3.701   6.291 -0.4811 -0.5645  1.2503
31915SOL    HW296324   3.005   3.824   6.302  0.0299 -0.1099  0.3568
31916SOL     OW96325   6.588   3.755   5.748  0.3709  0.0515 -0.4126
31916SOL    HW196326   6.600   3.677   5.803 -1.0981  0.4119  0.4668
31916SOL    HW296327   6.594   3.829   5.808 -1.0961  0.4622 -0.7177
31917SOL     OW96328   6.523   2.909   5.927 -0.3858 -0.0530 -0.3804
31917SOL    HW196329   6.515   2.996   5.888 -0.1545  0.3060  0.3576
31917SOL    HW296330   6.434   2.888   5.956 -0.1566  0.6519  0.9127
31918SOL     OW96331   8.264   4.534   3.649 -0.3311 -0.1432  0.3896
31918SOL    HW196332   8.244   4.622   3.615  1.9281  0.0948 -0.4833
31918SOL    HW296333   8.303   4.488   3.575 -2.7729 -2.4691  0.3749
31919SOL     OW96334   0.945   5.672   4.853  0.0532 -1.1279  0.5906
31919SOL    HW196335   0.909   5.753   4.816 -1.0905 -1.9412 -0.1638
31919SOL    HW296336   1.007   5.701   4.920 -0.8058  0.3659  0.7806
31920SOL     OW96337   7.244   0.257   2.941  0.1833  0.0268  0.0795
31920SOL    HW196338   7.205   0.185   2.891  0.2847 -1.2382  1.7347
31920SOL    HW296339   7.332   0.227   2.962  0.2779  0.7004  0.6835
31921SOL     OW96340   6.503   9.602   3.941  0.4945 -0.0807 -0.0102
31921SOL    HW196341   6.501   9.645   3.856  2.7097 -1.8535 -1.0962
31921SOL    HW296342   6.442   9.529   3.933 -1.5988  1.4571  1.0654
31922SOL     OW96343   9.314   1.949   2.448 -0.2377  0.0131 -0.0997
31922SOL    HW196344   9.236   1.982   2.403  0.8695  0.3187 -1.8865
31922SOL    HW296345   9.291   1.859   2.472 -0.7254 -0.3565 -1.7713
31923SOL     OW96346   0.247   7.803   1.572 -0.0811  0.1835  0.4797
31923SOL    HW196347   0.317   7.855   1.611  0.2017  0.0221  0.1884
31923SOL    HW296348   0.208   7.862   1.506  0.0788  0.1138  0.3222
31924SOL     OW96349   6.224   8.930   4.520  0.1351  0.4914 -0.6788
31924SOL    HW196350   6.141   8.978   4.516 -0.1871 -0.0890 -1.2192
31924SOL    HW296351   6.288   8.995   4.548 -0.0201  1.6334 -2.7604
31925SOL     OW96352   3.592   8.080   9.445 -0.0022  0.2647  0.2686
31925SOL    HW196353   3.592   8.172   9.421  0.9045  0.1569 -0.1668
31925SOL    HW296354   3.530   8.040   9.384 -1.1516  0.7310  1.0996
31926SOL     OW96355   7.877   4.665   4.781 -0.4142  0.1998 -0.3328
31926SOL    HW196356   7.928   4.610   4.721  0.1054  1.1226 -0.7639
31926SOL    HW296357   7.823   4.719   4.723  1.2124  2.1992 -0.0861
31927SOL     OW96358   3.599   2.029   9.822 -0.4425 -0.2167 -0.4357
31927SOL    HW196359   3.525   2.063   9.772 -0.6005 -0.2148 -0.2055
31927SOL    HW296360   3.563   2.012   9.909 -0.1422 -0.0981 -0.2855
31928SOL     OW96361   3.087   8.171   1.082  0.2496 -0.4245  0.0131
31928SOL    HW196362   3.015   8.231   1.099  0.6521 -0.2134  1.0562
31928SOL    HW296363   3.045   8.088   1.060 -0.3052 -0.0546 -0.3340
31929SOL     OW96364   2.866   5.372   5.077  0.3336 -0.1626  0.2068
31929SOL    HW196365   2.843   5.385   5.169  1.6052 -0.5323  0.5904
31929SOL    HW296366   2.899   5.457   5.047 -0.0262 -0.0576  0.1021
31930SOL     OW96367   2.501   6.479   0.864  0.3844 -0.8694  0.5437
31930SOL    HW196368   2.505   6.574   0.875  0.9590 -0.9644  1.2180
31930SOL    HW296369   2.508   6.444   0.952  1.2525 -1.5633  0.2186
31931SOL     OW96370   3.188   9.764   1.050  0.1029 -0.3521 -0.6194
31931SOL    HW196371   3.143   9.793   0.971 -0.2002 -0.1385 -0.3699
31931SOL    HW296372   3.122   9.769   1.119  0.1457 -1.2807 -0.4986
31932SOL     OW96373   2.444   3.951   6.430 -0.1574 -0.0834 -0.2453
31932SOL    HW196374   2.500   3.924   6.502 -2.1505 -1.0486  1.0316
31932SOL    HW296375   2.449   3.878   6.367 -1.9746 -1.4545  1.1003
31933SOL     OW96376   1.307   9.239   4.060 -0.4410 -0.3851  0.2055
31933SOL    HW196377   1.356   9.187   4.124 -0.9765 -1.4188 -0.2098
31933SOL    HW296378   1.216   9.212   4.071 -0.5604 -0.4803 -0.8930
31934SOL     OW96379   2.026   5.236   3.876 -0.3053 -0.2840 -0.0624
31934SOL    HW196380   2.063   5.238   3.964  0.1676 -0.2212 -0.2588
31934SOL    HW296381   2.062   5.313   3.833 -0.6056 -0.2653 -0.2852
31935SOL     OW96382   6.003   5.846   8.901  0.3579  0.4122  0.9621
31935SOL    HW196383   6.061   5.922   8.895  0.3756  0.3704  0.5405
31935SOL    HW296384   6.048   5.779   8.849 -0.5377  0.6837 -0.1974
31936SOL     OW96385   5.873   3.781   9.670  0.7000  0.0369 -0.3885
31936SOL    HW196386   5.828   3.826   9.742 -0.2374 -2.4601  0.6987
31936SOL    HW296387   5.802   3.751   9.612  1.0512 -1.8474  0.0737
31937SOL     OW96388   4.613   3.372   2.927  0.0148 -0.6973 -0.0362
31937SOL    HW196389   4.667   3.392   3.004  1.7463 -1.4968 -0.9733
31937SOL    HW296390   4.574   3.456   2.903  1.4369  0.1032  0.2776
31938SOL     OW96391   4.900   9.937   3.136  0.3427  0.1152  0.4282
31938SOL    HW196392   4.972   9.947   3.073  0.9818 -0.1755  1.0897
31938SOL    HW296393   4.884   9.843   3.138 -0.5691  0.2375 -0.2500
31939SOL     OW96394   8.659   7.876   8.276 -0.1480  0.4436  0.3236
31939SOL    HW196395   8.735   7.824   8.304 -0.1975  0.3819  0.3444
31939SOL    HW296396   8.671   7.888   8.182 -0.9184 -0.9338  0.0075
31940SOL     OW96397   1.281   2.997   6.913  0.3445  0.2223 -0.2281
31940SOL    HW196398   1.251   2.928   6.854  1.0164 -1.0733  0.8872
31940SOL    HW296399   1.304   2.951   6.994 -0.7520  1.9511  1.1511
31941SOL     OW96400   8.369   8.182   8.955 -0.8924  0.2924  0.0104
31941SOL    HW196401   8.305   8.142   8.895 -0.6257 -0.0460 -0.0527
31941SOL    HW296402   8.315   8.217   9.026 -1.1318 -0.2728  0.1182
31942SOL     OW96403   5.209   8.424   1.228  0.1317  0.1174 -0.2978
31942SOL    HW196404   5.261   8.451   1.153  0.0808  0.0948 -0.3409
31942SOL    HW296405   5.209   8.501   1.286  1.4838 -0.3788  0.4066
31943SOL     OW96406   7.138   5.952   0.095  0.3953  0.0092  0.5711
31943SOL    HW196407   7.221   5.993   0.073  0.6184 -0.9239 -0.3829
31943SOL    HW296408   7.158   5.859   0.103 -0.7532 -0.4170 -0.9492
31944SOL     OW96409   5.336   2.272   0.156 -0.1921 -0.2447  0.4818
31944SOL    HW196410   5.306   2.344   0.101  0.8261  1.4026  2.0029
31944SOL    HW296411   5.412   2.237   0.109 -0.7286 -0.4119 -0.2942
31945SOL     OW96412   9.059   6.937   1.896  0.2613 -0.1665  0.4137
31945SOL    HW196413   9.044   7.009   1.957 -1.0069 -0.5167  0.5563
31945SOL    HW296414   8.971   6.905   1.875  0.6289  0.2420 -1.9868
31946SOL     OW96415   2.578   1.458   4.885 -0.4197  0.0390  0.4993
31946SOL    HW196416   2.533   1.484   4.804  0.5476  0.4864  0.0910
31946SOL    HW296417   2.637   1.388   4.858 -0.7377 -0.4178  0.9921
31947SOL     OW96418   0.254   4.852   1.681 -0.5793  0.3882 -0.2913
31947SOL    HW196419   0.305   4.801   1.743 -3.1773  0.6149  2.2023
31947SOL    HW296420   0.319   4.904   1.634  1.7371 -1.8756  0.1814
31948SOL     OW96421   3.988   8.503   8.723 -0.3535 -0.1879 -0.3661
31948SOL    HW196422   3.923   8.460   8.668 -0.2542 -0.7248 -0.0686
31948SOL    HW296423   4.058   8.438   8.734 -0.2675 -0.0073  0.2037
31949SOL     OW96424   1.620   7.467   7.727  0.3660 -0.7212 -0.4804
31949SOL    HW196425   1.665   7.388   7.698 -0.2218 -0.1330 -3.2360
31949SOL    HW296426   1.652   7.536   7.668  0.2360  0.9664  1.2922
31950SOL     OW96427   5.484   5.806   0.281 -0.4997  0.1055 -0.1877
31950SOL    HW196428   5.547   5.757   0.333 -1.4686  0.4745  1.3954
31950SOL    HW296429   5.522   5.894   0.273  0.0016 -0.1604 -0.7626
31951SOL     OW96430   3.761   6.134   8.686 -0.1641 -0.1713  0.0611
31951SOL    HW196431   3.798   6.053   8.652  0.0325 -0.8184  1.7375
31951SOL    HW296432   3.831   6.198   8.677  0.3105 -0.6388  0.4265
31952SOL     OW96433  10.004   9.540   9.203  0.0754  0.0629 -0.8363
31952SOL    HW196434   9.934   9.601   9.224  0.5384  0.8301 -1.5093
31952SOL    HW296435   9.991   9.518   9.111  1.1948  0.8638 -1.2065
31953SOL     OW96436   4.100   5.275   6.531  0.4632  0.3910 -0.1315
31953SOL    HW196437   4.136   5.214   6.466  1.5258 -1.1752  1.7849
31953SOL    HW296438   4.103   5.226   6.614 -3.6523  1.1583  0.6782
31954SOL     OW96439   7.394   4.131   8.782  0.0703 -0.1544  0.5841
31954SOL    HW196440   7.487   4.121   8.801  0.1953 -0.4890 -0.1603
31954SOL    HW296441   7.353   4.052   8.816  0.1544 -0.3207  0.2939
31955SOL     OW96442   6.313   9.913   2.486  0.6992 -0.1293 -0.1171
31955SOL    HW196443   6.322   9.868   2.403  1.1566  2.0148 -1.2976
31955SOL    HW296444   6.364   9.861   2.548 -0.0922 -2.0582 -1.0095
31956SOL     OW96445   9.993   0.295   4.457 -0.0129  0.0271 -0.3778
31956SOL    HW196446   9.925   0.233   4.430 -0.4113 -0.6881  2.0235
31956SOL    HW296447   9.995   0.360   4.387 -2.0179 -0.8362 -1.3146
31957SOL     OW96448   5.658   1.328   0.618  0.4730 -0.6900  0.0712
31957SOL    HW196449   5.731   1.345   0.677  0.6674  0.9098 -0.5733
31957SOL    HW296450   5.608   1.259   0.661  1.8117 -1.1102  1.0101
31958SOL     OW96451   2.850   6.199   9.634  0.1023  0.8766 -0.0606
31958SOL    HW196452   2.769   6.173   9.678  0.2634  1.2066  0.4474
31958SOL    HW296453   2.849   6.295   9.637  1.5898  0.9156  2.0643
31959SOL     OW96454   9.141   7.436   2.608  0.5207  0.1038 -0.0923
31959SOL    HW196455   9.120   7.349   2.574 -0.7008  0.0591  0.7073
31959SOL    HW296456   9.234   7.433   2.626 -0.0597 -2.3301  3.3357
31960SOL     OW96457   2.359   4.160   5.770  0.1613 -0.0160 -0.5672
31960SOL    HW196458   2.354   4.084   5.713  2.3335  0.0187 -0.8827
31960SOL    HW296459   2.410   4.131   5.845 -0.6978  0.5963  0.2894
31961SOL     OW96460   5.731   5.524   5.675 -1.1280  0.1381  0.6733
31961SOL    HW196461   5.778   5.575   5.610 -0.5575 -0.2136  0.8051
31961SOL    HW296462   5.785   5.528   5.754  0.3442 -2.8220 -0.0360
31962SOL     OW96463   7.582   4.752   8.001  0.0467 -0.3652  0.1442
31962SOL    HW196464   7.549   4.671   7.961 -1.4197 -0.4771  1.4482
31962SOL    HW296465   7.556   4.744   8.093  0.8880  1.0861  0.5303
31963SOL     OW96466   7.102   8.069   0.389  0.2653  0.6389  0.3015
31963SOL    HW196467   7.148   8.009   0.331 -1.0864 -1.6905  1.4638
31963SOL    HW296468   7.037   8.112   0.333  0.8541  0.5945 -0.4333
31964SOL     OW96469   6.566   0.023   3.986  0.3482  0.1916  0.4082
31964SOL    HW196470   6.526   0.078   3.919 -0.4594  0.1637  0.8486
31964SOL    HW296471   6.598   0.084   4.052  0.7923  0.1997  0.1890
31965SOL     OW96472   8.736   9.282   8.269 -0.3365  0.0733 -0.2243
31965SOL    HW196473   8.824   9.263   8.238  0.0563  1.3284  0.0555
31965SOL    HW296474   8.698   9.196   8.288  1.6488 -0.4568  1.8924
31966SOL     OW96475   2.969   5.636   5.083 -0.2856 -0.1657 -0.7029
31966SOL    HW196476   3.049   5.681   5.054 -0.2454 -0.4775 -1.0833
31966SOL    HW296477   2.899   5.699   5.069 -0.3890 -0.5955 -2.2869
31967SOL     OW96478   5.092   9.237   8.004  0.1716  0.2166  0.3418
31967SOL    HW196479   5.058   9.164   8.057 -0.4869  0.4817  0.2906
31967SOL    HW296480   5.160   9.276   8.059 -0.8582  0.8123  1.2270
31968SOL     OW96481   4.524   3.753   0.959 -0.4505 -0.1410 -0.6489
31968SOL    HW196482   4.577   3.832   0.947  0.9661 -0.8621  0.5072
31968SOL    HW296483   4.580   3.682   0.928  0.7379 -1.3222  3.4747
31969SOL     OW96484   7.900   6.846   3.590 -0.1004  0.1341 -0.2351
31969SOL    HW196485   7.889   6.796   3.670  1.5464 -0.9492 -0.6506
31969SOL    HW296486   7.831   6.814   3.531  0.3262 -0.9441 -0.1532
31970SOL     OW96487   4.034   4.192   6.811 -0.3440 -0.1566 -0.2634
31970SOL    HW196488   4.069   4.110   6.847  0.4187 -0.1260 -0.9044
31970SOL    HW296489   4.110   4.250   6.805 -0.5639  0.0504 -1.2970
31971SOL     OW96490   2.471   8.937   3.258  0.0580  0.8108  0.1686
31971SOL    HW196491   2.495   8.935   3.165 -0.7663 -0.9616 -0.0533
31971SOL    HW296492   2.538   8.991   3.299  1.5758  0.0289 -1.1607
31972SOL     OW96493   3.970   2.797   4.041  0.3483  0.1892 -0.0206
31972SOL    HW196494   3.947   2.707   4.015  2.4566 -0.3641 -0.1475
31972SOL    HW296495   4.050   2.787   4.093  1.2843  2.0734 -1.0080
31973SOL     OW96496   6.167   9.285   2.924 -0.1689  0.0634  0.4132
31973SOL    HW196497   6.141   9.199   2.891  1.4913 -0.8320  1.3490
31973SOL    HW296498   6.247   9.269   2.974  1.2542  2.4227 -0.9240
31974SOL     OW96499   4.358   0.888   7.835  0.4315  0.2619  0.6139
31974SOL    HW196500   4.355   0.974   7.878  0.3717  0.9800 -0.7764
31974SOL    HW296501   4.410   0.834   7.894 -2.2338  0.2588  3.1771
31975SOL     OW96502   8.795   1.058   5.498  0.1265  0.4709  0.6265
31975SOL    HW196503   8.766   1.148   5.510  1.1003  0.7118  1.3053
31975SOL    HW296504   8.802   1.023   5.586  1.1264  0.1893  0.4476
31976SOL     OW96505   7.582   0.918   6.436 -0.2484  0.4769 -0.0578
31976SOL    HW196506   7.631   0.939   6.357 -0.0651 -1.1190 -0.3999
31976SOL    HW296507   7.527   0.995   6.451 -0.0274  0.9528 -1.5315
31977SOL     OW96508   9.728   7.739   0.396 -0.5553 -0.3681  0.3118
31977SOL    HW196509   9.691   7.708   0.313 -1.5024 -1.8934  1.2841
31977SOL    HW296510   9.686   7.824   0.410  1.2234  1.0169 -1.7935
31978SOL     OW96511   9.951   8.332   5.905 -0.1322 -0.0276  0.4362
31978SOL    HW196512  10.021   8.387   5.870  0.7736 -1.0411  0.6130
31978SOL    HW296513   9.912   8.385   5.975  0.5819  0.4733  0.4669
31979SOL     OW96514   5.557   6.862   9.007  0.4187  0.1671 -0.2622
31979SOL    HW196515   5.530   6.899   9.091 -0.2028  0.6931 -0.6841
31979SOL    HW296516   5.528   6.771   9.011 -1.6005  0.7508 -0.7559
31980SOL     OW96517   1.750   9.651   1.798  0.1993  0.2952 -0.3725
31980SOL    HW196518   1.678   9.681   1.854  1.2750  0.8173  0.7685
31980SOL    HW296519   1.818   9.718   1.809  0.5398  0.2891 -2.1359
31981SOL     OW96520   1.802   6.655   5.861  0.1871 -0.0819 -0.0230
31981SOL    HW196521   1.853   6.629   5.784  2.3446  1.5692  0.7510
31981SOL    HW296522   1.765   6.740   5.838 -1.2097 -0.6685 -0.0721
31982SOL     OW96523  -0.003   2.393   7.785 -0.7110 -0.2895  0.5857
31982SOL    HW196524  -0.064   2.467   7.784  0.3070  0.6018  1.8004
31982SOL    HW296525   0.083   2.433   7.792  0.1623 -1.4892 -2.0231
31983SOL     OW96526   7.652   6.704   0.379 -0.1690 -0.1165  0.4060
31983SOL    HW196527   7.712   6.728   0.449 -1.1147  0.7187  0.9497
31983SOL    HW296528   7.580   6.659   0.423 -0.2709 -0.5291 -0.1629
31984SOL     OW96529   4.499   5.966   0.135  0.3428 -0.0140 -0.3754
31984SOL    HW196530   4.428   6.029   0.138 -0.4022 -0.7787 -1.2877
31984SOL    HW296531   4.579   6.019   0.130 -0.3256  0.8971 -2.8013
31985SOL     OW96532   7.087   2.310   3.269 -0.6349 -0.3968  0.6180
31985SOL    HW196533   7.163   2.346   3.224 -1.3357  0.8745  0.4152
31985SOL    HW296534   7.117   2.294   3.358 -0.8218  2.6990  1.3289
31986SOL     OW96535   4.068   1.364   0.105 -0.4131  0.2210 -0.1302
31986SOL    HW196536   4.122   1.364   0.026 -2.5281 -0.3893 -1.6749
31986SOL    HW296537   4.099   1.288   0.155  1.0256  0.6754 -0.2680
31987SOL     OW96538   0.302   2.959   9.035 -1.0045  0.2232  0.2996
31987SOL    HW196539   0.317   3.017   8.961  0.4780 -1.7928 -1.0803
31987SOL    HW296540   0.373   2.980   9.096 -0.2851 -0.3126 -0.3335
31988SOL     OW96541   8.728   4.629   5.520 -0.5594 -0.0170 -0.6001
31988SOL    HW196542   8.659   4.693   5.507  0.5825  0.8822 -2.7899
31988SOL    HW296543   8.803   4.664   5.471  0.5939 -2.2794 -0.5968
31989SOL     OW96544   3.163   8.415   3.503 -0.1320 -0.1962  0.2327
31989SOL    HW196545   3.127   8.482   3.446  0.4355  0.1279  0.2506
31989SOL    HW296546   3.147   8.333   3.456 -1.4154 -0.1293  0.5083
31990SOL     OW96547   1.015   3.863   2.561  0.2804 -0.4353 -0.6003
31990SOL    HW196548   0.972   3.801   2.502  1.5505 -1.5778 -0.3611
31990SOL    HW296549   1.004   3.948   2.518 -3.5965 -0.3122  0.1906
31991SOL     OW96550   3.955   4.770   5.285 -0.1858  0.4536  0.3303
31991SOL    HW196551   3.941   4.803   5.374 -1.0897 -0.1420  0.4210
31991SOL    HW296552   3.870   4.737   5.258  0.5909 -1.4531  0.1010
31992SOL     OW96553   6.626   4.587   0.951 -0.3678 -0.5180 -0.4098
31992SOL    HW196554   6.589   4.675   0.956  0.7547  0.0234 -1.1908
31992SOL    HW296555   6.679   4.578   1.031  0.5459  0.0317 -0.9298
31993SOL     OW96556   3.198   1.841   9.445  0.4915  0.0439 -0.2882
31993SOL    HW196557   3.248   1.811   9.521  3.4265 -2.7781 -3.0717
31993SOL    HW296558   3.246   1.917   9.413  0.6779 -0.2353 -0.6764
31994SOL     OW96559   1.553   5.155   8.975  0.4072  0.2137 -0.6320
31994SOL    HW196560   1.488   5.224   8.984  1.5229  1.4558 -1.7636
31994SOL    HW296561   1.579   5.135   9.065 -1.3092 -0.1409 -0.1736
31995SOL     OW96562   7.856   1.703   0.973  0.2751  0.3604  1.1940
31995SOL    HW196563   7.890   1.754   0.900  1.9879  0.0970  1.7485
31995SOL    HW296564   7.761   1.711   0.967  0.1425 -1.6236 -2.5153
31996SOL     OW96565   8.250   6.963   5.651 -0.0569  0.1047  0.0624
31996SOL    HW196566   8.275   7.049   5.620  2.7891 -1.2294 -1.7630
31996SOL    HW296567   8.287   6.958   5.740  1.2132  0.2402 -0.4370
31997SOL     OW96568   8.187   4.388   0.672  0.2962  0.5695  0.5345
31997SOL    HW196569   8.135   4.468   0.660 -2.8120 -1.2987  0.2694
31997SOL    HW296570   8.243   4.385   0.595  0.2412  2.2960  0.3758
31998SOL     OW96571   6.729   7.015   5.870 -0.1700 -0.0778 -0.0573
31998SOL    HW196572   6.809   7.022   5.922 -0.5074  1.4361  0.3042
31998SOL    HW296573   6.666   7.071   5.916 -1.8997 -2.3111  0.4744
31999SOL     OW96574   6.148   4.986   0.188  0.1911 -0.4977 -0.2798
31999SOL    HW196575   6.082   4.931   0.230 -0.1862 -0.2673 -0.5597
31999SOL    HW296576   6.121   5.076   0.209 -0.2942 -0.3593 -1.4286
32000SOL     OW96577   5.503   6.312   3.357 -0.2227  0.1767 -0.0374
32000SOL    HW196578   5.532   6.363   3.433  0.8877 -1.4067  0.6722
32000SOL    HW296579   5.423   6.269   3.386 -0.0859 -0.0125  0.0636
32001SOL     OW96580   8.255   5.482   6.701  0.0340  0.2011 -0.3086
32001SOL    HW196581   8.217   5.431   6.630  0.2459 -0.1532 -0.1735
32001SOL    HW296582   8.263   5.571   6.666  0.2723 -0.0010 -0.7747
32002SOL     OW96583   3.277   3.496   8.998 -0.5989  0.2345  0.5424
32002SOL    HW196584   3.211   3.482   9.067 -2.2194 -0.6030 -1.0942
32002SOL    HW296585   3.269   3.589   8.977  0.5641  0.7273  2.0487
32003SOL     OW96586   7.058   7.035   2.369 -0.0398 -0.5798  0.1821
32003SOL    HW196587   6.995   7.004   2.434 -0.8984  0.8596  0.0833
32003SOL    HW296588   7.018   7.014   2.284 -0.0126 -0.3606  0.1148
32004SOL     OW96589   3.202   4.402   2.410 -0.7920  0.1423  0.3633
32004SOL    HW196590   3.283   4.437   2.372 -0.5475  0.8326  1.4808
32004SOL    HW296591   3.225   4.378   2.499 -1.6797 -0.2010  0.5148
32005SOL     OW96592   2.292   3.985   2.196 -0.2621 -0.0625  0.1952
32005SOL    HW196593   2.328   3.901   2.225 -2.6814 -1.4526 -0.4584
32005SOL    HW296594   2.352   4.015   2.128  0.8332 -1.1070  0.6714
32006SOL     OW96595   9.238   3.398   7.731 -0.0320 -0.1073  0.1240
32006SOL    HW196596   9.181   3.420   7.804  0.0692 -1.4274  0.6317
32006SOL    HW296597   9.215   3.461   7.663 -0.4195  0.8772  1.1443
32007SOL     OW96598   5.512   4.139   6.362  0.9796  0.2631  0.0674
32007SOL    HW196599   5.552   4.224   6.346  0.3184  0.2556 -2.0481
32007SOL    HW296600   5.509   4.097   6.275 -3.2438  0.1449  0.0224
32008SOL     OW96601   7.022   4.410   1.089  0.2502  0.2135  0.5362
32008SOL    HW196602   7.060   4.342   1.144  0.1552 -0.1796  0.1227
32008SOL    HW296603   7.096   4.468   1.069  0.2745  0.3884  1.1065
32009SOL     OW96604   1.158   9.781   2.589  0.7682 -0.4193  0.1944
32009SOL    HW196605   1.148   9.715   2.521 -2.0477  1.3204 -1.2613
32009SOL    HW296606   1.192   9.858   2.544  0.5429  0.2361  1.1090
32010SOL     OW96607   7.864   7.358   8.904 -0.2639 -0.2193  0.2291
32010SOL    HW196608   7.954   7.373   8.933  0.4655 -1.3363 -1.3659
32010SOL    HW296609   7.852   7.420   8.831 -1.3113  0.9448  1.3329
32011SOL     OW96610   3.465   9.634   2.915  0.3924  0.3581  0.1668
32011SOL    HW196611   3.434   9.723   2.898 -0.5190  0.1694  0.7310
32011SOL    HW296612   3.511   9.640   2.998  0.3099  0.3067  0.2171
32012SOL     OW96613   2.615   1.969   7.205 -0.3203 -0.0356 -0.3357
32012SOL    HW196614   2.565   2.022   7.143  1.0023  0.8520 -0.6877
32012SOL    HW296615   2.674   1.917   7.149 -0.4577 -0.6532  0.0879
32013SOL     OW96616   0.122   7.703   0.914  0.4403  0.4706 -0.0350
32013SOL    HW196617   0.139   7.786   0.870 -1.7910  1.5949  1.0676
32013SOL    HW296618   0.090   7.645   0.844 -1.8163  1.8232 -0.2111
32014SOL     OW96619   6.915   9.401   0.799 -0.2125  0.1346  0.0672
32014SOL    HW196620   6.984   9.455   0.762 -0.5469  1.1788  0.9337
32014SOL    HW296621   6.961   9.329   0.842  0.2271 -0.3479 -1.1423
32015SOL     OW96622   1.595   3.216   9.281 -0.7990  0.6121 -0.5320
32015SOL    HW196623   1.616   3.194   9.191 -0.9308  1.1547 -0.6976
32015SOL    HW296624   1.679   3.213   9.327 -0.8130 -0.2328 -0.5449
32016SOL     OW96625   7.432   6.431   9.239  0.3572 -0.0807 -0.1513
32016SOL    HW196626   7.497   6.369   9.271  0.4871  0.1828  0.1059
32016SOL    HW296627   7.392   6.467   9.318  0.6241  0.5139 -0.2719
32017SOL     OW96628   1.598   2.758   1.877 -0.5917 -0.6813  0.3319
32017SOL    HW196629   1.517   2.713   1.853 -1.3619  0.2280  1.1192
32017SOL    HW296630   1.594   2.765   1.972 -0.4354  0.8988  0.2462
32018SOL     OW96631   2.733   8.158   3.277 -0.6069  0.0782 -0.0385
32018SOL    HW196632   2.774   8.085   3.231 -0.9509  0.9895 -1.9379
32018SOL    HW296633   2.661   8.185   3.218 -1.2831  1.1226  1.2126
32019SOL     OW96634   8.787   8.898   7.698 -0.1944  0.2580  0.7214
32019SOL    HW196635   8.693   8.887   7.689 -0.3523 -0.6955  3.0000
32019SOL    HW296636   8.798   8.989   7.727 -0.3310  0.5854 -0.2195
32020SOL     OW96637   9.059   7.081   0.554 -0.1721 -0.8154  0.4216
32020SOL    HW196638   9.099   7.162   0.588 -2.6370  0.9337 -0.5632
32020SOL    HW296639   9.132   7.019   0.550  2.0603  1.5901  0.4243
32021SOL     OW96640   4.979   7.069   2.784  0.6121 -0.2828 -0.4756
32021SOL    HW196641   5.067   7.081   2.747  0.8369  0.0025  0.1414
32021SOL    HW296642   4.991   7.008   2.857  0.4086  0.2328  0.0016
32022SOL     OW96643   2.668   5.790   8.209  0.7114  0.1156 -0.0178
32022SOL    HW196644   2.636   5.859   8.152  0.9995  1.1029  0.9781
32022SOL    HW296645   2.678   5.714   8.152 -0.9234  0.4899 -0.8626
32023SOL     OW96646   4.634   3.219   9.509 -0.0341 -0.2878 -0.1914
32023SOL    HW196647   4.649   3.306   9.545 -1.1099  0.5505 -1.6872
32023SOL    HW296648   4.675   3.221   9.422 -1.1420 -0.8371 -0.7528
32024SOL     OW96649   8.459   4.397   1.443  0.2907 -0.2668  0.2303
32024SOL    HW196650   8.413   4.327   1.397 -2.6936  2.0970 -0.7816
32024SOL    HW296651   8.418   4.400   1.530  0.6851 -0.0551  0.4117
32025SOL     OW96652   6.085   7.739   0.158 -0.4520 -0.0707 -0.2804
32025SOL    HW196653   6.143   7.730   0.083 -0.6901  0.6884 -0.5578
32025SOL    HW296654   6.046   7.826   0.149  0.2005  0.4224  1.1972
32026SOL     OW96655   7.786   1.752   6.005 -0.0467  0.5238 -0.2534
32026SOL    HW196656   7.817   1.681   5.949  1.3301  1.1659 -0.3421
32026SOL    HW296657   7.865   1.786   6.046 -0.6645  2.0890 -0.3145
32027SOL     OW96658   1.984   6.908   6.400 -0.0550  0.4046 -0.3776
32027SOL    HW196659   2.072   6.882   6.374 -0.0932 -0.4931  0.3423
32027SOL    HW296660   1.957   6.973   6.334  0.5446 -0.4547 -1.4902
32028SOL     OW96661   6.268   1.569   2.992 -0.5310  0.1400 -0.0529
32028SOL    HW196662   6.355   1.532   3.003 -0.5969 -0.3507 -1.0810
32028SOL    HW296663   6.283   1.657   2.957 -0.4575 -0.1455 -0.7487
32029SOL     OW96664   4.971   7.500   8.129 -0.5733  0.2305  0.0813
32029SOL    HW196665   4.909   7.519   8.200  0.4933  1.0342  0.8201
32029SOL    HW296666   4.973   7.581   8.076  0.3499  0.4692  0.4625
32030SOL     OW96667   1.544   6.475   6.557  0.2350 -0.2204  0.5454
32030SOL    HW196668   1.531   6.568   6.574  0.2013  0.4696 -2.5636
32030SOL    HW296669   1.637   6.466   6.538 -0.1490 -0.2860 -1.5279
32031SOL     OW96670   7.536   5.042   4.228 -0.4071  0.7995  0.0117
32031SOL    HW196671   7.440   5.048   4.227 -0.6545 -2.0539  0.1247
32031SOL    HW296672   7.556   4.991   4.307  0.8975 -1.7345 -1.8365
32032SOL     OW96673   0.240   7.936   1.333 -0.0259 -0.1094 -0.4363
32032SOL    HW196674   0.313   7.909   1.277 -1.5455 -1.0152 -2.0946
32032SOL    HW296675   0.163   7.893   1.295 -1.9339  3.0676 -0.5656
32033SOL     OW96676   7.422   2.730   8.390 -0.6236 -0.0367 -0.3750
32033SOL    HW196677   7.421   2.639   8.422 -1.0403 -1.0387 -3.0125
32033SOL    HW296678   7.436   2.722   8.296  0.1341  2.7151 -0.5795
32034SOL     OW96679   3.972   4.182   4.529 -0.7145 -0.4082  0.2944
32034SOL    HW196680   3.899   4.125   4.505 -1.6021  0.1405  1.5143
32034SOL    HW296681   3.988   4.161   4.621 -0.9974  1.2006  0.7401
32035SOL     OW96682   5.754   7.046   2.878 -0.3246 -0.4258  0.0933
32035SOL    HW196683   5.721   6.959   2.857  0.5679 -0.2656 -2.3245
32035SOL    HW296684   5.828   7.059   2.819 -1.8754  2.8624 -1.4409
32036SOL     OW96685   4.629   9.946   9.395  0.1560  0.0816 -0.4582
32036SOL    HW196686   4.592   9.870   9.350 -0.5231  1.8965 -3.2505
32036SOL    HW296687   4.576   9.957   9.473 -0.1608 -1.8832 -0.3590
32037SOL     OW96688   4.560   8.461   6.087 -0.2411 -0.3344  0.2925
32037SOL    HW196689   4.571   8.553   6.112 -2.0645  0.3670 -1.2291
32037SOL    HW296690   4.605   8.412   6.156  1.7401  1.6983  0.5655
32038SOL     OW96691   6.181   7.813   5.459 -0.4107  0.6675  0.3909
32038SOL    HW196692   6.105   7.844   5.509  0.3593  2.0810  0.7173
32038SOL    HW296693   6.254   7.818   5.521 -0.2243 -1.9577  0.5213
32039SOL     OW96694   4.737   2.140   2.833 -0.1124  0.0365 -0.3243
32039SOL    HW196695   4.787   2.089   2.896  0.2745  2.2986  1.3089
32039SOL    HW296696   4.769   2.111   2.747 -0.1366 -2.5994  0.4637
32040SOL     OW96697   2.245   7.524   0.175 -0.2100  0.4216 -0.0750
32040SOL    HW196698   2.222   7.434   0.152 -0.4143  0.5758 -0.4849
32040SOL    HW296699   2.296   7.515   0.256 -0.3092 -0.0524 -0.0571
32041SOL     OW96700   2.973   5.167   1.916  0.2515 -0.8290 -0.3652
32041SOL    HW196701   3.018   5.159   2.000  0.8851 -0.4868 -0.6712
32041SOL    HW296702   2.887   5.129   1.932 -0.3179  0.8865  0.9682
32042SOL     OW96703   8.761   5.692   6.769 -0.1075 -0.1956  0.1199
32042SOL    HW196704   8.734   5.600   6.761  0.2345 -0.4372  1.5150
32042SOL    HW296705   8.715   5.724   6.847 -0.0063  0.7477 -0.1983
32043SOL     OW96706   1.809   6.609   0.919  0.2532 -0.1125  0.1471
32043SOL    HW196707   1.845   6.575   1.001 -0.7728  0.7155  0.9645
32043SOL    HW296708   1.816   6.704   0.927  0.6423 -0.0391 -0.9657
32044SOL     OW96709   0.209   1.206   3.884 -0.1991 -0.6524  0.3088
32044SOL    HW196710   0.238   1.174   3.970  1.1428  1.2688  0.6463
32044SOL    HW296711   0.290   1.210   3.832 -0.8848 -1.1003 -0.8138
32045SOL     OW96712   9.929   2.717   1.483 -0.3450 -0.2335 -0.5964
32045SOL    HW196713   9.973   2.773   1.548 -2.5561 -1.0414  1.7725
32045SOL    HW296714   9.997   2.656   1.455  0.7930  0.3593  0.7053
32046SOL     OW96715   4.442   2.224   5.445  0.4497 -0.3909 -0.6348
32046SOL    HW196716   4.412   2.256   5.361  0.8298  0.6476 -0.3842
32046SOL    HW296717   4.368   2.237   5.504  1.5180  2.8786  0.1619
32047SOL     OW96718   2.093   7.855   6.792 -0.0368 -0.0926  0.0814
32047SOL    HW196719   2.022   7.897   6.744 -1.0492 -1.1796  0.5676
32047SOL    HW296720   2.166   7.917   6.787 -0.6539  0.5540 -1.3820
32048SOL     OW96721   1.458   5.117   0.885  0.4785  0.0032  0.0016
32048SOL    HW196722   1.462   5.135   0.791  1.8503 -0.9470 -0.1432
32048SOL    HW296723   1.397   5.183   0.919  0.5028  0.8077 -1.4395
32049SOL     OW96724   4.612   1.588   5.491 -0.5899 -0.5138  0.3027
32049SOL    HW196725   4.679   1.598   5.423 -0.5157 -0.0313  0.4370
32049SOL    HW296726   4.629   1.661   5.550 -0.8822 -0.7232  0.6436
32050SOL     OW96727   2.321   4.270   3.432 -0.2348 -0.3493  0.5016
32050SOL    HW196728   2.253   4.218   3.476 -1.3657 -0.5534 -1.4083
32050SOL    HW296729   2.376   4.205   3.389 -0.1450 -0.0749  0.2003
32051SOL     OW96730   2.372   7.554   7.365 -0.3846  0.1039  0.0021
32051SOL    HW196731   2.438   7.491   7.336 -1.7635 -2.1123  1.3948
32051SOL    HW296732   2.311   7.560   7.292  0.2454  0.5846 -0.4987
32052SOL     OW96733   3.267   3.313   3.807  0.4774 -0.1734 -0.0585
32052SOL    HW196734   3.204   3.383   3.823  1.0027  0.0687  0.9950
32052SOL    HW296735   3.236   3.240   3.862  1.0964 -0.0633  0.4384
32053SOL     OW96736   5.988   2.839   6.480  0.2360 -0.2716  0.6883
32053SOL    HW196737   5.909   2.806   6.438  0.9451  0.3358 -1.2546
32053SOL    HW296738   6.041   2.761   6.495 -0.4411 -0.6086  1.4113
32054SOL     OW96739   1.087   1.919   0.755  0.3748 -0.4210 -0.1462
32054SOL    HW196740   1.119   1.829   0.746 -2.5629 -1.5147 -0.7236
32054SOL    HW296741   1.085   1.953   0.665 -2.1107 -1.2102 -0.4554
32055SOL     OW96742   0.442   3.320   1.691 -0.0372  0.6212  0.1617
32055SOL    HW196743   0.365   3.329   1.635  0.4120 -0.1610 -0.6122
32055SOL    HW296744   0.492   3.401   1.676  0.2170  0.3012 -0.8109
32056SOL     OW96745   7.458   7.544   9.472 -0.5374  0.1605  0.2864
32056SOL    HW196746   7.454   7.640   9.475  0.8772  0.3203 -1.1615
32056SOL    HW296747   7.444   7.522   9.380  0.4328 -0.9324  0.3750
32057SOL     OW96748   2.767   7.457   8.055 -0.3630  0.0379 -0.3255
32057SOL    HW196749   2.809   7.507   7.986 -0.8936  0.4361 -0.3677
32057SOL    HW296750   2.835   7.397   8.087  0.9282  2.1013  1.0548
32058SOL     OW96751   1.980   1.917   9.355  0.0798 -0.4610 -0.5778
32058SOL    HW196752   1.954   1.989   9.413  2.3631 -0.3011  0.3439
32058SOL    HW296753   1.939   1.939   9.271 -1.1432  0.6961  0.2732
32059SOL     OW96754   6.477   2.298   2.235 -0.0337 -0.2116  0.5722
32059SOL    HW196755   6.544   2.345   2.285 -1.6320  1.2534  1.4009
32059SOL    HW296756   6.458   2.221   2.288  0.1613 -0.0342  0.9074
32060SOL     OW96757   6.527   7.537   7.825 -0.2949  0.2538 -0.1638
32060SOL    HW196758   6.542   7.612   7.769 -0.9136  0.6053  0.1397
32060SOL    HW296759   6.615   7.510   7.852 -0.0859  1.0308 -0.0567
32061SOL     OW96760   4.223   9.212   8.693 -0.2365  0.2384  0.7385
32061SOL    HW196761   4.159   9.244   8.630  0.1518  1.5997  0.9903
32061SOL    HW296762   4.307   9.218   8.647 -0.1516 -0.4413  0.7966
32062SOL     OW96763   9.941   7.918   6.667  0.0543 -0.8138  0.5297
32062SOL    HW196764   9.950   8.013   6.658  0.4366 -0.8744  0.2533
32062SOL    HW296765   9.848   7.902   6.650 -0.1213 -0.4357  1.0929
32063SOL     OW96766   3.963   3.455   5.116  0.6581  0.2820 -0.0060
32063SOL    HW196767   3.945   3.549   5.115  1.0272  0.3813  1.0914
32063SOL    HW296768   3.953   3.428   5.025 -3.8765  0.5117  0.1702
32064SOL     OW96769   6.372   8.466   7.793  0.2417  0.3335  0.5607
32064SOL    HW196770   6.449   8.502   7.748 -0.2012  1.1460  0.4236
32064SOL    HW296771   6.329   8.543   7.831 -0.7464 -0.0451  0.2467
32065SOL     OW96772   7.057   1.769   1.935 -0.7282  0.0557 -0.4958
32065SOL    HW196773   6.968   1.784   1.903 -0.6442  1.4979 -0.1001
32065SOL    HW296774   7.045   1.740   2.026 -0.7875  0.5378 -0.3480
32066SOL     OW96775   0.261   6.004   7.795 -0.0195  0.2466  0.4881
32066SOL    HW196776   0.294   6.028   7.709 -0.2026  2.3270  0.9379
32066SOL    HW296777   0.316   5.931   7.823 -0.4579 -0.9831 -1.6706
32067SOL     OW96778   3.999   0.954   2.760  0.3226 -0.1592 -0.1115
32067SOL    HW196779   4.011   1.045   2.731 -1.8118  1.2948  3.0457
32067SOL    HW296780   4.086   0.927   2.790  0.4270  2.0765  1.8726
32068SOL     OW96781   3.415   1.135   8.194 -0.0142  0.1656  0.1866
32068SOL    HW196782   3.379   1.094   8.115  0.3843  0.4901 -0.1725
32068SOL    HW296783   3.358   1.210   8.209 -0.1268  0.0691  0.2424
32069SOL     OW96784   8.713   6.689   0.502 -0.7572 -0.2692  0.6117
32069SOL    HW196785   8.643   6.673   0.565 -1.2246  1.2806  0.5362
32069SOL    HW296786   8.758   6.766   0.535  0.7078 -1.0416  0.4637
32070SOL     OW96787   1.879   3.707   8.447 -0.2024  0.4063 -0.1847
32070SOL    HW196788   1.949   3.759   8.486 -0.4535 -0.1199  1.0354
32070SOL    HW296789   1.918   3.621   8.434 -0.3225  0.3951 -0.4611
32071SOL     OW96790   6.132   7.352   2.246 -0.0979 -1.1314  0.2746
32071SOL    HW196791   6.080   7.415   2.296 -0.4434 -1.4090  0.2624
32071SOL    HW296792   6.218   7.393   2.240 -0.6869 -0.0170 -0.9260
32072SOL     OW96793   0.427   8.498   9.662 -0.3022  0.0003  0.0966
32072SOL    HW196794   0.515   8.518   9.696  0.0414  0.0371 -0.7905
32072SOL    HW296795   0.392   8.582   9.634 -1.2169  0.2124  1.7759
32073SOL     OW96796   1.611   0.411   6.242 -0.2266  0.7205  0.0253
32073SOL    HW196797   1.676   0.427   6.310  0.7121  1.4588 -1.0114
32073SOL    HW296798   1.657   0.358   6.177 -1.3996 -0.8124  0.3741
32074SOL     OW96799   4.911   4.900   6.549 -0.7147 -0.4238 -0.1513
32074SOL    HW196800   4.827   4.863   6.577 -0.7133 -1.4335 -1.3968
32074SOL    HW296801   4.924   4.866   6.461  1.1382 -0.4742  0.1050
32075SOL     OW96802   0.512   4.558   1.334 -0.4234  0.1115 -0.1711
32075SOL    HW196803   0.511   4.503   1.413  0.3759  0.5657  0.1676
32075SOL    HW296804   0.526   4.647   1.367 -0.7248  0.3907 -0.7817
32076SOL     OW96805   7.174   5.137   5.101  0.2422  0.5815  0.0729
32076SOL    HW196806   7.119   5.092   5.037  0.5131 -0.8087  0.7761
32076SOL    HW296807   7.117   5.148   5.177  0.0832  1.7576 -0.1867
32077SOL     OW96808   8.399   8.788   1.227 -0.5841 -0.3192  0.0951
32077SOL    HW196809   8.404   8.809   1.134  0.0570 -1.1646 -0.0766
32077SOL    HW296810   8.488   8.802   1.260 -0.6117 -0.8268  0.3932
32078SOL     OW96811   4.774   6.586   5.034  0.5996  0.5955 -0.2530
32078SOL    HW196812   4.842   6.606   5.099  2.4081 -1.4788 -1.4009
32078SOL    HW296813   4.721   6.517   5.076  1.3327 -0.2310 -0.6494
32079SOL     OW96814   7.911   7.724   8.231 -0.3976 -0.3389  0.0910
32079SOL    HW196815   7.940   7.670   8.305 -0.3685 -0.4217  0.0207
32079SOL    HW296816   7.842   7.779   8.267 -0.8780 -0.8757  0.0177
32080SOL     OW96817   5.937   5.198   3.857 -0.0569 -0.3030 -0.3183
32080SOL    HW196818   5.866   5.180   3.919  0.7859  0.2445  0.8443
32080SOL    HW296819   5.893   5.207   3.772 -1.4358  0.4344  0.4322
32081SOL     OW96820   4.529   4.753   3.812 -1.0614 -0.2996  0.2575
32081SOL    HW196821   4.571   4.837   3.831 -1.2349  0.0671 -0.8945
32081SOL    HW296822   4.443   4.760   3.853 -1.4681  0.5132 -0.6841
32082SOL     OW96823   3.363   2.812   5.353 -0.0848  0.2214 -0.1324
32082SOL    HW196824   3.397   2.723   5.350  1.4251  0.7234  1.1176
32082SOL    HW296825   3.341   2.827   5.444  0.3164  1.3440 -0.2011
32083SOL     OW96826   0.884   3.089   1.190  0.3827  0.0662 -0.0146
32083SOL    HW196827   0.890   2.998   1.219 -0.0028 -1.0393 -3.0187
32083SOL    HW296828   0.976   3.117   1.185  0.5543 -0.4293  0.2008
32084SOL     OW96829   9.374   0.566   4.564 -0.0357 -0.0693 -0.4931
32084SOL    HW196830   9.307   0.534   4.625  0.5508 -1.0240 -0.3344
32084SOL    HW296831   9.423   0.630   4.615 -0.0448 -0.2858 -0.2061
32085SOL     OW96832   3.530   2.212   4.273 -0.4173  0.0655  0.0357
32085SOL    HW196833   3.552   2.121   4.251  1.7657  0.7884 -1.0555
32085SOL    HW296834   3.544   2.218   4.368 -0.6094 -0.7249  0.1232
32086SOL     OW96835   9.009   9.156   7.775 -0.0709  0.5522 -0.3375
32086SOL    HW196836   9.057   9.212   7.713  0.0147 -0.0897 -0.8684
32086SOL    HW296837   9.062   9.076   7.780 -1.2455 -0.3154 -1.2070
32087SOL     OW96838   7.049   7.886   5.420 -0.1798 -0.1808  0.3490
32087SOL    HW196839   7.072   7.902   5.329 -0.9202  1.4649  0.4181
32087SOL    HW296840   7.104   7.811   5.446  0.2894 -0.4560 -1.3219
32088SOL     OW96841   1.904   5.044   4.232 -0.3860 -0.1476 -0.4077
32088SOL    HW196842   1.913   5.123   4.179  0.8417  0.9143  1.2730
32088SOL    HW296843   1.964   4.981   4.192  0.9845  0.8375  0.0055
32089SOL     OW96844   4.564   8.299   2.115  0.0834 -0.0297  0.3892
32089SOL    HW196845   4.480   8.294   2.160  0.4481  1.0868  1.2383
32089SOL    HW296846   4.597   8.209   2.116 -1.0101 -0.4545  0.1794
32090SOL     OW96847   6.241   7.061   0.427 -0.4346 -0.0696 -0.0434
32090SOL    HW196848   6.218   7.107   0.507 -0.8884 -1.1341  0.4578
32090SOL    HW296849   6.197   7.110   0.357 -2.4225 -0.7488  0.6534
32091SOL     OW96850   3.722   1.120   0.359 -0.4087  0.2549 -0.2217
32091SOL    HW196851   3.628   1.105   0.353  0.0439 -2.9279 -0.8714
32091SOL    HW296852   3.739   1.127   0.453 -1.1951 -0.0110 -0.0534
32092SOL     OW96853   1.383   9.399   2.320  0.3954  0.4593  0.3519
32092SOL    HW196854   1.318   9.329   2.318  1.0034 -0.1166  0.3020
32092SOL    HW296855   1.401   9.417   2.227  2.5673 -1.5651  0.2751
32093SOL     OW96856   6.665   5.269   9.192 -0.4324 -0.2573 -0.0574
32093SOL    HW196857   6.678   5.354   9.233 -0.8959  0.5321 -1.4805
32093SOL    HW296858   6.627   5.289   9.106  0.9723 -1.7853 -1.1084
32094SOL     OW96859   1.108   3.787   9.465  0.2426  0.3364  0.3469
32094SOL    HW196860   1.184   3.829   9.503 -0.1992  1.2219  0.2847
32094SOL    HW296861   1.050   3.860   9.440 -0.1501 -0.2681 -0.5848
32095SOL     OW96862   4.581   2.675   1.650  0.3304 -0.0289  0.5644
32095SOL    HW196863   4.502   2.719   1.684  0.4693  1.5589 -1.0182
32095SOL    HW296864   4.558   2.582   1.649 -0.4755  0.0766  2.7811
32096SOL     OW96865   3.028   6.490   0.810 -0.3212 -0.1144  0.1296
32096SOL    HW196866   2.950   6.441   0.838  0.2392 -1.0087  0.1604
32096SOL    HW296867   2.994   6.555   0.749 -1.4709  1.3962  2.2629
32097SOL     OW96868   2.396   5.292   9.152  0.6288 -0.1045 -0.1978
32097SOL    HW196869   2.403   5.350   9.228  1.5113  0.4655 -0.7035
32097SOL    HW296870   2.469   5.231   9.162 -0.1527 -1.0033  0.2051
32098SOL     OW96871   5.410   9.728   8.386 -0.3930 -0.0405 -0.0792
32098SOL    HW196872   5.454   9.748   8.303 -0.7325  0.1693 -0.2145
32098SOL    HW296873   5.453   9.649   8.418 -0.1179 -0.0047 -0.3520
32099SOL     OW96874   6.197   8.268   9.883  0.0241 -0.1941  0.3138
32099SOL    HW196875   6.128   8.332   9.900 -0.1489 -0.0088 -0.9679
32099SOL    HW296876   6.277   8.320   9.874  0.0432 -0.2402  0.2077
32100SOL     OW96877   2.784   1.099   5.765  0.0918  0.3557  0.6024
32100SOL    HW196878   2.775   1.031   5.833 -0.2649 -0.6589 -0.4333
32100SOL    HW296879   2.741   1.175   5.803  0.9185  0.1679  1.9871
32101SOL     OW96880   1.515   3.077   7.678  0.0018 -0.2752  0.2582
32101SOL    HW196881   1.521   3.139   7.751 -1.4153 -1.0591  1.0890
32101SOL    HW296882   1.585   3.103   7.619  1.0749  0.5238  1.7977
32102SOL     OW96883   4.331   0.174   7.506 -0.1239 -0.5557 -0.0894
32102SOL    HW196884   4.256   0.130   7.546 -0.3052 -2.1580 -2.0494
32102SOL    HW296885   4.406   0.120   7.532 -0.0527 -0.6943 -0.5659
32103SOL     OW96886   2.568   9.633   9.175  0.2299  0.2611  0.0178
32103SOL    HW196887   2.572   9.727   9.191 -0.8386  0.2279  0.5452
32103SOL    HW296888   2.632   9.595   9.235  0.4470  0.6198  0.0140
32104SOL     OW96889   4.519   4.738   2.845 -0.4372  1.0617  0.1492
32104SOL    HW196890   4.544   4.801   2.912  1.1036 -0.7994  1.4350
32104SOL    HW296891   4.577   4.756   2.772 -1.4553  2.4624 -0.3568
32105SOL     OW96892   3.174   1.216   8.070 -0.1385  0.0985 -0.6167
32105SOL    HW196893   3.097   1.164   8.094 -0.0633  1.3776  3.1757
32105SOL    HW296894   3.195   1.188   7.981 -3.3731 -2.2096 -0.8621
32106SOL     OW96895   3.968   0.421   9.830  0.3711 -0.5676 -0.5321
32106SOL    HW196896   3.942   0.352   9.769 -0.4345 -1.2791  0.5767
32106SOL    HW296897   4.060   0.437   9.811  0.5339 -1.8647 -0.9069
32107SOL     OW96898   7.328   9.605   1.738  0.1544  0.0072 -0.2380
32107SOL    HW196899   7.407   9.552   1.738 -0.2780 -0.6376  0.3896
32107SOL    HW296900   7.261   9.549   1.699  0.2268  0.9126 -1.7532
32108SOL     OW96901   8.241   8.967   0.440 -0.0785 -1.0751 -0.5382
32108SOL    HW196902   8.210   8.978   0.530  0.8205 -1.3315 -0.1839
32108SOL    HW296903   8.161   8.947   0.389 -1.2888  3.0933 -0.6063
32109SOL     OW96904   6.209   8.466   8.554 -0.0230 -0.1603  0.5036
32109SOL    HW196905   6.215   8.426   8.641  0.8689  1.5183  1.2603
32109SOL    HW296906   6.232   8.396   8.493 -0.6421 -1.3638  1.6022
32110SOL     OW96907   8.014   2.082   1.785 -0.0219  0.0522 -0.0718
32110SOL    HW196908   8.057   2.127   1.712 -1.7291  0.5529 -0.8129
32110SOL    HW296909   7.922   2.077   1.759 -0.5980 -0.1252  1.8806
32111SOL     OW96910   6.341   9.357   9.067  0.8232  0.2290  0.0636
32111SOL    HW196911   6.304   9.383   8.983 -0.1852  0.8248  0.6733
32111SOL    HW296912   6.343   9.262   9.064 -0.9673  0.1531  0.0615
32112SOL     OW96913   2.131   6.453   3.537 -0.2652  0.4686 -0.0635
32112SOL    HW196914   2.146   6.385   3.472  0.1914  1.5443 -1.1351
32112SOL    HW296915   2.196   6.521   3.516  1.2049  0.0839  2.6627
32113SOL     OW96916   8.031   1.700   2.277  0.5021 -0.2367 -0.2401
32113SOL    HW196917   7.966   1.673   2.342  0.5362 -0.8633 -0.4598
32113SOL    HW296918   7.985   1.763   2.221  0.9099  1.5243  1.3021
32114SOL     OW96919   8.172   0.498   8.491  0.0468 -0.0848 -0.5129
32114SOL    HW196920   8.190   0.546   8.409  0.4355 -0.9001 -0.9150
32114SOL    HW296921   8.080   0.516   8.509 -0.5940 -1.4390 -2.1783
32115SOL     OW96922   7.553   8.396   2.868  0.2386  0.4839  0.4649
32115SOL    HW196923   7.632   8.362   2.910  0.6863  1.4927  0.4537
32115SOL    HW296924   7.483   8.336   2.897  1.0490 -0.6156  0.1924
32116SOL     OW96925   4.188   7.113   0.166 -0.0921 -0.5619 -0.3640
32116SOL    HW196926   4.128   7.154   0.104  1.6597  0.1270 -1.6791
32116SOL    HW296927   4.133   7.055   0.219 -1.8507 -0.1122 -1.6426
32117SOL     OW96928   4.493   0.294   6.553  0.0865  0.4010  0.3364
32117SOL    HW196929   4.512   0.351   6.627 -0.3148 -1.3072  1.8314
32117SOL    HW296930   4.423   0.338   6.506 -0.4642  0.9911  1.6447
32118SOL     OW96931   2.158   2.542   7.176 -0.2646  0.1421 -0.2367
32118SOL    HW196932   2.104   2.541   7.256  1.5914  0.5655  1.0894
32118SOL    HW296933   2.095   2.552   7.105 -1.9103  1.0030  1.2571
32119SOL     OW96934   9.637   4.301   3.412  0.6651  0.6436 -0.1441
32119SOL    HW196935   9.622   4.380   3.359 -1.8230  0.6699  0.5029
32119SOL    HW296936   9.632   4.229   3.349 -0.2405  0.8033 -0.2564
32120SOL     OW96937   9.780   5.492   4.531 -0.0968 -0.0650  0.4664
32120SOL    HW196938   9.733   5.559   4.581  1.6669  1.6062  0.0262
32120SOL    HW296939   9.740   5.494   4.444  0.0431  0.5596  0.4093
32121SOL     OW96940   4.521   3.452   5.024  0.1697  0.2234 -1.0576
32121SOL    HW196941   4.542   3.545   5.019  1.2480  0.0067 -0.8956
32121SOL    HW296942   4.431   3.449   5.054  0.2602  1.2077 -0.6519
32122SOL     OW96943   3.363   5.165   0.447 -0.2913 -0.5460  0.2348
32122SOL    HW196944   3.434   5.109   0.416  1.2612  0.9292  0.9499
32122SOL    HW296945   3.392   5.254   0.426 -2.6318  0.0502 -0.7833
32123SOL     OW96946   2.193   4.438   6.975  0.3450 -0.1117 -0.2208
32123SOL    HW196947   2.111   4.445   6.926 -1.5917  0.7686  2.8352
32123SOL    HW296948   2.256   4.487   6.922 -0.4025 -2.5710 -3.7320
32124SOL     OW96949   0.278   4.016   8.501 -0.5742 -0.4258 -0.3826
32124SOL    HW196950   0.243   3.932   8.471 -1.3203 -0.2849  0.0623
32124SOL    HW296951   0.285   4.068   8.421  0.5010 -1.1159 -0.7517
32125SOL     OW96952   6.825   8.412   8.477 -0.2719 -0.3115 -0.2737
32125SOL    HW196953   6.731   8.403   8.463 -0.2011 -0.7383 -0.4758
32125SOL    HW296954   6.833   8.451   8.564 -0.6566  0.4512 -0.5696
32126SOL     OW96955   0.235   4.713   8.454 -0.6881  0.4627 -0.4095
32126SOL    HW196956   0.288   4.638   8.481 -0.5469  0.9172  0.6152
32126SOL    HW296957   0.243   4.714   8.359  3.1340  1.8814 -0.2837
32127SOL     OW96958   2.982   3.311   1.223 -0.3322 -0.1585 -0.2200
32127SOL    HW196959   3.052   3.284   1.282  0.7668 -0.6329 -1.6851
32127SOL    HW296960   3.026   3.327   1.139 -1.8636  0.3194 -0.9687
32128SOL     OW96961   3.654   6.705   2.375 -0.6374  0.3836  0.0918
32128SOL    HW196962   3.616   6.661   2.451 -0.3702  0.5921  0.3503
32128SOL    HW296963   3.743   6.669   2.368  0.1012  1.8659  1.1632
32129SOL     OW96964   0.938   7.444   3.268  0.8172  0.0086 -0.1275
32129SOL    HW196965   0.875   7.441   3.340  1.3529 -1.0551  0.3125
32129SOL    HW296966   1.009   7.499   3.299  0.7528  0.0729 -0.0937
32130SOL     OW96967   3.854   5.346   0.315 -0.3654  0.0361  0.3669
32130SOL    HW196968   3.907   5.327   0.238 -2.0887 -1.3963 -0.5078
32130SOL    HW296969   3.815   5.432   0.297 -1.6471 -0.7802 -0.9002
32131SOL     OW96970   3.420   0.356   8.089 -0.0310  0.1209 -0.3455
32131SOL    HW196971   3.494   0.407   8.124 -0.0160  0.0527 -0.2770
32131SOL    HW296972   3.348   0.374   8.149 -0.2007  0.5534 -0.6761
32132SOL     OW96973   3.101   7.908   1.540  0.1640  0.2442  0.2102
32132SOL    HW196974   3.054   7.825   1.539  1.6189 -0.6269  0.9030
32132SOL    HW296975   3.166   7.898   1.610  1.6687  1.1995 -0.9915
32133SOL     OW96976   0.275   2.744   2.081 -0.2608 -0.3654 -0.0246
32133SOL    HW196977   0.303   2.823   2.126  2.7078 -1.4393  0.2727
32133SOL    HW296978   0.195   2.717   2.126  0.0159  1.1374  1.4632
32134SOL     OW96979   7.552   5.020   7.036  0.5527  0.2412  0.0436
32134SOL    HW196980   7.584   4.949   6.979 -0.1880  0.2510 -0.3951
32134SOL    HW296981   7.517   4.975   7.113  0.5034  0.1614 -0.0257
32135SOL     OW96982   1.177   3.018   2.404  0.5114 -0.0656 -0.2962
32135SOL    HW196983   1.214   2.978   2.482 -0.0058 -0.8727 -0.4571
32135SOL    HW296984   1.202   2.959   2.333  0.6045  0.4312 -0.6818
32136SOL     OW96985   1.920   8.231   9.432  0.5283  0.0271  0.1751
32136SOL    HW196986   1.973   8.235   9.512  0.0876  0.4951  0.4480
32136SOL    HW296987   1.862   8.156   9.446  1.1295 -0.5173 -0.1447
32137SOL     OW96988   2.457   8.736   2.243  0.2355 -0.3166 -0.1022
32137SOL    HW196989   2.432   8.649   2.211 -0.3723  0.9776 -3.4817
32137SOL    HW296990   2.399   8.796   2.198  1.7451  2.0017  0.8593
32138SOL     OW96991   1.539   7.036   6.581  0.5883 -0.1253  0.2732
32138SOL    HW196992   1.600   7.076   6.519  0.2739 -0.4907 -0.2778
32138SOL    HW296993   1.516   7.106   6.641 -2.7480  1.6936 -2.7217
32139SOL     OW96994   4.208   0.106   0.081  0.0680 -0.4058 -0.4521
32139SOL    HW196995   4.124   0.090   0.038  0.1547 -0.8317 -0.4742
32139SOL    HW296996   4.244   0.018   0.096  0.7640 -0.2163 -0.9471
32140SOL     OW96997   8.697   1.647   5.588  0.5345 -0.1889 -0.0027
32140SOL    HW196998   8.740   1.691   5.661 -1.7600  1.6023  0.3884
32140SOL    HW296999   8.757   1.660   5.514  1.9516 -0.2613  1.0849
32141SOL     OW97000   3.535   6.323   3.713  0.2600 -0.1310 -0.4003
32141SOL    HW197001   3.627   6.328   3.738 -0.0522 -0.8791  1.0140
32141SOL    HW297002   3.487   6.341   3.793 -0.7931 -2.4603 -0.4159
32142SOL     OW97003   3.730   9.643   1.756  0.6052  0.5219  0.6645
32142SOL    HW197004   3.744   9.549   1.756  1.1355  0.5735 -0.6540
32142SOL    HW297005   3.693   9.663   1.842  0.7945 -0.8354  1.0717
32143SOL     OW97006   2.724   4.347   5.754 -0.6387  0.0901 -0.4149
32143SOL    HW197007   2.814   4.360   5.783 -0.0832  1.3688 -2.4797
32143SOL    HW297008   2.679   4.310   5.830  1.4279  0.1441  0.9108
32144SOL     OW97009   0.338   3.920   0.165  0.6808 -0.3863 -0.0469
32144SOL    HW197010   0.333   3.987   0.097  0.6747 -1.1487 -0.8016
32144SOL    HW297011   0.408   3.862   0.137  0.4101 -0.9357  0.3940
32145SOL     OW97012   7.562   9.858   7.230 -0.5723  0.0268 -0.1231
32145SOL    HW197013   7.568   9.897   7.143 -0.3578 -1.0001 -0.5843
32145SOL    HW297014   7.469   9.867   7.254 -0.6221  0.3490 -0.4346
32146SOL     OW97015   8.639   5.334   6.236 -0.7538  0.0466  0.1940
32146SOL    HW197016   8.660   5.416   6.190 -1.6293  0.1020 -0.1204
32146SOL    HW297017   8.719   5.282   6.228 -0.2390  0.8033  0.2593
32147SOL     OW97018   9.435   2.820   1.443  0.0062 -0.1351 -0.3294
32147SOL    HW197019   9.366   2.753   1.444 -2.2428  2.0258 -1.4557
32147SOL    HW297020   9.487   2.801   1.521 -3.1986 -0.5531  1.9117
32148SOL     OW97021   0.492   7.287   9.288 -0.2057  0.0799  0.5160
32148SOL    HW197022   0.439   7.285   9.209 -0.5077  0.0819  0.7187
32148SOL    HW297023   0.556   7.216   9.276 -0.2567  0.0737  0.2785
32149SOL     OW97024   3.701   2.993   4.890 -0.1428  0.0379  0.2370
32149SOL    HW197025   3.688   2.898   4.886 -0.6525  0.1452 -1.9056
32149SOL    HW297026   3.750   3.007   4.971  0.3113 -2.0913  0.3932
32150SOL     OW97027   3.239   7.681   7.594 -0.1641  0.0631  0.3226
32150SOL    HW197028   3.164   7.715   7.643 -1.7727  0.0177 -1.9020
32150SOL    HW297029   3.282   7.759   7.559 -0.0601  0.0302  0.3768
32151SOL     OW97030   8.910   0.770   3.489  0.2943 -0.2041  0.1203
32151SOL    HW197031   9.006   0.769   3.482  0.3655  0.5939  0.7966
32151SOL    HW297032   8.894   0.796   3.580 -0.5688  0.5590 -0.2435
32152SOL     OW97033   9.349   8.936   3.075 -0.7966  0.0641 -0.2239
32152SOL    HW197034   9.389   9.022   3.063 -1.7993  0.7228  0.9427
32152SOL    HW297035   9.419   8.874   3.054  1.3539  1.1212  3.0611
32153SOL     OW97036   9.710   9.170   7.661  0.2506 -0.3893  0.0646
32153SOL    HW197037   9.777   9.179   7.594 -0.3757 -1.0076 -0.6591
32153SOL    HW297038   9.751   9.116   7.729  0.9850  0.4893  0.3330
32154SOL     OW97039   5.625   4.236   8.756  0.0703  0.2269 -0.0555
32154SOL    HW197040   5.566   4.226   8.682 -1.6378 -0.2393  1.3114
32154SOL    HW297041   5.711   4.251   8.717 -0.8713  0.5164 -2.1051
32155SOL     OW97042   4.574   3.484   9.605  0.2945 -0.1777 -0.2357
32155SOL    HW197043   4.604   3.496   9.515 -1.1896  0.4611 -0.6847
32155SOL    HW297044   4.625   3.547   9.655  1.5509 -0.9400 -0.5048
32156SOL     OW97045   0.352   6.857   6.287  0.1160  0.0742 -0.1323
32156SOL    HW197046   0.432   6.805   6.293 -0.5093 -0.9489 -0.3931
32156SOL    HW297047   0.307   6.842   6.371 -0.3509 -0.2980 -0.4432
32157SOL     OW97048   0.249   7.581   5.918 -0.0068 -0.3918  0.1448
32157SOL    HW197049   0.341   7.605   5.925  0.1389 -1.2057  1.1469
32157SOL    HW297050   0.239   7.504   5.973 -1.2312 -0.4959 -0.1836
32158SOL     OW97051   6.216   2.818   6.836  0.2722 -0.0907  0.5140
32158SOL    HW197052   6.159   2.872   6.783 -0.3666  0.3187  1.5781
32158SOL    HW297053   6.249   2.751   6.777 -0.3368  0.4074 -0.4020
32159SOL     OW97054   5.050   2.021   5.475 -0.1880  0.0818 -0.1457
32159SOL    HW197055   5.083   2.031   5.564 -1.4147 -1.1898  0.4934
32159SOL    HW297056   4.959   2.051   5.480 -0.6303 -1.1378 -0.6828
32160SOL     OW97057   1.542   9.660   1.075  0.1015 -0.1116 -0.1482
32160SOL    HW197058   1.577   9.642   0.988 -0.5518 -0.4209 -0.3551
32160SOL    HW297059   1.502   9.747   1.067  2.8281  1.3584  0.7210
32161SOL     OW97060   3.039   2.618   1.319  0.0424 -0.1582  0.1031
32161SOL    HW197061   3.069   2.537   1.278 -0.1952 -0.3331  0.2711
32161SOL    HW297062   3.054   2.686   1.253 -2.2174 -0.7268 -1.0798
32162SOL     OW97063   6.715   5.859   0.815  0.3336 -0.1872  0.2936
32162SOL    HW197064   6.794   5.808   0.834 -0.5001 -1.6365  0.0528
32162SOL    HW297065   6.652   5.794   0.785 -0.7090  1.0504 -0.2927
32163SOL     OW97066   3.228   7.712   6.946  0.1312  0.0889  0.0325
32163SOL    HW197067   3.268   7.675   6.867  0.8840  1.5934 -0.3429
32163SOL    HW297068   3.269   7.664   7.018  0.3595 -0.4578 -0.4506
32164SOL     OW97069   3.374   8.376   0.807  0.0869  0.0771  0.3843
32164SOL    HW197070   3.327   8.350   0.728  0.7155  0.9032 -0.2810
32164SOL    HW297071   3.370   8.299   0.864  2.5162 -1.8117 -1.7717
32165SOL     OW97072   5.607   1.492   1.876  0.1284 -0.2550 -0.0640
32165SOL    HW197073   5.522   1.492   1.920  0.2913  0.6411  0.2585
32165SOL    HW297074   5.625   1.399   1.859 -1.9699 -0.3677 -2.1872
32166SOL     OW97075   2.635   9.046   2.389  0.2403 -0.3568  0.4105
32166SOL    HW197076   2.582   9.101   2.332  0.3011  0.5609  1.2248
32166SOL    HW297077   2.575   9.018   2.458 -0.1051 -2.2824 -0.5755
32167SOL     OW97078   6.718   0.273   5.756 -0.7680  0.4551  0.0237
32167SOL    HW197079   6.713   0.180   5.735  1.0848  0.6079 -1.2978
32167SOL    HW297080   6.641   0.289   5.811 -0.3256 -2.1788  1.5957
32168SOL     OW97081   8.355   0.662   8.662  0.4279 -0.1252  0.7607
32168SOL    HW197082   8.443   0.642   8.630 -0.0535 -0.8329 -0.1453
32168SOL    HW297083   8.299   0.595   8.623 -0.8578  1.5672 -0.4188
32169SOL     OW97084   9.161   9.875   8.211 -0.6354  0.2240  0.3860
32169SOL    HW197085   9.122   9.853   8.296 -0.0127 -1.2887  0.3130
32169SOL    HW297086   9.106   9.829   8.147  1.0309 -1.7447  0.2656
32170SOL     OW97087   0.304   3.087   5.240  0.4411  0.8222  0.1002
32170SOL    HW197088   0.268   3.015   5.292  2.3664  0.3992  0.9616
32170SOL    HW297089   0.323   3.155   5.305 -0.5446  1.7839 -0.5897
32171SOL     OW97090   8.094   0.471   6.042  0.1407 -0.1398  0.2219
32171SOL    HW197091   8.096   0.486   5.947  1.0446  2.2960  0.5507
32171SOL    HW297092   8.169   0.521   6.075 -0.1597 -0.9534  2.2274
32172SOL     OW97093   7.189   8.974   6.832 -0.3040  0.1124 -0.2519
32172SOL    HW197094   7.147   9.024   6.902 -1.2274  1.3472 -1.6291
32172SOL    HW297095   7.171   8.882   6.853 -2.2807  0.5410  0.1152
32173SOL     OW97096   2.062   5.911   4.450 -0.2764  0.4288  0.2155
32173SOL    HW197097   2.031   5.886   4.536 -1.2293 -0.7665 -0.4466
32173SOL    HW297098   2.154   5.883   4.447 -0.2649  0.4108  0.7934
32174SOL     OW97099   9.495   2.965   4.321 -0.5982  0.0237 -0.1092
32174SOL    HW197100   9.486   3.055   4.352 -0.7017 -0.2605  0.7260
32174SOL    HW297101   9.436   2.915   4.377  0.3798 -0.7370  0.2625
32175SOL     OW97102   6.922   2.932   3.096 -0.2001 -0.4075  0.1418
32175SOL    HW197103   6.860   2.996   3.131 -0.3753 -1.9996  3.0665
32175SOL    HW297104   7.007   2.964   3.123 -0.1731 -0.7382  0.4486
32176SOL     OW97105   3.976   8.890   8.623  0.8910 -0.0871 -0.3860
32176SOL    HW197106   4.016   8.831   8.688 -0.0596 -1.7991 -1.2944
32176SOL    HW297107   4.050   8.924   8.574  1.4654 -0.5510  0.1352
32177SOL     OW97108   4.942   3.516   7.296  0.1113 -0.0704  0.3430
32177SOL    HW197109   5.017   3.571   7.274 -0.7014  1.0388  0.2647
32177SOL    HW297110   4.903   3.495   7.212  0.6656 -1.1678  0.3384
32178SOL     OW97111   5.192   3.549   9.418 -0.2831 -0.7451  0.0933
32178SOL    HW197112   5.096   3.557   9.419 -0.2786 -0.6886  0.9560
32178SOL    HW297113   5.221   3.613   9.353 -0.8506 -1.0534 -0.4788
32179SOL     OW97114   2.292   2.001   9.741 -0.1321  0.6686 -0.5876
32179SOL    HW197115   2.217   1.951   9.772  1.6149 -1.3801  0.6432
32179SOL    HW297116   2.317   1.959   9.659  1.0669 -0.2740  0.2196
32180SOL     OW97117   6.500   4.316   0.256  0.3476  0.0232  0.2258
32180SOL    HW197118   6.442   4.337   0.329 -0.2010 -1.0164  0.1001
32180SOL    HW297119   6.580   4.367   0.273  1.5160 -2.5384  3.2494
32181SOL     OW97120   4.691   2.095   3.251 -0.0952 -0.3996  0.2151
32181SOL    HW197121   4.674   2.041   3.328 -1.5260  0.3563  0.4620
32181SOL    HW297122   4.673   2.038   3.176  2.2006 -1.4347  0.3512
32182SOL     OW97123   3.167   3.989   5.185 -0.0592  0.3508 -0.1604
32182SOL    HW197124   3.219   3.930   5.240  0.6763  1.4295  0.3423
32182SOL    HW297125   3.124   4.048   5.247 -0.1645  0.8348 -0.6859
32183SOL     OW97126   0.095   2.607   8.229 -0.1966  0.2260  0.0560
32183SOL    HW197127   0.080   2.519   8.193  0.4937  0.3513 -0.5612
32183SOL    HW297128   0.007   2.644   8.237 -0.3959  0.1997 -1.5768
32184SOL     OW97129   9.758   6.184   2.168 -0.0407  0.0267 -0.3881
32184SOL    HW197130   9.694   6.217   2.232  1.2604 -0.0869  1.0240
32184SOL    HW297131   9.709   6.180   2.086 -1.6067  0.7607  0.4545
32185SOL     OW97132   4.779   2.212   1.198 -0.1107  0.0717 -0.4059
32185SOL    HW197133   4.820   2.126   1.187  1.5795  1.0304 -2.0687
32185SOL    HW297134   4.772   2.247   1.110  1.9275  2.7999  0.3843
32186SOL     OW97135   2.822   9.358   2.134 -0.5756 -0.1232  0.1911
32186SOL    HW197136   2.846   9.451   2.141  1.9814 -0.7702  1.3049
32186SOL    HW297137   2.853   9.332   2.048  0.1079 -0.2710  0.4745
32187SOL     OW97138   3.462   3.850   0.855  0.5807 -0.4127 -0.2258
32187SOL    HW197139   3.409   3.906   0.798  0.9463  0.6580  0.4482
32187SOL    HW297140   3.464   3.765   0.811 -0.2663  0.0109 -1.1147
32188SOL     OW97141   8.183   7.293   5.887  0.1269  0.3491 -0.3110
32188SOL    HW197142   8.174   7.389   5.884  0.5892  0.5375  2.0706
32188SOL    HW297143   8.278   7.278   5.882  0.2150  0.1921  1.3403
32189SOL     OW97144   8.356   9.321   9.805 -0.2918 -0.1759  0.0087
32189SOL    HW197145   8.280   9.379   9.806 -1.0637 -1.1042 -1.0456
32189SOL    HW297146   8.330   9.250   9.745  1.0406 -1.0108  0.3879
32190SOL     OW97147   0.352   9.007   7.244 -0.0350  0.0293 -0.0375
32190SOL    HW197148   0.422   8.995   7.180 -1.6327 -1.0686 -1.6702
32190SOL    HW297149   0.318   9.095   7.226  0.8972  0.5707  0.7707
32191SOL     OW97150   5.209   5.700   7.367 -0.7676 -0.0155  0.2832
32191SOL    HW197151   5.214   5.761   7.441 -0.0275 -0.1668  0.3712
32191SOL    HW297152   5.238   5.616   7.403 -3.0478 -0.7676  0.4930
32192SOL     OW97153   9.964   9.088   6.218 -0.7344  0.1406  0.5986
32192SOL    HW197154   9.980   9.040   6.299 -1.2944 -0.8160  0.1602
32192SOL    HW297155   9.966   9.021   6.150  2.6994  1.2603 -0.6206
32193SOL     OW97156   1.839   5.750   6.541  0.5228  0.0554 -0.1209
32193SOL    HW197157   1.899   5.676   6.549  1.7835  1.1012  0.6999
32193SOL    HW297158   1.754   5.716   6.566  0.3185 -1.9496 -3.0448
32194SOL     OW97159   9.824   6.348   3.363 -0.2155 -0.5290 -0.3887
32194SOL    HW197160   9.788   6.365   3.450  1.9664 -0.0474  0.4862
32194SOL    HW297161   9.851   6.435   3.331  0.7496 -0.9381 -0.7198
32195SOL     OW97162   3.981   6.881   2.797 -0.5851 -0.0925  0.5692
32195SOL    HW197163   4.013   6.967   2.769 -2.4749  0.6745  0.6096
32195SOL    HW297164   4.035   6.819   2.749 -0.1040  1.1453 -0.5555
32196SOL     OW97165   7.799   2.444   5.431  0.3993 -0.4286  0.4173
32196SOL    HW197166   7.706   2.442   5.454  0.2331 -1.1810 -0.2817
32196SOL    HW297167   7.829   2.530   5.461 -0.4588 -0.2747  0.8715
32197SOL     OW97168   4.754   8.685   6.950 -0.2904 -0.5234 -0.5693
32197SOL    HW197169   4.769   8.636   6.869 -0.0364 -0.5631 -0.5014
32197SOL    HW297170   4.840   8.723   6.970 -0.4701 -0.0951 -0.5949
32198SOL     OW97171   3.553   1.947   3.256 -0.0417 -0.3469 -0.1790
32198SOL    HW197172   3.525   1.962   3.347 -0.7692  0.5758 -0.5404
32198SOL    HW297173   3.476   1.906   3.215  0.8502 -2.3496  0.0075
32199SOL     OW97174   3.086   3.374   4.806 -0.2945  0.0325  0.1926
32199SOL    HW197175   3.061   3.427   4.730 -1.2846 -1.2030 -0.3944
32199SOL    HW297176   3.038   3.413   4.879 -1.3009 -0.2465 -0.3000
32200SOL     OW97177   0.303   5.127   6.079 -0.1971 -0.4317 -0.1152
32200SOL    HW197178   0.221   5.109   6.125 -0.3321 -1.1124 -0.6134
32200SOL    HW297179   0.293   5.085   5.994  0.3992  0.0687 -0.4412
32201SOL     OW97180   6.570   5.602   8.465  0.3736 -0.1115 -0.4880
32201SOL    HW197181   6.557   5.516   8.427  0.3927 -0.9058  1.2440
32201SOL    HW297182   6.482   5.640   8.472  0.4572  0.5170 -2.2912
32202SOL     OW97183   8.768   5.809   7.234 -0.2336  0.3810  0.0852
32202SOL    HW197184   8.696   5.823   7.296 -0.6002 -0.5688 -0.1002
32202SOL    HW297185   8.723   5.790   7.151  0.2384  0.0402 -0.0918
32203SOL     OW97186   4.379   3.824   5.407 -0.2371 -0.1860  0.1725
32203SOL    HW197187   4.452   3.866   5.361 -1.0789  1.6577  0.4186
32203SOL    HW297188   4.334   3.773   5.340  0.6994 -0.5181 -0.2049
32204SOL     OW97189   4.676   8.881   7.907  0.0528  0.2431  0.2912
32204SOL    HW197190   4.631   8.829   7.841  0.5271 -0.9386  0.8728
32204SOL    HW297191   4.630   8.861   7.989 -0.3840  1.5121  0.3761
32205SOL     OW97192   9.972   8.340   2.317  0.2096 -0.4903 -0.5746
32205SOL    HW197193   9.895   8.375   2.272  0.6974  2.4599  0.6422
32205SOL    HW297194   9.940   8.319   2.405  0.5234 -0.4599 -0.4537
32206SOL     OW97195   7.344   0.298   7.285 -0.7597 -0.0284 -0.1087
32206SOL    HW197196   7.333   0.393   7.276 -2.0039 -0.2069 -0.6402
32206SOL    HW297197   7.395   0.273   7.208  0.2211  0.2971  0.4184
32207SOL     OW97198   2.995   3.877   7.060  0.5068  0.5447 -0.2587
32207SOL    HW197199   3.015   3.966   7.029 -0.4894  1.1650  0.8214
32207SOL    HW297200   2.900   3.871   7.057  0.5365 -0.3221  0.1549
32208SOL     OW97201   2.708   3.457   8.302  0.2705 -0.1144  0.1144
32208SOL    HW197202   2.658   3.493   8.376  0.7178  1.3609 -0.2684
32208SOL    HW297203   2.776   3.522   8.284  0.0331 -0.3211 -1.7541
32209SOL     OW97204   0.769   9.115   5.423  0.2068  0.0821 -0.5113
32209SOL    HW197205   0.764   9.138   5.516 -0.6620 -1.1392 -0.2275
32209SOL    HW297206   0.800   9.024   5.422 -0.1757 -0.0494 -1.3901
32210SOL     OW97207   6.596   0.360   8.354  0.1944 -0.1731 -0.2582
32210SOL    HW197208   6.517   0.355   8.408  0.9821  0.7178  1.0516
32210SOL    HW297209   6.564   0.355   8.264 -1.4886  1.4003  0.1917
32211SOL     OW97210   7.299   2.414   6.022  0.2617  0.2603  0.4638
32211SOL    HW197211   7.279   2.358   5.947  0.8685 -0.3562  0.7549
32211SOL    HW297212   7.265   2.500   5.997  0.5286  0.0865 -0.5552
32212SOL     OW97213   0.478   1.829   7.820 -0.0480 -0.0404 -0.3561
32212SOL    HW197214   0.533   1.906   7.806 -0.5152  0.3395 -0.1336
32212SOL    HW297215   0.412   1.857   7.884 -0.8571 -0.3052 -1.0461
32213SOL     OW97216   4.798   0.784   6.436  1.0248 -0.4451 -0.3562
32213SOL    HW197217   4.833   0.696   6.449  1.3949 -0.0952  1.1636
32213SOL    HW297218   4.739   0.799   6.510  0.4120  0.3245 -0.9787
32214SOL     OW97219   8.839   4.965   6.796  0.2988 -0.3450  0.4072
32214SOL    HW197220   8.801   4.888   6.839  1.9087 -1.3508  0.1287
32214SOL    HW297221   8.893   5.006   6.864  2.4879 -1.6813 -0.3993
32215SOL     OW97222   5.738   3.309   6.195 -0.0288 -0.1942 -0.3234
32215SOL    HW197223   5.701   3.396   6.208  0.6449  0.2797 -1.4213
32215SOL    HW297224   5.751   3.275   6.284 -1.7375  0.1717  0.1088
32216SOL     OW97225   9.817   0.896   3.220  0.0932 -0.1793 -0.2990
32216SOL    HW197226   9.727   0.887   3.188 -0.3067 -0.3579  0.8498
32216SOL    HW297227   9.865   0.930   3.145 -0.6322 -1.4080 -1.3702
32217SOL     OW97228   3.881   8.538   0.044  0.2601 -0.2653 -0.5328
32217SOL    HW197229   3.915   8.450   0.058  0.7869  0.2083  1.5305
32217SOL    HW297230   3.790   8.525   0.016 -0.4829 -1.5025  2.1776
32218SOL     OW97231   3.626   5.334   2.815 -0.6871  0.2128 -0.4098
32218SOL    HW197232   3.611   5.254   2.865 -1.2778  0.2338 -0.5479
32218SOL    HW297233   3.721   5.337   2.803 -0.6774 -0.6430 -0.6853
32219SOL     OW97234   3.157   7.606   6.545 -0.1013 -0.1066 -0.0280
32219SOL    HW197235   3.065   7.583   6.558  0.1642 -0.9835  0.3821
32219SOL    HW297236   3.193   7.613   6.633  0.2904 -0.0215 -0.1901
32220SOL     OW97237   1.558   8.448   0.154  0.1410 -0.1843 -0.0911
32220SOL    HW197238   1.651   8.444   0.177 -0.0381 -1.0157  0.5170
32220SOL    HW297239   1.530   8.357   0.151 -0.5407  0.0467 -0.7703
32221SOL     OW97240   8.581   9.177   3.262  0.2374 -0.6129 -0.5093
32221SOL    HW197241   8.613   9.091   3.289  0.4975 -0.9400 -1.8198
32221SOL    HW297242   8.505   9.159   3.208 -1.6982  0.1186  1.7793
32222SOL     OW97243   2.924   3.897   5.431 -0.2757 -0.2168  0.6741
32222SOL    HW197244   2.961   3.986   5.428 -2.1058  0.5699 -1.4803
32222SOL    HW297245   2.851   3.904   5.492  1.4767 -1.1524  3.0255
32223SOL     OW97246   7.909   0.653   6.516 -0.5952 -0.4033  0.2823
32223SOL    HW197247   7.895   0.645   6.422 -0.5909 -0.1414  0.2571
32223SOL    HW297248   7.846   0.593   6.555 -0.3926 -0.7328  0.1034
32224SOL     OW97249   7.052   6.842   0.496 -0.4381 -0.2854 -0.7603
32224SOL    HW197250   6.971   6.812   0.537 -0.0391  0.0880  0.3390
32224SOL    HW297251   7.041   6.936   0.487  0.6562  0.0965  1.3143
32225SOL     OW97252   4.721   2.350   2.188 -0.3563 -0.8677 -0.4738
32225SOL    HW197253   4.694   2.406   2.114 -1.2363 -1.4668 -0.6168
32225SOL    HW297254   4.733   2.411   2.261 -0.6189 -0.4074 -0.8093
32226SOL     OW97255   7.208   3.819   9.667 -0.1888  0.4974  0.1703
32226SOL    HW197256   7.218   3.810   9.761 -0.8868  0.3813  0.2402
32226SOL    HW297257   7.167   3.737   9.639  0.9113  0.1079 -0.3872
32227SOL     OW97258   9.044   7.328   0.907 -0.3683  0.0918 -0.3446
32227SOL    HW197259   8.991   7.401   0.940  1.5884  0.6965  1.7262
32227SOL    HW297260   9.072   7.282   0.986  4.5675  1.5661 -0.8743
32228SOL     OW97261   1.288   9.767   2.954 -0.0346  0.2145 -0.0697
32228SOL    HW197262   1.313   9.812   3.034 -1.6828  2.3602 -0.6550
32228SOL    HW297263   1.237   9.691   2.984 -0.3309  0.7882  0.9327
32229SOL     OW97264   1.030   8.525   3.926 -0.3189  0.1961 -0.0335
32229SOL    HW197265   1.001   8.458   3.989 -0.5841 -0.3653 -0.7409
32229SOL    HW297266   1.095   8.481   3.872 -0.7487  0.3982 -0.7308
32230SOL     OW97267   5.543   0.570   1.162 -0.1872 -0.0032  0.0552
32230SOL    HW197268   5.463   0.622   1.171 -0.3658 -0.3445  0.4583
32230SOL    HW297269   5.532   0.498   1.224 -0.0799 -0.7025 -0.7200
32231SOL     OW97270   2.494   1.104   6.600 -0.3702 -0.2214 -0.1294
32231SOL    HW197271   2.478   1.010   6.604  0.0092 -0.2621  0.8365
32231SOL    HW297272   2.475   1.135   6.689  0.7864  0.3995 -0.0756
32232SOL     OW97273   5.102   5.150   5.221 -0.0260  0.3412  0.0413
32232SOL    HW197274   5.103   5.169   5.315  0.4571 -0.5777  0.2388
32232SOL    HW297275   5.077   5.232   5.180 -0.7489  0.6227  1.0091
32233SOL     OW97276   9.711   4.489   1.030  0.0457 -0.2519 -0.2613
32233SOL    HW197277   9.716   4.577   1.067 -0.7350  0.1242 -1.0085
32233SOL    HW297278   9.757   4.434   1.093  1.9573  0.9182 -0.5646
32234SOL     OW97279   6.265   2.675   6.628 -0.2126  0.0924  0.4876
32234SOL    HW197280   6.230   2.599   6.676 -0.1473  0.5587  1.2888
32234SOL    HW297281   6.346   2.642   6.588 -0.2458 -0.3001  0.7313
32235SOL     OW97282   3.610   5.075   2.925  0.3453  0.0362  0.4931
32235SOL    HW197283   3.700   5.050   2.903  1.4846  3.6741  0.1806
32235SOL    HW297284   3.609   5.081   3.021 -0.4283 -2.4582  0.7019
32236SOL     OW97285   0.302   4.547   3.164 -0.1806 -0.0963  0.2822
32236SOL    HW197286   0.261   4.494   3.232 -0.0043 -0.9692 -0.2886
32236SOL    HW297287   0.321   4.486   3.093  0.4661  0.6339 -0.1892
32237SOL     OW97288   2.128   6.650   5.456 -0.2198 -0.4928 -0.2883
32237SOL    HW197289   2.180   6.730   5.463 -2.0879  1.0286 -2.3929
32237SOL    HW297290   2.175   6.597   5.392  0.0020 -0.1828 -0.3893
32238SOL     OW97291   8.253   9.521   9.177 -0.3890 -0.0336  0.1414
32238SOL    HW197292   8.289   9.592   9.125  0.9639 -0.1790  0.8391
32238SOL    HW297293   8.214   9.564   9.253 -1.2335  0.0853 -0.3527
32239SOL     OW97294   0.409   1.159   4.697  0.4607 -0.0122  0.2153
32239SOL    HW197295   0.372   1.235   4.743 -0.8491 -0.5031  0.0360
32239SOL    HW297296   0.361   1.156   4.614  2.5911  0.6987 -1.1154
32240SOL     OW97297   4.125   3.019   8.950  0.3461  0.4044 -0.3472
32240SOL    HW197298   4.137   3.111   8.927 -2.9000  0.4858 -2.2825
32240SOL    HW297299   4.098   2.977   8.869 -0.7660 -1.7168  1.0242
32241SOL     OW97300   0.638   7.035   9.092  0.3473 -0.2549 -0.2952
32241SOL    HW197301   0.659   6.952   9.136  2.5642 -0.3825 -1.4297
32241SOL    HW297302   0.672   7.024   9.003  1.0179  1.9952 -0.3718
32242SOL     OW97303   7.732   8.182   7.267  0.3338  0.2198  0.0684
32242SOL    HW197304   7.777   8.182   7.351  2.4485  0.3312 -1.0088
32242SOL    HW297305   7.660   8.244   7.278  0.3210 -0.0798  1.8968
32243SOL     OW97306   8.807   5.820   5.302  0.6303 -0.3476 -0.1904
32243SOL    HW197307   8.781   5.748   5.245 -2.9955  0.6410 -0.0758
32243SOL    HW297308   8.827   5.778   5.386 -2.5326 -1.2969  0.2289
32244SOL     OW97309   1.204   1.765   9.464 -0.0762 -0.0387  0.0303
32244SOL    HW197310   1.126   1.723   9.429  0.1695  0.9795 -1.8700
32244SOL    HW297311   1.274   1.741   9.404  0.3806  1.7203 -0.2050
32245SOL     OW97312   4.509   5.849   4.877  0.2023 -0.1090 -0.3886
32245SOL    HW197313   4.575   5.890   4.932 -0.7242 -0.1911  0.8369
32245SOL    HW297314   4.525   5.755   4.885 -0.3665 -0.1549  0.3423
32246SOL     OW97315   2.372   9.762   1.008  0.8605  0.2277 -0.1255
32246SOL    HW197316   2.409   9.745   1.094 -0.5576 -0.0772  0.4393
32246SOL    HW297317   2.289   9.716   1.007  0.8291  0.2551 -1.6522
32247SOL     OW97318   2.735   1.006   8.956 -0.2183 -0.0926  0.2219
32247SOL    HW197319   2.653   1.046   8.988  0.2981  0.8996  0.3216
32247SOL    HW297320   2.784   1.078   8.918  0.3549 -0.8001 -0.3993
32248SOL     OW97321   4.408   2.482   2.375 -0.2446  0.2690  0.0596
32248SOL    HW197322   4.478   2.532   2.419 -0.6577 -0.0953  1.1580
32248SOL    HW297323   4.431   2.391   2.391 -0.0465  0.1096 -1.0761
32249SOL     OW97324   4.027   9.217   0.215 -0.1104  0.7307 -0.1747
32249SOL    HW197325   4.063   9.129   0.201  0.6677  1.3802 -2.8357
32249SOL    HW297326   4.095   9.276   0.182 -0.8657  2.3181  0.9982
32250SOL     OW97327   3.237   3.365   6.498 -0.3800  0.8508 -0.0156
32250SOL    HW197328   3.294   3.388   6.424 -0.5719  0.1786 -0.3826
32250SOL    HW297329   3.206   3.449   6.531  1.5077  1.2938  0.7443
32251SOL     OW97330   2.597   9.565   5.427 -0.3670 -0.2771  0.4396
32251SOL    HW197331   2.572   9.550   5.518  0.0064  1.2129  0.8140
32251SOL    HW297332   2.688   9.534   5.421 -0.3128 -0.1631  0.6534
32252SOL     OW97333   7.700   5.935   6.173 -0.0504  0.9126  0.8293
32252SOL    HW197334   7.715   5.951   6.266 -0.5378  0.6685  0.9578
32252SOL    HW297335   7.714   6.020   6.131  1.6250  0.7056  0.9249
32253SOL     OW97336   9.460   0.293   8.975 -0.5155  0.2535 -0.4279
32253SOL    HW197337   9.429   0.256   9.057  0.8231  0.1156  0.0452
32253SOL    HW297338   9.540   0.244   8.955 -1.0308  0.0098 -2.0381
32254SOL     OW97339   4.459   0.035   5.076  0.1736  0.3233 -0.1742
32254SOL    HW197340   4.459  -0.003   5.164  0.3974 -0.2998 -0.4331
32254SOL    HW297341   4.396  -0.018   5.028  1.0381 -0.2236 -0.7439
32255SOL     OW97342   3.349   0.965   2.602 -0.1163 -0.1720  0.3054
32255SOL    HW197343   3.421   1.005   2.651  2.1650 -1.2954 -1.9237
32255SOL    HW297344   3.384   0.882   2.570 -2.6192 -1.0411 -0.4313
32256SOL     OW97345   5.119   3.827   5.938  0.1565  0.2671  0.2364
32256SOL    HW197346   5.045   3.770   5.962 -0.7806  0.3807 -2.0820
32256SOL    HW297347   5.094   3.913   5.971 -0.2794  0.1057  0.3457
32257SOL     OW97348   0.961   3.228   9.550 -0.0737  0.2285  1.1906
32257SOL    HW197349   0.948   3.288   9.624  1.1602  0.1955  1.4481
32257SOL    HW297350   0.900   3.156   9.567  0.0399  0.3287  2.0739
32258SOL     OW97351   9.017   6.850   1.288 -0.0145  0.3969 -0.0055
32258SOL    HW197352   8.991   6.880   1.375  0.2649 -0.7478  0.4918
32258SOL    HW297353   9.104   6.888   1.275 -0.3609  1.1750 -0.1065
32259SOL     OW97354   7.800   9.036   4.200  0.0922 -0.5878  0.3641
32259SOL    HW197355   7.739   8.990   4.142  0.0995 -1.3222  0.9279
32259SOL    HW297356   7.743   9.086   4.258 -0.0027 -1.5894  1.1528
32260SOL     OW97357   1.584   0.412   8.635 -0.1527 -0.0404  0.5379
32260SOL    HW197358   1.658   0.448   8.683 -1.9645  2.9568  1.3918
32260SOL    HW297359   1.529   0.372   8.703 -0.3686 -0.2626  0.2371
32261SOL     OW97360   8.839   4.175   1.816 -0.4924  0.3940  0.3045
32261SOL    HW197361   8.881   4.250   1.774  0.0565  0.5803  1.1556
32261SOL    HW297362   8.756   4.164   1.770 -0.8453  1.8832  0.5424
32262SOL     OW97363   5.877   9.183   8.119  0.1610  0.3177 -0.3569
32262SOL    HW197364   5.796   9.136   8.143  1.3773 -1.2716  0.8650
32262SOL    HW297365   5.879   9.180   8.024 -0.0964 -1.7128 -0.3543
32263SOL     OW97366   6.997   7.912   4.014  0.2814  0.7837 -0.2696
32263SOL    HW197367   6.947   7.855   4.071 -1.7217  3.2117  0.6001
32263SOL    HW297368   6.948   7.912   3.931  0.9552  0.3507 -0.6825
32264SOL     OW97369   9.903   6.077   9.610  0.1927 -0.0161 -0.0045
32264SOL    HW197370   9.929   6.001   9.662 -3.0041 -0.4484  1.1414
32264SOL    HW297371   9.935   6.152   9.660 -0.1727 -0.5201  1.0221
32265SOL     OW97372   7.425   8.141   8.614  0.1534 -0.1620  0.1525
32265SOL    HW197373   7.366   8.216   8.624  0.4281  0.2370 -1.0717
32265SOL    HW297374   7.511   8.175   8.637  0.0692 -0.4959  1.0039
32266SOL     OW97375   3.115   9.875   3.477 -0.1934 -0.1400 -0.0169
32266SOL    HW197376   3.046   9.939   3.496 -0.5521 -0.4398 -0.2877
32266SOL    HW297377   3.190   9.927   3.451 -0.3773  0.1843  0.0994
32267SOL     OW97378   8.157   3.904   5.563 -0.0288  0.2619  0.1133
32267SOL    HW197379   8.082   3.883   5.507  0.2472  0.2738 -0.2649
32267SOL    HW297380   8.164   3.999   5.560  0.7111  0.1917 -0.7946
32268SOL     OW97381   4.015   9.405   7.344 -0.2469 -0.2037 -0.6929
32268SOL    HW197382   4.019   9.441   7.256 -3.0298  0.5883 -0.6075
32268SOL    HW297383   4.041   9.477   7.402  1.3038 -0.6369 -0.8291
32269SOL     OW97384   2.018   0.278   6.679 -0.4760  0.0872 -0.0789
32269SOL    HW197385   1.968   0.196   6.675  0.2926 -0.3285 -2.2085
32269SOL    HW297386   2.060   0.276   6.765  0.2705 -2.2370 -0.4365
32270SOL     OW97387   9.039   9.641   4.665 -0.2337 -0.4621  0.0276
32270SOL    HW197388   8.975   9.610   4.728 -2.4584  0.4376 -1.6405
32270SOL    HW297389   8.987   9.666   4.588  2.0194  1.2803 -1.0627
32271SOL     OW97390   9.882   4.811   3.043 -0.2153 -0.8645  0.0693
32271SOL    HW197391   9.935   4.752   3.097 -1.5734 -0.2976  2.1538
32271SOL    HW297392   9.932   4.822   2.963  1.6237 -2.2640  0.9523
32272SOL     OW97393   2.674   9.357   2.459 -0.1544  0.4747 -0.6921
32272SOL    HW197394   2.579   9.369   2.467 -0.5007 -0.8646 -2.2152
32272SOL    HW297395   2.686   9.318   2.372  1.7140 -0.2408 -0.1664
32273SOL     OW97396   6.090   9.655   6.336 -0.1697 -0.4081 -0.4584
32273SOL    HW197397   6.095   9.704   6.418 -1.3786 -0.9403 -0.0463
32273SOL    HW297398   5.999   9.626   6.331 -0.2566  0.0991 -2.2835
32274SOL     OW97399   9.826   6.977   6.160 -0.1984  0.0773 -0.0495
32274SOL    HW197400   9.848   6.992   6.068  0.9678  0.0211  0.2028
32274SOL    HW297401   9.802   7.064   6.193 -0.5028  0.1177 -0.3748
32275SOL     OW97402   4.313   9.496   9.788 -0.0982  0.0754 -0.0892
32275SOL    HW197403   4.404   9.483   9.761 -0.0899  0.2242 -0.1343
32275SOL    HW297404   4.311   9.586   9.822 -0.0394 -0.2047  0.6749
32276SOL     OW97405   5.965   1.262   1.069 -0.0657  0.1912 -0.5700
32276SOL    HW197406   5.920   1.231   1.148 -0.3712  1.1586 -0.3489
32276SOL    HW297407   6.029   1.194   1.049 -0.5487 -0.4535  0.0387
32277SOL     OW97408   7.168   6.108   1.734 -0.2008  0.2779  0.3199
32277SOL    HW197409   7.104   6.153   1.679 -0.4761  0.5379  0.8425
32277SOL    HW297410   7.250   6.113   1.685 -0.9785 -1.8304 -1.3091
32278SOL     OW97411   4.895   7.322   2.126  0.2241  0.1112 -0.3855
32278SOL    HW197412   4.921   7.332   2.217 -0.0335 -0.1468 -0.2807
32278SOL    HW297413   4.964   7.366   2.076 -0.0158  0.9033 -0.0332
32279SOL     OW97414   0.347   1.355   4.337 -0.2094  0.6871  0.0175
32279SOL    HW197415   0.441   1.341   4.331 -0.2763 -1.6503  2.4275
32279SOL    HW297416   0.309   1.285   4.283 -0.5124 -0.1247  1.2313
32280SOL     OW97417   4.931   4.265   9.526  0.3773 -0.1513 -0.3440
32280SOL    HW197418   4.937   4.326   9.451  1.0166  0.7935  0.4463
32280SOL    HW297419   4.837   4.253   9.539  0.2614 -0.5596 -1.4834
32281SOL     OW97420   5.778   3.612   8.151 -0.1670  0.3308  0.6702
32281SOL    HW197421   5.728   3.654   8.221 -1.3306 -1.4363  0.9490
32281SOL    HW297422   5.844   3.560   8.196 -0.2029  0.0620  0.4148
32282SOL     OW97423   5.639   2.976   4.705 -0.2345 -0.2589 -0.0968
32282SOL    HW197424   5.701   3.005   4.771  0.0345 -1.0713  0.0088
32282SOL    HW297425   5.644   2.881   4.706  0.8555 -0.3076 -2.2740
32283SOL     OW97426   2.336   3.859   4.338 -0.5367  0.2732 -0.1403
32283SOL    HW197427   2.288   3.788   4.296 -0.9798 -0.0787  0.9106
32283SOL    HW297428   2.424   3.825   4.349 -0.1234  0.7671 -1.7074
32284SOL     OW97429   5.291   3.044   2.551  0.3717  0.5110 -0.1547
32284SOL    HW197430   5.238   3.121   2.572 -0.8193 -0.8311  2.1889
32284SOL    HW297431   5.351   3.036   2.626  0.0035 -1.1960 -0.0035
32285SOL     OW97432   8.803   3.020   9.396  0.2478  0.3756 -0.0641
32285SOL    HW197433   8.886   3.006   9.351 -0.5924 -1.9859 -1.0761
32285SOL    HW297434   8.737   2.988   9.335 -1.3335  1.1979  1.1338
32286SOL     OW97435   7.287   0.895   1.119  0.0248 -0.2579 -0.2758
32286SOL    HW197436   7.249   0.980   1.099 -0.8328 -0.0962  1.8076
32286SOL    HW297437   7.381   0.913   1.127 -0.1017  0.4174 -0.2278
32287SOL     OW97438   2.262   1.927   1.241  0.3424 -0.7408 -0.2973
32287SOL    HW197439   2.324   1.856   1.258  0.1882 -0.9391 -0.5605
32287SOL    HW297440   2.265   1.980   1.321 -0.4982 -1.7584  0.4437
32288SOL     OW97441   8.873   2.373   8.565  0.2113 -0.1936  0.6079
32288SOL    HW197442   8.955   2.413   8.536 -0.5167  0.9817  0.0872
32288SOL    HW297443   8.869   2.392   8.658  0.5873 -0.3641  0.6610
32289SOL     OW97444   1.658   4.211   9.745  0.4093 -0.0059 -0.1231
32289SOL    HW197445   1.747   4.235   9.718  0.6891 -0.9408 -0.0763
32289SOL    HW297446   1.604   4.285   9.718  1.0772  0.2124 -0.9175
32290SOL     OW97447   9.508   4.832   9.597  0.8296  0.8269  0.2017
32290SOL    HW197448   9.495   4.883   9.677  1.3613  0.9365  0.2239
32290SOL    HW297449   9.440   4.863   9.537 -1.3585 -1.1489  1.4818
32291SOL     OW97450   1.174   9.991   2.820 -0.4578  0.2750  0.1715
32291SOL    HW197451   1.183   9.896   2.824  0.6843  0.3090 -1.1251
32291SOL    HW297452   1.241  10.024   2.880  0.8684  0.2946 -1.2812
32292SOL     OW97453   1.275   8.549   3.128 -0.2138  0.2636 -0.1915
32292SOL    HW197454   1.300   8.553   3.035  0.2180 -0.6746 -0.1224
32292SOL    HW297455   1.179   8.547   3.126 -0.2521  1.5563 -0.5542
32293SOL     OW97456   7.454   0.012   5.450  0.2233  0.2735  0.3750
32293SOL    HW197457   7.362   0.037   5.456 -0.6762 -2.3217 -1.2388
32293SOL    HW297458   7.487   0.056   5.371  0.2737  0.8171  0.6899
32294SOL     OW97459   7.727   5.023   8.321  0.4382  0.1380  0.2271
32294SOL    HW197460   7.647   4.970   8.326  1.3102 -1.1581  1.3034
32294SOL    HW297461   7.709   5.099   8.375 -0.9158  1.1210 -1.5079
32295SOL     OW97462   4.066   7.954   6.271 -0.0696 -0.1674 -0.0525
32295SOL    HW197463   4.026   7.868   6.263 -1.0965  0.4491 -2.2105
32295SOL    HW297464   4.037   8.002   6.193  3.7841  0.8007 -1.0977
32296SOL     OW97465   2.753   9.327   3.889  0.0586  0.0750  0.2212
32296SOL    HW197466   2.805   9.247   3.877  2.4058  1.6739 -1.0128
32296SOL    HW297467   2.816   9.393   3.918 -0.9218  2.4531 -2.5376
32297SOL     OW97468   6.452   5.635   2.555  0.1632  0.5752  0.0496
32297SOL    HW197469   6.509   5.710   2.574 -0.0630  0.6831  0.3081
32297SOL    HW297470   6.370   5.654   2.602 -0.7104  1.2394 -1.6729
32298SOL     OW97471   8.148   5.164   1.903  0.1601  0.5326  0.2676
32298SOL    HW197472   8.162   5.252   1.867  2.3233  0.9642  1.9175
32298SOL    HW297473   8.092   5.178   1.980 -0.9163  0.1859 -0.4235
32299SOL     OW97474   2.052   0.352   0.824 -0.2203 -0.1071 -0.0463
32299SOL    HW197475   2.144   0.369   0.804  0.0700 -0.0766  1.2042
32299SOL    HW297476   2.046   0.362   0.919 -1.0756 -2.1130  0.1600
32300SOL     OW97477   9.548   7.227   0.749  0.0969 -0.0388  0.5699
32300SOL    HW197478   9.491   7.226   0.672  0.1954  2.8569  0.3375
32300SOL    HW297479   9.497   7.184   0.818 -0.0032 -2.6507 -1.0145
32301SOL     OW97480   5.545   8.328   7.654  0.0937 -0.1706  0.2449
32301SOL    HW197481   5.562   8.275   7.576  0.5124  1.1323 -0.5928
32301SOL    HW297482   5.450   8.338   7.656  0.1617  1.2068 -1.1395
32302SOL     OW97483   9.613   0.326   5.222 -0.4159 -0.1021  0.2426
32302SOL    HW197484   9.589   0.378   5.145  0.2293  0.1293  0.1945
32302SOL    HW297485   9.687   0.273   5.193  0.5609  0.8097  1.0149
32303SOL     OW97486   5.817   6.395   6.226  0.0997 -0.3310  0.0872
32303SOL    HW197487   5.869   6.463   6.182  0.7343 -0.2115  0.9883
32303SOL    HW297488   5.740   6.383   6.170  0.9311 -0.2752 -1.1213
32304SOL     OW97489   3.447   6.781   6.740 -0.6601  0.1019  0.1385
32304SOL    HW197490   3.483   6.702   6.781 -0.1443  0.9664  1.4164
32304SOL    HW297491   3.375   6.749   6.685 -1.3564 -1.1475  1.6896
32305SOL     OW97492   3.085   3.623   2.129  0.6188 -0.2795 -0.0916
32305SOL    HW197493   3.101   3.630   2.223  0.5261  1.2697 -0.1656
32305SOL    HW297494   3.167   3.587   2.094  1.3706  0.9063  0.3788
32306SOL     OW97495   8.256   0.453   0.813  0.4248  0.7145 -0.1936
32306SOL    HW197496   8.167   0.466   0.845  0.6184 -0.3052  0.7984
32306SOL    HW297497   8.246   0.452   0.717 -0.3476  2.4103 -0.1808
32307SOL     OW97498   9.914   9.222   5.222  0.0518 -0.2536  0.2873
32307SOL    HW197499   9.904   9.191   5.132  1.5041 -1.1636  0.4123
32307SOL    HW297500  10.002   9.195   5.247  0.1622  1.1475  1.5399
32308SOL     OW97501   9.429   2.706   3.462  0.5811 -0.1813 -0.6009
32308SOL    HW197502   9.359   2.688   3.399 -0.4593 -1.1809  0.7486
32308SOL    HW297503   9.486   2.768   3.418 -0.4756 -0.2997 -2.2433
32309SOL     OW97504   9.130   3.147   7.761  0.0399  0.4857 -0.1069
32309SOL    HW197505   9.160   3.224   7.711  0.7033  0.5793  0.4289
32309SOL    HW297506   9.093   3.183   7.841 -1.9396  0.4050 -0.9143
32310SOL     OW97507   8.734   8.972   1.920  0.0425 -0.2178  0.3212
32310SOL    HW197508   8.773   8.887   1.899  1.2551  0.2694  0.5050
32310SOL    HW297509   8.645   8.951   1.950  0.1768 -1.3771 -0.0473
32311SOL     OW97510   9.323   6.509   5.428  0.3270 -0.1006  0.2307
32311SOL    HW197511   9.403   6.562   5.418  0.4797 -0.5867 -1.4222
32311SOL    HW297512   9.321   6.487   5.521  1.7911  0.4342  0.4259
32312SOL     OW97513   9.968   8.379   8.777  0.7452 -0.4703 -0.1830
32312SOL    HW197514   9.884   8.417   8.754  1.7919  2.1481  0.0094
32312SOL    HW297515  10.001   8.342   8.695 -0.5024 -1.4092 -0.2835
32313SOL     OW97516   6.458   2.537   3.216  0.1318  0.1415  0.6275
32313SOL    HW197517   6.436   2.600   3.148 -1.2344 -1.2802 -0.3028
32313SOL    HW297518   6.527   2.483   3.178 -0.2954 -0.3455  0.5225
32314SOL     OW97519   6.363   9.858   9.191  0.1477 -0.1954  0.3546
32314SOL    HW197520   6.295   9.872   9.125  1.0467 -0.9037 -0.7733
32314SOL    HW297521   6.403   9.945   9.203  1.0747 -0.3476 -1.3222
32315SOL     OW97522   0.193   6.952   6.075  0.7609 -0.7518 -0.0648
32315SOL    HW197523   0.127   7.007   6.118 -0.9608 -1.9665 -1.0300
32315SOL    HW297524   0.261   6.940   6.141 -0.9868 -1.1843  1.7546
32316SOL     OW97525   2.864   1.308   9.017 -0.2447  0.7309 -0.7957
32316SOL    HW197526   2.872   1.307   9.112 -1.4756  1.2636 -0.6606
32316SOL    HW297527   2.799   1.376   8.999  0.2399  0.8902 -2.0453
32317SOL     OW97528   8.468   6.430   7.931  0.1327  0.5788  0.5220
32317SOL    HW197529   8.412   6.420   7.853 -1.0178  0.4341  1.3423
32317SOL    HW297530   8.411   6.472   7.995  0.8432  0.0227  1.5285
32318SOL     OW97531   9.323   4.584   7.811 -0.4905  0.0366  0.0525
32318SOL    HW197532   9.322   4.537   7.895  1.7310  0.1697  0.2121
32318SOL    HW297533   9.368   4.524   7.752  0.7378  1.1794 -0.2163
32319SOL     OW97534   0.586   2.520   2.104 -0.2581  0.1289  0.3426
32319SOL    HW197535   0.569   2.568   2.023  0.1519  2.3961  1.5207
32319SOL    HW297536   0.522   2.555   2.166  0.0551 -0.8770  1.2622
32320SOL     OW97537   1.699   7.353   3.582  0.1970  0.3638  0.5467
32320SOL    HW197538   1.707   7.346   3.487 -0.6834 -0.0599  0.4917
32320SOL    HW297539   1.637   7.284   3.605 -0.0523  0.8517  1.3629
32321SOL     OW97540   7.845   0.118   0.288  0.1129 -0.3650 -0.3795
32321SOL    HW197541   7.931   0.077   0.281 -0.8545 -2.5742 -0.3955
32321SOL    HW297542   7.820   0.136   0.197  0.8991  1.1040 -0.3191
32322SOL     OW97543   6.624   8.424   4.341  0.0471  0.1248 -0.0176
32322SOL    HW197544   6.646   8.387   4.256 -3.4064 -2.0109 -0.1587
32322SOL    HW297545   6.601   8.348   4.395  1.7405  1.4292  2.8181
32323SOL     OW97546   8.174   9.412   0.509  0.0751 -0.1629 -0.1479
32323SOL    HW197547   8.136   9.500   0.516  1.9081  0.5611  1.4844
32323SOL    HW297548   8.255   9.424   0.460  0.6292 -0.8128  0.5724
32324SOL     OW97549   4.978   9.066   3.229 -0.4976 -0.2474  0.0844
32324SOL    HW197550   4.996   8.982   3.269 -0.0188 -1.8359 -3.1506
32324SOL    HW297551   4.954   9.046   3.139 -0.4877  3.0741 -0.8170
32325SOL     OW97552   0.166   6.784   2.718 -0.0495 -0.3551  0.5492
32325SOL    HW197553   0.157   6.699   2.675 -2.4029  0.4385 -0.6981
32325SOL    HW297554   0.189   6.844   2.647  0.2352  0.2792  1.1709
32326SOL     OW97555   7.684   2.669   2.815 -0.3099 -0.1877  0.3565
32326SOL    HW197556   7.690   2.718   2.897  1.1514  0.8078 -0.2971
32326SOL    HW297557   7.747   2.598   2.825 -2.5778 -2.2066  1.3872
32327SOL     OW97558   8.354   8.909   7.809 -0.2450  0.6752  0.2365
32327SOL    HW197559   8.347   9.000   7.836  3.0010  1.1315 -0.0111
32327SOL    HW297560   8.436   8.905   7.761  0.5298 -2.6643  1.5424
32328SOL     OW97561   1.839   0.059   6.769 -0.7562 -0.0863  0.6798
32328SOL    HW197562   1.800   0.146   6.778 -0.5697  0.0077  0.6073
32328SOL    HW297563   1.899   0.052   6.843  0.7085  0.6519 -0.3825
32329SOL     OW97564   7.448   0.110   5.170  0.2885  0.3902 -0.2012
32329SOL    HW197565   7.476   0.061   5.092  1.6207  0.5198  0.1723
32329SOL    HW297566   7.365   0.069   5.194 -0.2687  0.4791 -1.7944
32330SOL     OW97567   4.399   1.913   5.738  0.1779 -0.6570 -0.1796
32330SOL    HW197568   4.311   1.908   5.775 -0.5177  1.7484 -1.2818
32330SOL    HW297569   4.389   1.879   5.649  0.0208  0.6917 -0.7131
32331SOL     OW97570   5.455   7.126   0.175 -0.0553  0.2122  0.8909
32331SOL    HW197571   5.503   7.057   0.129  0.7518  2.0330 -1.1813
32331SOL    HW297572   5.431   7.187   0.106 -1.7559  1.4390  2.5009
32332SOL     OW97573   4.567   4.454   8.820 -0.2663  0.2724  0.2509
32332SOL    HW197574   4.493   4.504   8.854  0.8105  3.3800 -1.5671
32332SOL    HW297575   4.564   4.468   8.726  1.6206 -1.0078 -0.0500
32333SOL     OW97576   2.749   8.867   2.212  0.0962 -0.4449  0.3647
32333SOL    HW197577   2.681   8.893   2.275 -0.8809  0.1792 -0.9150
32333SOL    HW297578   2.702   8.815   2.147  0.7568  0.2985 -0.7386
32334SOL     OW97579   6.447   8.585   0.147  0.7810 -0.1122 -0.2491
32334SOL    HW197580   6.408   8.516   0.202  1.0277  0.0493  0.1355
32334SOL    HW297581   6.371   8.636   0.116  0.7099  1.5445  2.2728
32335SOL     OW97582   4.340   8.633   0.549 -0.1202  0.3823  0.1404
32335SOL    HW197583   4.361   8.727   0.549  2.8897 -0.1373 -1.8002
32335SOL    HW297584   4.403   8.595   0.611  0.2737 -0.5676 -0.8117
32336SOL     OW97585   3.813   7.783   9.790 -0.2778  0.2058  0.0385
32336SOL    HW197586   3.752   7.837   9.841 -2.5579 -1.4534 -0.7902
32336SOL    HW297587   3.768   7.768   9.707  1.0153 -1.5794 -0.3892
32337SOL     OW97588   2.578   8.260   5.196 -0.0618  0.5829 -0.2767
32337SOL    HW197589   2.606   8.231   5.283 -1.3653 -1.5905 -0.5088
32337SOL    HW297590   2.659   8.261   5.145  0.5194  0.5613  0.6213
32338SOL     OW97591   6.566   8.939  -0.033 -0.1296 -0.1773  0.1991
32338SOL    HW197592   6.659   8.923  -0.016  0.2609  0.6150 -1.1125
32338SOL    HW297593   6.526   8.943   0.054  1.3682  1.2925  0.8540
32339SOL     OW97594   3.693   3.587   4.677 -0.4314 -0.1996 -0.2761
32339SOL    HW197595   3.704   3.542   4.593 -1.0467  0.8474 -0.9328
32339SOL    HW297596   3.602   3.568   4.701 -0.0687 -1.0488  0.5077
32340SOL     OW97597   5.479   1.048   8.673  0.0714 -0.2976 -0.3337
32340SOL    HW197598   5.390   1.021   8.650  0.3844 -0.7442 -1.0575
32340SOL    HW297599   5.468   1.133   8.716 -0.8453 -1.0523  1.0277
32341SOL     OW97600   9.816   7.516   8.164  0.5757  0.0715  0.1376
32341SOL    HW197601   9.846   7.460   8.092  0.3209 -1.1465  0.9485
32341SOL    HW297602   9.741   7.469   8.201  2.0409 -0.5261  2.6218
32342SOL     OW97603   9.824   5.232   4.637 -0.0904  0.0080 -0.1257
32342SOL    HW197604   9.785   5.315   4.609 -1.4140 -1.6538 -4.0542
32342SOL    HW297605   9.749   5.175   4.655  0.7251 -0.9113  0.4710
32343SOL     OW97606   0.130   5.222   6.926 -0.4908  0.3496  0.3882
32343SOL    HW197607   0.155   5.163   6.997 -0.5012  2.9123  2.6853
32343SOL    HW297608   0.214   5.250   6.888 -0.4784 -0.8708 -0.5353
32344SOL     OW97609   3.308   4.374   8.118 -0.1833  0.5473 -0.4829
32344SOL    HW197610   3.244   4.418   8.063 -0.1946 -0.1393 -1.0370
32344SOL    HW297611   3.256   4.323   8.180 -0.1773  1.9643  0.7244
32345SOL     OW97612   7.578   2.896   2.174 -0.3113  0.1753  0.5235
32345SOL    HW197613   7.632   2.848   2.236  0.5073  2.7751  1.9978
32345SOL    HW297614   7.488   2.882   2.202 -0.1656 -1.1123  0.3899
32346SOL     OW97615   9.476   5.347   7.538 -0.3849 -0.2559 -0.1890
32346SOL    HW197616   9.547   5.313   7.483 -1.0740  0.9509 -1.9124
32346SOL    HW297617   9.409   5.375   7.476 -1.4428  0.6944  1.3128
32347SOL     OW97618   2.507   1.495   5.998 -0.0977  0.0592  0.1722
32347SOL    HW197619   2.430   1.495   5.941 -0.5014  2.2314  0.6257
32347SOL    HW297620   2.473   1.517   6.085  0.7427 -1.4972  0.9529
32348SOL     OW97621   2.897   7.658   2.404 -0.4174 -0.9238 -0.7091
32348SOL    HW197622   2.884   7.753   2.415  1.1788 -0.7185 -0.2532
32348SOL    HW297623   2.866   7.640   2.316 -0.4261  0.0976 -0.9326
32349SOL     OW97624   9.519   2.679   8.286 -0.3851  0.4857 -0.0864
32349SOL    HW197625   9.448   2.626   8.252  0.2919  0.1736 -1.0393
32349SOL    HW297626   9.478   2.735   8.353 -1.5856  0.5793 -0.8882
32350SOL     OW97627   7.667   4.696   0.654  0.8406  0.1543 -0.4013
32350SOL    HW197628   7.573   4.684   0.646  0.6724 -1.0077  2.3143
32350SOL    HW297629   7.704   4.608   0.648  1.7222  0.5368 -0.8740
32351SOL     OW97630   6.900   4.996   9.813 -0.0107  0.5214  0.0372
32351SOL    HW197631   6.847   5.070   9.845 -0.4201 -0.0036  0.6058
32351SOL    HW297632   6.983   5.035   9.787 -1.2332  1.6362 -2.4598
32352SOL     OW97633   4.018   5.890   6.695 -0.1055 -0.2591  0.0627
32352SOL    HW197634   4.012   5.851   6.782  0.0128  1.0378  0.6863
32352SOL    HW297635   4.110   5.879   6.669 -0.4524 -1.9311 -0.5524
32353SOL     OW97636   6.309   5.356   9.151  0.3785  0.4774 -0.8843
32353SOL    HW197637   6.272   5.270   9.130 -1.0949  0.7173  0.4948
32353SOL    HW297638   6.381   5.367   9.089 -1.2439 -0.4651 -3.0769
32354SOL     OW97639   7.158   7.324   6.236 -0.1491 -0.3358 -0.3237
32354SOL    HW197640   7.240   7.336   6.188  0.7936 -0.2655  1.2409
32354SOL    HW297641   7.163   7.235   6.271 -1.6132 -1.0248 -1.7555
32355SOL     OW97642   2.792   7.014   7.786  0.4223 -0.2461  0.0387
32355SOL    HW197643   2.759   7.045   7.870  0.7776  0.5056 -0.0945
32355SOL    HW297644   2.713   6.986   7.739 -0.2854  2.7571 -0.7907
32356SOL     OW97645   9.428   7.422   2.428 -0.3636 -0.1580  0.3167
32356SOL    HW197646   9.484   7.479   2.480  0.3874  0.5797 -1.2230
32356SOL    HW297647   9.485   7.388   2.359 -1.5273 -0.2915 -0.6287
32357SOL     OW97648   4.216   1.636   1.432 -0.2958 -0.3745 -0.4366
32357SOL    HW197649   4.193   1.697   1.362  0.2452  0.2989 -0.0443
32357SOL    HW297650   4.311   1.623   1.422 -0.4441 -1.3112 -0.6415
32358SOL     OW97651   9.797   7.075   0.706  0.0449  0.6235  0.1751
32358SOL    HW197652   9.716   7.118   0.734 -0.5718  0.4158 -1.1919
32358SOL    HW297653   9.767   7.000   0.655  1.1128  0.0152  0.4189
32359SOL     OW97654   7.014   5.319   2.587  0.2648 -0.2605 -0.9301
32359SOL    HW197655   7.022   5.404   2.632  0.5810 -0.5401 -0.4506
32359SOL    HW297656   6.940   5.331   2.528  0.3349  0.3722 -0.9061
32360SOL     OW97657   5.466   8.402   5.399 -0.8518 -0.0783  0.8470
32360SOL    HW197658   5.401   8.338   5.369 -0.0673 -1.3633  1.8076
32360SOL    HW297659   5.508   8.360   5.474  0.7780  0.9035  0.5262
32361SOL     OW97660   1.106   1.596   1.060  0.6762 -0.6685  0.3775
32361SOL    HW197661   1.147   1.532   1.002  2.8396 -1.8800  3.0171
32361SOL    HW297662   1.179   1.646   1.096 -0.5692  0.0856  1.9789
32362SOL     OW97663   7.893   5.131   8.691  0.5102 -0.8823 -0.0620
32362SOL    HW197664   7.987   5.121   8.706  0.5414 -0.8348 -0.2215
32362SOL    HW297665   7.857   5.151   8.777  0.6011 -1.2356  0.0566
32363SOL     OW97666   8.378   7.950   7.926  0.3588  0.7576 -0.8050
32363SOL    HW197667   8.335   7.925   8.008  0.7245 -3.6121 -1.6761
32363SOL    HW297668   8.314   8.004   7.880 -2.5391 -1.8085 -0.1491
32364SOL     OW97669   0.080   8.163   6.076 -0.4773 -0.0218 -0.6689
32364SOL    HW197670   0.171   8.180   6.049 -0.3823 -0.5323 -0.6822
32364SOL    HW297671   0.027   8.217   6.018 -0.1209  1.3252  0.2292
32365SOL     OW97672   8.946   1.103   3.664 -0.4323 -0.3908 -0.2630
32365SOL    HW197673   9.021   1.087   3.607  0.7316  0.8956  0.8414
32365SOL    HW297674   8.973   1.177   3.719 -2.4870  0.0470  0.2210
32366SOL     OW97675   8.532   5.929   7.271  0.0191 -0.2650 -0.6637
32366SOL    HW197676   8.514   5.970   7.355  1.8854 -0.6272 -0.0278
32366SOL    HW297677   8.462   5.960   7.213 -2.4897 -1.5611  1.4514
32367SOL     OW97678   4.576   3.600   8.589 -0.0388 -0.5309  0.7147
32367SOL    HW197679   4.595   3.539   8.518 -0.8808  1.6204 -1.5068
32367SOL    HW297680   4.495   3.567   8.628 -0.4859 -0.8487 -0.4341
32368SOL     OW97681   9.761   2.269   7.288 -0.7047 -0.4570  0.1658
32368SOL    HW197682   9.698   2.205   7.322 -1.7802  0.4415 -0.0586
32368SOL    HW297683   9.729   2.289   7.200 -0.7123  0.7738  0.4282
32369SOL     OW97684   5.554   4.609   6.401  0.2938  0.3057 -0.1379
32369SOL    HW197685   5.494   4.538   6.423 -0.0869 -0.4642 -3.1772
32369SOL    HW297686   5.553   4.666   6.478 -1.3212 -1.6493  1.4286
32370SOL     OW97687   8.471   5.306   0.636 -0.1094  0.2387  0.3764
32370SOL    HW197688   8.377   5.310   0.617  0.1756  1.2435 -0.9817
32370SOL    HW297689   8.478   5.335   0.727 -1.0605  0.9764  0.2355
32371SOL     OW97690   1.131   3.165   5.246  0.9934  0.2719  0.0205
32371SOL    HW197691   1.211   3.190   5.199  0.7834 -0.4375 -0.7497
32371SOL    HW297692   1.080   3.116   5.181  0.5895 -0.5456  0.9294
32372SOL     OW97693   0.228   8.106   4.728 -0.0730 -0.1364 -0.1091
32372SOL    HW197694   0.142   8.079   4.761  0.3566  0.1048  1.2612
32372SOL    HW297695   0.211   8.189   4.683 -0.1408  1.5477  2.7963
32373SOL     OW97696   9.463   8.130   8.746  0.3042 -0.1244 -0.1339
32373SOL    HW197697   9.415   8.050   8.723 -0.2659  0.3375 -0.5894
32373SOL    HW297698   9.403   8.179   8.803 -0.3662  1.0795 -1.7711
32374SOL     OW97699   8.751   6.105   4.355  0.6022 -0.1296 -0.8530
32374SOL    HW197700   8.707   6.085   4.438  1.8789 -1.2860 -0.4072
32374SOL    HW297701   8.745   6.024   4.305  0.6024  0.2911 -1.5498
32375SOL     OW97702   5.907   1.173   3.812 -0.8837 -0.0595  0.3102
32375SOL    HW197703   5.948   1.086   3.811  0.4921  0.5594  0.5131
32375SOL    HW297704   5.860   1.179   3.729  2.8596  0.7219 -1.9988
32376SOL     OW97705   3.147   1.861   5.418  0.0441  0.0973 -0.1735
32376SOL    HW197706   3.067   1.881   5.467 -0.2402  0.1100 -0.6467
32376SOL    HW297707   3.119   1.806   5.346  0.5924 -0.6545  0.1660
32377SOL     OW97708   5.103   1.350   8.401 -0.2981  0.1139  0.0197
32377SOL    HW197709   5.045   1.426   8.407 -0.1109  0.2613  0.0094
32377SOL    HW297710   5.059   1.290   8.341 -0.6805  0.0011  0.4119
32378SOL     OW97711   3.140   7.208   0.048  0.2510  0.3739  0.0356
32378SOL    HW197712   3.204   7.141   0.073  1.1684  0.8635 -0.8685
32378SOL    HW297713   3.056   7.174   0.078  0.8641 -0.5569  0.7692
32379SOL     OW97714   0.818   9.376   3.548  0.3176 -0.0862 -0.4649
32379SOL    HW197715   0.882   9.374   3.619  2.0028  1.3196 -1.8619
32379SOL    HW297716   0.785   9.466   3.549  1.1639  0.2779 -2.0988
32380SOL     OW97717   9.499   4.088   0.171  0.1017  0.6795 -0.6616
32380SOL    HW197718   9.505   4.182   0.154 -1.5004  0.7895 -0.7464
32380SOL    HW297719   9.482   4.049   0.086  1.1456  0.2476 -0.6897
32381SOL     OW97720   8.831   5.777   6.058  0.3437 -0.4433 -0.1104
32381SOL    HW197721   8.919   5.769   6.022  0.1974 -1.3920 -0.2826
32381SOL    HW297722   8.781   5.820   5.988  0.3686 -1.0899 -0.5365
32382SOL     OW97723   3.843   6.373   9.146  0.3650 -0.1123 -0.6515
32382SOL    HW197724   3.781   6.302   9.163 -0.2480  0.4997 -0.3042
32382SOL    HW297725   3.856   6.372   9.051  0.4420 -0.7480 -0.6404
32383SOL     OW97726   4.702   0.580   0.599  0.0764 -0.1966  0.2175
32383SOL    HW197727   4.696   0.587   0.694  0.5115 -0.1433  0.2425
32383SOL    HW297728   4.684   0.487   0.581  0.1635 -0.2423  0.3649
32384SOL     OW97729   2.332   0.436   1.258  0.1497 -0.2672 -0.5165
32384SOL    HW197730   2.327   0.459   1.351 -1.9285  0.2236 -0.6940
32384SOL    HW297731   2.242   0.414   1.234  0.3373  1.1132 -2.7765
32385SOL     OW97732   9.971   6.489   4.592 -0.2576  0.4468  0.6956
32385SOL    HW197733   9.907   6.557   4.613 -0.5752  0.6265 -0.7065
32385SOL    HW297734  10.017   6.523   4.515  1.1431  0.0618  1.3384
32386SOL     OW97735   2.205   7.503   5.756  0.2267 -0.1033 -0.5648
32386SOL    HW197736   2.130   7.499   5.816 -0.7169 -2.5631 -1.7991
32386SOL    HW297737   2.169   7.539   5.675  0.7134  0.0415 -0.7178
32387SOL     OW97738   1.161   1.520   0.228  0.5506 -0.1273 -0.3253
32387SOL    HW197739   1.098   1.456   0.194  0.5433 -1.1737  1.5274
32387SOL    HW297740   1.232   1.467   0.265  1.1276  0.9689  0.1889
32388SOL     OW97741   4.976   6.398   4.709  0.7821 -0.1807  0.1673
32388SOL    HW197742   5.056   6.447   4.724  0.3657  0.3981  0.5210
32388SOL    HW297743   5.005   6.307   4.699  1.5117  0.0749 -0.0732
32389SOL     OW97744   3.881   9.698   6.714  0.3104  0.3371 -0.0548
32389SOL    HW197745   3.864   9.608   6.742  0.7883  0.3904  0.4407
32389SOL    HW297746   3.796   9.733   6.690  0.0643 -0.1199  0.1436
32390SOL     OW97747   2.697   3.837   3.324 -0.4394  0.5987 -0.3550
32390SOL    HW197748   2.630   3.792   3.273 -0.1813  0.7971 -0.8857
32390SOL    HW297749   2.664   3.837   3.414  0.2094 -1.8861 -0.0677
32391SOL     OW97750   4.522   1.666   3.362  0.2437  0.1665 -0.0152
32391SOL    HW197751   4.487   1.614   3.291  0.9038 -0.8605  0.3952
32391SOL    HW297752   4.605   1.701   3.329 -0.1225  0.8346 -0.2356
32392SOL     OW97753   5.123   1.956   4.879  0.6038  0.2505 -0.2050
32392SOL    HW197754   5.202   2.008   4.891  1.0950 -0.6343  0.4289
32392SOL    HW297755   5.055   2.021   4.860  1.8261  0.9266 -2.8280
32393SOL     OW97756   3.592   1.846   5.946  0.0956 -0.2479  0.3089
32393SOL    HW197757   3.579   1.937   5.919 -0.3662 -0.5251 -0.4479
32393SOL    HW297758   3.646   1.851   6.025  1.4860  0.6130 -0.6456
32394SOL     OW97759   8.038   4.326   9.190  0.0752 -0.7009 -0.2466
32394SOL    HW197760   8.095   4.315   9.113  0.1153 -1.0372 -0.1704
32394SOL    HW297761   7.963   4.268   9.172 -0.4399  0.0305 -0.5287
32395SOL     OW97762   5.656   6.006   6.235  0.2357 -0.6319 -0.5499
32395SOL    HW197763   5.596   6.031   6.165 -0.7844 -0.4846  0.3518
32395SOL    HW297764   5.605   5.946   6.290  1.0770 -0.8851 -0.0288
32396SOL     OW97765   4.816   4.829   9.287 -0.1182 -0.7583 -0.1803
32396SOL    HW197766   4.898   4.817   9.239  1.5385  2.3819  1.5605
32396SOL    HW297767   4.748   4.807   9.224  1.9997 -2.1598 -2.1391
32397SOL     OW97768   7.126   0.094   7.672  0.3064  0.1334 -0.0833
32397SOL    HW197769   7.205   0.127   7.715  0.4133  0.5269 -0.5838
32397SOL    HW297770   7.113   0.152   7.598 -0.8178  0.4685  0.3575
32398SOL     OW97771   2.830   7.590   7.812  0.0320  0.2824  0.4512
32398SOL    HW197772   2.875   7.672   7.793 -0.1943  0.0370 -1.2394
32398SOL    HW297773   2.848   7.534   7.737 -1.1669 -0.6452  0.8159
32399SOL     OW97774   6.245   0.949   8.149 -0.5312 -0.3218  0.0572
32399SOL    HW197775   6.262   1.042   8.131 -0.9345  0.1173  1.7795
32399SOL    HW297776   6.308   0.902   8.095 -0.0336  0.9722 -0.5243
32400SOL     OW97777   3.787   9.470   8.144 -0.4875 -0.3036 -0.1179
32400SOL    HW197778   3.749   9.546   8.099  0.9677  0.5484  0.0360
32400SOL    HW297779   3.839   9.426   8.077  0.3743  0.0499  0.3041
32401SOL     OW97780   2.445   3.620   6.594  0.1550  0.1116  0.0188
32401SOL    HW197781   2.424   3.552   6.530  0.7963 -0.6211  0.5716
32401SOL    HW297782   2.526   3.659   6.561  0.2485  0.0299  0.1530
32402SOL     OW97783   6.362   1.646   4.924 -0.0320  0.0440  0.1092
32402SOL    HW197784   6.283   1.643   4.978  0.0814  1.7596  0.4378
32402SOL    HW297785   6.387   1.554   4.911 -1.2023 -0.4582  1.2793
32403SOL     OW97786   5.339   6.863   7.353  0.1968  0.4720 -0.7734
32403SOL    HW197787   5.255   6.891   7.389  1.3397  2.4229  0.5521
32403SOL    HW297788   5.317   6.786   7.299 -2.1883 -0.0908  0.8123
32404SOL     OW97789   1.914   6.571   5.627  0.1398  0.3003 -0.5411
32404SOL    HW197790   1.861   6.612   5.559  0.8248  0.5711 -0.9196
32404SOL    HW297791   2.004   6.578   5.595  0.3924 -0.3041  0.0118
32405SOL     OW97792   3.381   5.376   0.051  0.1918  0.0144  0.2584
32405SOL    HW197793   3.435   5.376  -0.028 -0.8845 -0.0091 -0.4945
32405SOL    HW297794   3.426   5.317   0.111  0.9715 -0.0429 -0.3679
32406SOL     OW97795   3.335   3.589   2.013  0.0199  0.3175  0.1376
32406SOL    HW197796   3.388   3.510   2.020  0.7841  0.8627  0.6178
32406SOL    HW297797   3.374   3.637   1.939  0.3365  0.8055  0.6079
32407SOL     OW97798   3.359   9.903   2.918 -0.4389  0.6247  0.4221
32407SOL    HW197799   3.301   9.906   2.843  1.7028  1.0636 -1.3391
32407SOL    HW297800   3.302   9.918   2.993 -2.7156 -0.1178 -1.0489
32408SOL     OW97801   7.989   7.692   9.009  0.2107 -0.2064  0.0181
32408SOL    HW197802   7.941   7.660   9.085  1.6251 -0.3616  0.8954
32408SOL    HW297803   8.048   7.620   8.986 -0.7870 -0.5096 -1.8124
32409SOL     OW97804   3.310   6.094   9.543 -0.1557  0.1899  0.1798
32409SOL    HW197805   3.300   6.187   9.562  2.7182  1.0720 -1.7988
32409SOL    HW297806   3.382   6.066   9.599 -0.8215 -0.8042  0.5592
32410SOL     OW97807   9.516   6.549   4.005  0.6175  0.1474 -0.1665
32410SOL    HW197808   9.500   6.480   4.070  0.0274  0.0393 -0.4223
32410SOL    HW297809   9.590   6.516   3.955 -0.3374 -0.8301 -0.9871
32411SOL     OW97810   6.173   7.822   9.650 -0.7390 -0.5005  0.0177
32411SOL    HW197811   6.207   7.910   9.636 -1.7044 -0.0064  0.6429
32411SOL    HW297812   6.183   7.778   9.565  0.6688 -0.1248 -0.0232
32412SOL     OW97813   1.697   3.124   7.213  0.1552 -0.0407 -0.2614
32412SOL    HW197814   1.685   3.030   7.216  0.4863 -0.1064 -0.8648
32412SOL    HW297815   1.672   3.149   7.124 -0.2929  0.4918  0.0063
32413SOL     OW97816   5.277   9.512   1.724  0.2295  0.1921 -0.0044
32413SOL    HW197817   5.225   9.460   1.784 -2.0548  0.3887 -1.6903
32413SOL    HW297818   5.348   9.454   1.697  0.2710 -0.4853  1.4596
32414SOL     OW97819   2.364   3.739   1.398  0.1847 -0.2395 -0.6069
32414SOL    HW197820   2.306   3.757   1.471  1.9142  2.4725  0.2247
32414SOL    HW297821   2.384   3.646   1.406 -1.3199 -0.4738  1.0627
32415SOL     OW97822   4.883   8.747   9.704 -0.3851  0.3496 -0.3635
32415SOL    HW197823   4.887   8.837   9.735  1.1362 -0.0490  0.7074
32415SOL    HW297824   4.805   8.744   9.648  0.6699  2.8512 -2.1413
32416SOL     OW97825   4.203   7.799   0.990  0.2118 -0.5029  0.1898
32416SOL    HW197826   4.196   7.849   0.909  0.0923 -0.9478 -0.0753
32416SOL    HW297827   4.292   7.815   1.020  0.5234 -0.9792 -0.4518
32417SOL     OW97828   7.419   3.655   3.096  0.5438  0.0922  0.3663
32417SOL    HW197829   7.350   3.631   3.034 -0.4395 -0.1234  1.4822
32417SOL    HW297830   7.473   3.576   3.104 -0.1515 -0.3534  0.8090
32418SOL     OW97831   3.094   9.603   1.789 -0.2664  0.0196  0.2157
32418SOL    HW197832   3.151   9.614   1.712 -0.0133  1.0157  0.5238
32418SOL    HW297833   3.147   9.554   1.851  0.6384  1.7404  0.8552
32419SOL     OW97834   9.295   0.262   4.715  0.4147 -0.5140  0.2736
32419SOL    HW197835   9.257   0.342   4.752  2.1862  0.2280  0.6186
32419SOL    HW297836   9.228   0.227   4.657 -0.6461  0.8777  0.6217
32420SOL     OW97837   3.717   3.819   8.561 -0.2571 -0.0852  0.2374
32420SOL    HW197838   3.661   3.855   8.629 -1.2257  0.7301 -0.9364
32420SOL    HW297839   3.706   3.880   8.487 -0.1253 -1.5402 -1.0282
32421SOL     OW97840   9.132   8.480   7.873 -0.1201  0.1239 -0.2964
32421SOL    HW197841   9.196   8.549   7.889 -0.6546  0.3983  0.7551
32421SOL    HW297842   9.131   8.470   7.778 -0.8243  2.3636 -0.5812
32422SOL     OW97843   0.896   3.890   5.456  0.4968  0.9437 -0.0726
32422SOL    HW197844   0.987   3.902   5.428  0.5127  0.6587 -0.1452
32422SOL    HW297845   0.844   3.912   5.379  0.4397  2.4374  0.3575
32423SOL     OW97846   0.887   9.106   5.026 -0.1990 -0.4955 -0.0546
32423SOL    HW197847   0.868   9.081   4.936 -0.2191  1.5152 -0.6603
32423SOL    HW297848   0.808   9.153   5.055 -0.5789 -1.9096  1.3703
32424SOL     OW97849   2.098   6.222   7.059  0.2065  0.3362  0.0418
32424SOL    HW197850   2.049   6.140   7.051  0.2943  0.2050  0.8371
32424SOL    HW297851   2.057   6.280   6.994 -1.2646  0.3459  0.9227
32425SOL     OW97852   8.697   2.679   8.254 -0.0314  0.1807  0.4453
32425SOL    HW197853   8.768   2.663   8.193 -0.2657  1.6293 -0.2686
32425SOL    HW297854   8.729   2.750   8.310 -0.0604 -0.7051  1.6317
32426SOL     OW97855   9.242   3.633   0.031  0.1712  0.2957  0.4486
32426SOL    HW197856   9.278   3.659  -0.053 -0.5445 -0.7307 -0.2025
32426SOL    HW297857   9.167   3.691   0.044 -0.9574 -0.8502 -0.6296
32427SOL     OW97858   7.385   1.594   2.093 -0.8228 -0.3487 -0.5751
32427SOL    HW197859   7.465   1.588   2.146 -0.1483  1.8680 -1.2565
32427SOL    HW297860   7.359   1.686   2.099 -2.6976 -0.7921 -1.3099
32428SOL     OW97861   4.089   5.133   1.184  0.5412  0.0375 -0.1667
32428SOL    HW197862   4.066   5.052   1.139  0.2170 -0.7608  1.3739
32428SOL    HW297863   4.046   5.127   1.269  0.8906  1.6271  0.1634
32429SOL     OW97864   7.804   9.654   1.563  0.4206 -0.1315  0.1253
32429SOL    HW197865   7.739   9.720   1.587 -0.5789 -1.1188  0.1805
32429SOL    HW297866   7.864   9.651   1.638 -0.6603 -0.6690  0.9968
32430SOL     OW97867   5.185   8.095   8.687 -0.4646 -0.1281  0.5813
32430SOL    HW197868   5.255   8.047   8.731  0.6676  1.1975  0.3128
32430SOL    HW297869   5.199   8.186   8.713 -0.5782  0.5058 -1.4330
32431SOL     OW97870   4.391   6.994   5.438  0.0032  0.1884 -0.2969
32431SOL    HW197871   4.436   6.976   5.521  1.6997  0.7958 -1.0462
32431SOL    HW297872   4.314   7.045   5.463 -2.0272 -3.2506  1.3361
32432SOL     OW97873   4.148   4.315   7.134 -0.0967 -0.1304 -0.1100
32432SOL    HW197874   4.133   4.374   7.208  2.1403 -0.2734  0.5302
32432SOL    HW297875   4.081   4.340   7.070  1.0953  3.6218 -0.1634
32433SOL     OW97876   6.667   0.465   8.711  0.3786  0.3981 -0.0800
32433SOL    HW197877   6.597   0.434   8.654 -0.1224 -0.2563  0.8576
32433SOL    HW297878   6.629   0.539   8.759  0.6626  0.6843 -0.2900
32434SOL     OW97879   4.315   6.937   3.658 -0.2144 -0.6617 -0.7931
32434SOL    HW197880   4.266   6.873   3.606  1.4921 -1.2407 -1.7696
32434SOL    HW297881   4.362   6.990   3.593  0.4651 -0.1518  0.0905
32435SOL     OW97882   5.472   4.952   5.230  0.0376  0.3581 -0.5754
32435SOL    HW197883   5.432   4.887   5.171  0.9859 -0.2446 -0.5830
32435SOL    HW297884   5.415   4.952   5.307  0.6705 -1.4381 -0.0372
32436SOL     OW97885   7.215   2.107   2.136 -0.4364 -0.3538 -0.5646
32436SOL    HW197886   7.160   2.098   2.059 -1.9175 -0.6119  0.4714
32436SOL    HW297887   7.271   2.182   2.118 -0.9342 -0.2540 -1.7659
32437SOL     OW97888   0.135   4.354   9.893  0.1075  0.1088  0.5802
32437SOL    HW197889   0.139   4.450   9.898  0.4716  0.0778  0.9277
32437SOL    HW297890   0.163   4.334   9.804  2.8384  0.1928  1.3120
32438SOL     OW97891   2.458   0.918   3.344  0.3234  0.0704 -0.1882
32438SOL    HW197892   2.533   0.910   3.285 -1.1668  0.1841 -2.1781
32438SOL    HW297893   2.387   0.951   3.289 -2.2405 -3.3947  0.7015
32439SOL     OW97894   7.467   5.484   2.334 -0.0622 -0.1356  0.1929
32439SOL    HW197895   7.517   5.462   2.413 -1.2696 -0.4651  0.8898
32439SOL    HW297896   7.490   5.575   2.316  0.2905 -0.0788  0.8799
32440SOL     OW97897   4.847   3.960   1.689  0.4018 -0.3175 -0.1485
32440SOL    HW197898   4.918   3.946   1.627 -0.3401 -0.7772 -0.9154
32440SOL    HW297899   4.802   4.038   1.656  0.4483 -0.1123  0.2541
32441SOL     OW97900   9.093   0.800   4.057 -0.2447 -0.2720  0.7114
32441SOL    HW197901   9.031   0.860   4.100 -1.8088 -1.2024 -0.1401
32441SOL    HW297902   9.170   0.800   4.114 -0.9609  1.0441  1.7429
32442SOL     OW97903   2.951   5.497   0.678  0.2651 -0.5007  0.0039
32442SOL    HW197904   2.875   5.439   0.684  0.0503 -0.3029 -0.7333
32442SOL    HW297905   3.026   5.439   0.673 -0.0753 -0.8255 -2.9709
32443SOL     OW97906   3.146   9.344   4.385  0.0809  0.2798 -0.1693
32443SOL    HW197907   3.225   9.384   4.348  0.0311 -0.2008 -0.8145
32443SOL    HW297908   3.076   9.405   4.361  0.3949  1.3193  1.4291
32444SOL     OW97909   7.237   0.783   0.709 -0.2940 -0.2756  0.1953
32444SOL    HW197910   7.145   0.806   0.717  0.2442  2.4484 -0.1404
32444SOL    HW297911   7.258   0.738   0.791 -1.4264  1.1363  1.3193
32445SOL     OW97912   7.644   3.060   3.234 -0.3418 -0.3452 -0.5834
32445SOL    HW197913   7.634   3.153   3.252  0.0942 -0.1762 -1.1673
32445SOL    HW297914   7.565   3.019   3.270 -0.2299  0.1605  0.2515
32446SOL     OW97915   6.268   3.950   4.897 -0.3359 -0.7218  0.1859
32446SOL    HW197916   6.183   3.917   4.926 -0.9358  0.8228  0.2669
32446SOL    HW297917   6.249   3.999   4.817  0.3911  0.1331  0.5276
32447SOL     OW97918   8.785   4.368   1.050  0.4803 -0.2174 -0.1491
32447SOL    HW197919   8.747   4.438   0.996  0.5046 -1.0089 -1.2287
32447SOL    HW297920   8.721   4.297   1.046  0.7889 -0.5313  0.3407
32448SOL     OW97921   9.938   5.543   8.764  0.5121  0.1136  0.2838
32448SOL    HW197922  10.011   5.486   8.740 -1.0160 -2.6961  1.7131
32448SOL    HW297923   9.910   5.511   8.850 -2.3563  1.0258 -0.1935
32449SOL     OW97924   3.753   3.882   2.640  0.0443 -0.1511  0.8064
32449SOL    HW197925   3.815   3.927   2.697  0.5010 -1.3016  1.2441
32449SOL    HW297926   3.805   3.815   2.595 -0.4956  0.1411 -0.2785
32450SOL     OW97927   0.961   1.849   6.397  0.3906 -0.0943  0.0754
32450SOL    HW197928   0.869   1.859   6.419  0.5464 -1.2950  1.4478
32450SOL    HW297929   1.007   1.855   6.481  1.3590 -1.4672 -0.3071
32451SOL     OW97930   0.309   3.610   2.208  0.4770 -0.5656  0.1773
32451SOL    HW197931   0.309   3.592   2.114  0.5891 -1.9632  0.4131
32451SOL    HW297932   0.399   3.637   2.228  0.4185 -0.1334 -0.1296
32452SOL     OW97933   2.764   3.920   9.610 -0.4232 -0.0498  0.5957
32452SOL    HW197934   2.771   4.014   9.592 -0.6282 -0.2415 -0.5735
32452SOL    HW297935   2.841   3.882   9.568 -1.8473 -0.7275 -1.5938
32453SOL     OW97936   2.142   2.167   2.307  0.7124  0.0319 -0.3276
32453SOL    HW197937   2.200   2.092   2.297  1.3516  0.4031  0.5181
32453SOL    HW297938   2.110   2.161   2.397 -0.8339 -0.3438 -0.8651
32454SOL     OW97939   9.813   2.828   3.224 -0.2098 -0.1732  0.8487
32454SOL    HW197940   9.764   2.804   3.144  1.0853  0.5906 -0.2139
32454SOL    HW297941   9.788   2.761   3.288 -1.0636 -0.9806 -0.2782
32455SOL     OW97942   8.175   3.869   1.948 -0.1004  0.5052  0.4406
32455SOL    HW197943   8.257   3.821   1.960  0.9121  1.6042 -1.5273
32455SOL    HW297944   8.107   3.801   1.942  1.3076 -0.8274 -2.5201
32456SOL     OW97945   9.521   1.032   9.453  0.5966 -0.0949  0.1710
32456SOL    HW197946   9.610   1.064   9.465  1.0376 -1.0102 -0.5214
32456SOL    HW297947   9.473   1.107   9.418  1.6461 -0.1739 -1.5794
32457SOL     OW97948   4.627   5.090   6.546 -0.0813 -0.4169  0.5503
32457SOL    HW197949   4.690   5.160   6.529 -0.5582 -0.3709 -1.3134
32457SOL    HW297950   4.680   5.012   6.559  0.4052 -0.1498  0.2080
32458SOL     OW97951   9.273   0.002   6.036 -0.3802  0.2650 -0.5473
32458SOL    HW197952   9.332   0.048   6.096  1.7751 -0.2428 -2.1312
32458SOL    HW297953   9.204  -0.033   6.092 -1.1361  3.7454  0.9788
32459SOL     OW97954   4.959   1.440   5.871  0.2137  0.2207 -0.1572
32459SOL    HW197955   5.015   1.378   5.825  0.9865 -0.2352  1.3241
32459SOL    HW297956   4.873   1.429   5.831  1.0431  0.6514 -2.2105
32460SOL     OW97957   7.410   1.147   4.365  0.3330 -0.0031 -0.1553
32460SOL    HW197958   7.424   1.182   4.276 -2.0964  2.2309  0.2110
32460SOL    HW297959   7.423   1.223   4.422  0.3633 -1.0564  1.2784
32461SOL     OW97960   3.325   2.328   6.148 -0.0386  0.3937  0.3023
32461SOL    HW197961   3.236   2.362   6.152 -0.2417 -0.1493  0.5378
32461SOL    HW297962   3.342   2.317   6.055 -1.3785 -2.4258  0.2981
32462SOL     OW97963   4.256   7.575   7.892 -0.3070  0.1147 -0.2450
32462SOL    HW197964   4.208   7.492   7.888 -0.3809  0.1806 -0.7493
32462SOL    HW297965   4.189   7.642   7.906 -0.2331  0.0761  0.3031
32463SOL     OW97966   5.288   1.136   7.191  0.1593 -0.2613  0.0570
32463SOL    HW197967   5.365   1.187   7.166  1.1299 -1.5964  0.2058
32463SOL    HW297968   5.248   1.186   7.262 -0.5292  1.6871 -1.5966
32464SOL     OW97969   0.523   0.717   4.599  0.2851 -0.0043  0.5957
32464SOL    HW197970   0.573   0.637   4.579  0.2652  0.3099 -0.7823
32464SOL    HW297971   0.494   0.704   4.690  1.9042 -0.6964  1.0617
32465SOL     OW97972   8.511   4.951   0.035  0.1522  0.2664 -0.3283
32465SOL    HW197973   8.518   4.897   0.114 -1.4335  0.9637  0.3310
32465SOL    HW297974   8.567   5.027   0.053 -1.4849  1.2433  0.8758
32466SOL     OW97975   8.542   5.479   7.856 -0.0689 -0.1796  0.6201
32466SOL    HW197976   8.484   5.501   7.929 -0.4968 -2.2247  0.9437
32466SOL    HW297977   8.513   5.537   7.785 -2.0210 -0.6133  0.9983
32467SOL     OW97978   2.008   4.545   2.826 -0.8522  0.3931 -0.2994
32467SOL    HW197979   1.989   4.630   2.785  0.1141  0.6206 -0.2808
32467SOL    HW297980   1.924   4.519   2.865 -1.2336  1.1953 -0.5508
32468SOL     OW97981   6.325   7.545   9.112 -0.4832 -0.6166  0.2125
32468SOL    HW197982   6.386   7.488   9.158 -2.7345 -2.4779  1.0898
32468SOL    HW297983   6.240   7.503   9.124 -1.6619  0.6099 -2.8548
32469SOL     OW97984   8.897   6.966   1.045  0.3275  0.2658  0.2332
32469SOL    HW197985   8.912   6.905   1.118 -0.9448  1.5809  1.6397
32469SOL    HW297986   8.821   6.930   1.000 -1.2814  1.4705  1.8740
32470SOL     OW97987   9.794   1.109   1.137 -0.1658  0.3476 -0.4376
32470SOL    HW197988   9.836   1.045   1.080  0.1795  1.0657 -1.0095
32470SOL    HW297989   9.728   1.059   1.185 -0.4001 -0.2942 -1.4003
32471SOL     OW97990   9.480   6.470   8.080 -0.0782  0.0185 -0.2200
32471SOL    HW197991   9.498   6.500   7.991  0.9016  2.4218  0.6813
32471SOL    HW297992   9.402   6.520   8.106 -0.9860 -1.4332 -0.0381
32472SOL     OW97993   2.078   7.177   1.973 -0.3331  0.0134  0.1088
32472SOL    HW197994   2.061   7.241   2.042 -0.7134 -0.6785  0.6680
32472SOL    HW297995   2.167   7.196   1.944 -0.4746  0.8556  0.1947
32473SOL     OW97996   6.865   8.269   0.551 -0.0053 -0.1645  0.0253
32473SOL    HW197997   6.874   8.197   0.614  2.9053  0.5435  0.5741
32473SOL    HW297998   6.904   8.236   0.470  1.3900  0.7441  0.2942
32474SOL     OW97999   2.260   8.705   3.852  0.4995 -0.0725 -0.4760
32474SOL    HW198000   2.168   8.714   3.824  0.3393  0.3545  0.1715
32474SOL    HW298001   2.301   8.786   3.823  1.0025 -0.8096 -1.9440
32475SOL     OW98002   3.997   1.196   2.627 -0.5761  0.2435 -0.5925
32475SOL    HW198003   3.943   1.225   2.553 -0.9345 -1.3632 -0.9855
32475SOL    HW298004   4.081   1.173   2.588 -0.1181  1.1924 -0.2059
32476SOL     OW98005   7.144   8.569   9.169  0.1076  0.2878 -0.3600
32476SOL    HW198006   7.185   8.573   9.256  1.3345 -1.5310 -0.8235
32476SOL    HW298007   7.212   8.599   9.109 -0.4287  0.6168 -0.8139
32477SOL     OW98008   8.003   7.143   4.965 -0.5057 -0.0842  0.0600
32477SOL    HW198009   7.953   7.199   4.906 -0.0736  0.2869  0.0398
32477SOL    HW298010   8.083   7.193   4.984 -0.3945 -0.4282  0.5280
32478SOL     OW98011   6.628   6.776   9.532  0.2876  0.4755  0.4977
32478SOL    HW198012   6.546   6.727   9.532 -0.9982  2.5046 -1.1374
32478SOL    HW298013   6.619   6.837   9.605 -0.3495  1.7366 -0.6123
32479SOL     OW98014   3.601   1.740   6.854 -0.5062 -0.1661 -0.9691
32479SOL    HW198015   3.554   1.824   6.858  0.9994  0.6590  0.8065
32479SOL    HW298016   3.688   1.763   6.824 -0.5223 -1.3522 -1.9758
32480SOL     OW98017   5.373   1.715   4.617 -0.1278 -0.6165 -0.4260
32480SOL    HW198018   5.412   1.679   4.537  2.0657  0.0762  0.2705
32480SOL    HW298019   5.398   1.807   4.617  0.9915 -0.8640  1.6329
32481SOL     OW98020   3.392   3.865   6.899 -0.0401  0.1261 -0.0413
32481SOL    HW198021   3.450   3.790   6.912 -0.3666  0.1643  1.8621
32481SOL    HW298022   3.408   3.921   6.975 -0.7654  1.3493 -0.7628
32482SOL     OW98023   0.688   5.466   6.017 -0.1360 -0.2603 -0.1328
32482SOL    HW198024   0.653   5.500   5.934  2.0110  0.0805 -0.9841
32482SOL    HW298025   0.628   5.397   6.043 -1.9453  0.9454 -0.9355
32483SOL     OW98026   4.603   8.661   4.582  0.0350 -0.3529 -0.2743
32483SOL    HW198027   4.547   8.588   4.611 -1.7164  0.1807 -2.0733
32483SOL    HW298028   4.618   8.712   4.661 -1.9653 -0.6009  0.3244
32484SOL     OW98029   0.347   4.772   7.721 -0.5855  0.0759 -0.0329
32484SOL    HW198030   0.377   4.793   7.632  1.8070  0.3776  0.7747
32484SOL    HW298031   0.295   4.693   7.711 -0.6884  0.3263 -1.7528
32485SOL     OW98032   7.430   0.117   4.365  0.2453  0.0224 -0.3178
32485SOL    HW198033   7.417   0.181   4.435 -0.4178  0.8099 -1.1287
32485SOL    HW298034   7.344   0.077   4.352  0.2558  0.1990 -0.9686
32486SOL     OW98035   9.873   1.505   6.693  0.3439  0.0148  0.7954
32486SOL    HW198036   9.911   1.505   6.781 -0.7408  0.6312  1.2797
32486SOL    HW298037   9.892   1.593   6.660 -1.2691  0.5999  1.3348
32487SOL     OW98038   1.308   0.687   5.235  0.0785 -0.4527 -0.2877
32487SOL    HW198039   1.267   0.612   5.191  0.2420 -0.1222 -1.0142
32487SOL    HW298040   1.357   0.648   5.308  1.1834 -1.2019 -1.3924
32488SOL     OW98041   4.588   7.618   9.074  0.5976 -0.6357 -0.3438
32488SOL    HW198042   4.612   7.702   9.113 -0.1325  0.2188 -1.6537
32488SOL    HW298043   4.510   7.637   9.021  0.6051 -2.0667 -0.9174
32489SOL     OW98044   7.224   2.925   1.869  0.3332  0.2667 -0.2975
32489SOL    HW198045   7.132   2.915   1.893  0.9283  1.2465  2.9189
32489SOL    HW298046   7.248   3.013   1.900  2.3558  0.0457 -1.0469
32490SOL     OW98047   4.599   2.765   8.404 -0.0300  0.2466  0.2018
32490SOL    HW198048   4.601   2.746   8.498  2.4700 -1.1425 -0.0296
32490SOL    HW298049   4.672   2.825   8.390 -0.0038 -0.0190 -0.9205
32491SOL     OW98050   9.244   7.510   2.247  0.0283 -0.0891  0.0358
32491SOL    HW198051   9.285   7.596   2.233  0.3614 -0.2641 -0.0880
32491SOL    HW298052   9.289   7.475   2.324 -2.5179  1.3076  2.3481
32492SOL     OW98053   8.020   2.740   5.990 -0.2115  0.3322  0.3356
32492SOL    HW198054   8.011   2.660   6.042  0.9400  0.4796  0.7821
32492SOL    HW298055   7.990   2.715   5.903  1.6386 -1.0572  0.0522
32493SOL     OW98056   2.293   7.261   4.294 -0.1079 -0.5836 -0.2249
32493SOL    HW198057   2.330   7.349   4.302 -0.6590 -0.2168 -1.4135
32493SOL    HW298058   2.358   7.213   4.243 -0.6650 -0.2829 -1.2638
32494SOL     OW98059   7.276   6.699   0.210 -0.5225  0.3006  0.2920
32494SOL    HW198060   7.281   6.763   0.281 -1.0858  0.8187 -0.1216
32494SOL    HW298061   7.318   6.621   0.245  0.5337  1.0185  0.6624
32495SOL     OW98062   9.050   8.154   3.662 -0.6579 -0.2525 -0.0144
32495SOL    HW198063   9.118   8.179   3.599 -1.2191 -1.4996 -1.1594
32495SOL    HW298064   9.019   8.238   3.698  1.8468  0.3312  1.0090
32496SOL     OW98065   5.287   1.834   7.268  0.0740  0.6488 -0.6639
32496SOL    HW198066   5.376   1.865   7.283 -0.2359  1.2321  0.0096
32496SOL    HW298067   5.295   1.738   7.267  0.7444  0.7022 -0.8901
32497SOL     OW98068   6.879   2.500   3.134 -0.0832  0.1057 -0.0428
32497SOL    HW198069   6.869   2.414   3.174 -1.0458 -0.6170 -1.7193
32497SOL    HW298070   6.933   2.549   3.195  1.1306 -1.9222  0.6082
32498SOL     OW98071   9.461   8.910   6.642  0.0440  0.0347  0.7497
32498SOL    HW198072   9.392   8.854   6.677 -0.2097  0.9504  1.7883
32498SOL    HW298073   9.417   8.966   6.578 -0.1219  0.4020  1.1797
32499SOL     OW98074   2.363   0.225   5.890 -0.2492  0.0496 -0.4112
32499SOL    HW198075   2.286   0.213   5.834  0.5765  0.7508 -1.7282
32499SOL    HW298076   2.386   0.317   5.880 -0.5443  0.4065  1.7417
32500SOL     OW98077   7.522   9.355   6.817  0.3955  0.4625  0.2032
32500SOL    HW198078   7.543   9.403   6.736 -1.2206  1.3053  0.2522
32500SOL    HW298079   7.604   9.312   6.840  0.9246  0.2250 -1.8655
32501SOL     OW98080   3.774   7.939   4.385  0.4864  0.2026 -0.2972
32501SOL    HW198081   3.685   7.921   4.415  0.6909  0.6731  0.6172
32501SOL    HW298082   3.785   8.033   4.398  0.9671  0.2252 -0.8285
32502SOL     OW98083   1.256   2.380   0.929  0.4858  0.5372 -0.0383
32502SOL    HW198084   1.326   2.355   0.989  0.7034  0.4330 -0.3300
32502SOL    HW298085   1.198   2.435   0.981  0.2197 -0.2403  0.5001
32503SOL     OW98086   7.575   7.196   6.810 -0.3896 -0.4919 -0.0830
32503SOL    HW198087   7.669   7.182   6.823 -0.5386 -1.1128  0.3562
32503SOL    HW298088   7.569   7.242   6.726  0.3464  0.1151  0.1910
32504SOL     OW98089   9.291   7.927   8.724  0.4864 -0.3707  0.8493
32504SOL    HW198090   9.248   7.907   8.807 -1.7597 -2.2558 -0.6295
32504SOL    HW298091   9.286   7.845   8.674  0.4283  1.0673 -1.6736
32505SOL     OW98092   7.453   1.170   1.441 -0.4051  0.4363  0.1843
32505SOL    HW198093   7.484   1.223   1.514  0.6509 -0.1240  0.1620
32505SOL    HW298094   7.451   1.230   1.366 -4.2261  1.8215  1.1249
32506SOL     OW98095   4.868   2.957   9.244  0.3288 -0.1799 -0.1652
32506SOL    HW198096   4.821   2.998   9.317  1.6414 -0.9331  1.1769
32506SOL    HW298097   4.810   2.888   9.213 -0.3955  0.3776 -0.0830
32507SOL     OW98098   8.973   7.064   2.815 -0.3691  0.0054 -0.1057
32507SOL    HW198099   8.885   7.098   2.830 -0.6017 -0.9804  0.9267
32507SOL    HW298100   9.031   7.137   2.837 -0.8272 -0.3623  2.7605
32508SOL     OW98101   9.166   5.980   1.427  0.0653  0.3576 -0.2027
32508SOL    HW198102   9.257   6.007   1.438 -0.5082  2.1758  0.4749
32508SOL    HW298103   9.130   5.980   1.516 -0.0726 -2.5473 -0.1740
32509SOL     OW98104   8.848   0.218   8.797 -0.0059 -0.4404  0.6755
32509SOL    HW198105   8.885   0.269   8.725 -0.5376 -0.4226  0.4107
32509SOL    HW298106   8.814   0.283   8.858  0.1460 -0.4629  0.7855
32510SOL     OW98107   9.299   1.234   8.158  0.8037 -0.3925 -0.3581
32510SOL    HW198108   9.342   1.217   8.242 -1.0317 -1.2007  0.4765
32510SOL    HW298109   9.273   1.326   8.163 -0.8792 -0.8692  0.7992
32511SOL     OW98110   3.715   9.872   7.248  0.1095 -0.1441  0.2211
32511SOL    HW198111   3.801   9.902   7.221 -0.2510  0.2249 -0.5439
32511SOL    HW298112   3.704   9.787   7.206  0.4804 -0.6321  1.0915
32512SOL     OW98113   2.538   5.550   3.821  0.0378  0.1985 -0.2096
32512SOL    HW198114   2.546   5.645   3.826 -0.1113  0.1641  0.8860
32512SOL    HW298115   2.503   5.524   3.907 -1.5794 -0.6766 -1.0791
32513SOL     OW98116   0.525   1.425   0.575  0.3114  0.2208  0.2385
32513SOL    HW198117   0.532   1.479   0.496  1.2105  1.1025  0.9084
32513SOL    HW298118   0.432   1.404   0.582  0.3998 -1.3196 -1.9969
32514SOL     OW98119   6.094   7.139   1.541  0.5584 -0.4068 -0.2203
32514SOL    HW198120   6.112   7.069   1.604  0.3957 -0.4824 -0.2592
32514SOL    HW298121   6.069   7.093   1.461  1.7123 -0.3384 -0.6397
32515SOL     OW98122   5.077   4.177   0.801  0.6333  0.5412  0.2344
32515SOL    HW198123   5.053   4.132   0.720  0.5561 -0.1034  0.6051
32515SOL    HW298124   5.045   4.266   0.790  1.9407  0.8987 -1.0575
32516SOL     OW98125   6.155   8.502   5.105 -0.2468 -0.3491  0.3505
32516SOL    HW198126   6.228   8.464   5.056 -0.7797  0.3121 -1.0280
32516SOL    HW298127   6.195   8.542   5.182  0.7079 -0.8892  0.1513
32517SOL     OW98128   2.966   5.965   4.194  0.0300  0.0278 -0.2259
32517SOL    HW198129   2.898   5.901   4.173 -1.3461  1.7078 -1.1595
32517SOL    HW298130   2.918   6.047   4.206  1.7413  0.9320  0.7937
32518SOL     OW98131   4.882   5.824   4.759 -0.5109  0.0860 -0.0635
32518SOL    HW198132   4.968   5.782   4.757  0.4176  1.9038 -1.1320
32518SOL    HW298133   4.875   5.861   4.847  0.0738  0.4324 -0.1572
32519SOL     OW98134   7.690   1.234   7.135  0.1600 -0.2561  0.1452
32519SOL    HW198135   7.626   1.295   7.171 -0.8384 -1.8459  1.1683
32519SOL    HW298136   7.734   1.197   7.211  0.6598 -0.9031 -0.4427
32520SOL     OW98137   2.990   5.780   2.487  0.2871  0.3729  0.0692
32520SOL    HW198138   2.898   5.787   2.512 -0.0723  1.5965 -1.4669
32520SOL    HW298139   3.037   5.776   2.570 -1.1520 -0.6224  0.8773
32521SOL     OW98140   4.666   4.993   9.459 -0.2404 -0.2693  0.1567
32521SOL    HW198141   4.707   4.917   9.418 -1.2160  0.1596 -1.7435
32521SOL    HW298142   4.602   4.955   9.520  0.2675 -0.9389  0.2930
32522SOL     OW98143   6.230   9.090   0.775  0.1330 -0.2740  0.3704
32522SOL    HW198144   6.143   9.068   0.806 -0.0542  0.2291  0.2091
32522SOL    HW298145   6.282   9.102   0.855 -0.2869  0.7729  0.4992
32523SOL     OW98146   6.653   7.190   8.197 -0.2052 -0.0472 -0.4416
32523SOL    HW198147   6.640   7.168   8.289  0.6048  0.3545 -0.2179
32523SOL    HW298148   6.637   7.285   8.193 -1.6806 -0.2962 -1.0047
32524SOL     OW98149   9.051   2.732   9.106 -0.6113  0.2032  0.2053
32524SOL    HW198150   9.064   2.665   9.172 -0.4404  1.1180  1.1191
32524SOL    HW298151   8.957   2.752   9.109 -0.7236 -0.2332 -0.3075
32525SOL     OW98152   4.905   4.025   8.917 -0.3905  0.1619  0.7415
32525SOL    HW198153   4.841   4.091   8.891  0.8357  0.5883 -1.4691
32525SOL    HW298154   4.893   3.954   8.853  0.7336 -0.1205  0.8273
32526SOL     OW98155   9.324   4.896   8.584 -0.2407  0.1142 -0.0618
32526SOL    HW198156   9.277   4.936   8.511 -0.4550 -0.6620 -0.3650
32526SOL    HW298157   9.260   4.837   8.625  0.7867 -1.9901 -1.3090
32527SOL     OW98158   0.111   0.727   1.187 -0.4058  0.3334 -0.1727
32527SOL    HW198159   0.064   0.675   1.253  0.1353 -0.3274 -0.2985
32527SOL    HW298160   0.051   0.728   1.111 -0.0087 -0.9909 -0.5376
32528SOL     OW98161   3.735   5.578   8.545  0.4690  0.3982 -0.1653
32528SOL    HW198162   3.707   5.568   8.454  0.5347  0.2925 -0.1744
32528SOL    HW298163   3.829   5.597   8.539  0.0166  2.9272 -0.2514
32529SOL     OW98164   3.750   6.050   0.604  0.6588 -0.2303 -0.2305
32529SOL    HW198165   3.728   6.142   0.617 -0.5029 -0.3901 -1.0193
32529SOL    HW298166   3.668   6.002   0.619  0.9650 -1.0300 -1.0231
32530SOL     OW98167   3.175   1.187   0.758 -0.2253 -0.3786 -0.1860
32530SOL    HW198168   3.101   1.249   0.756 -0.7218 -0.8069  1.8718
32530SOL    HW298169   3.218   1.205   0.842  1.0439 -1.2533 -0.6230
32531SOL     OW98170   2.689   2.885   0.629 -0.1626 -0.1401 -0.4544
32531SOL    HW198171   2.625   2.857   0.564  1.0647  0.7876 -2.1325
32531SOL    HW298172   2.710   2.975   0.605  0.8761 -0.0186  0.8000
32532SOL     OW98173   5.839   6.410   4.196  0.4088 -0.1545 -0.3756
32532SOL    HW198174   5.801   6.409   4.108 -0.3560 -1.4141 -0.0657
32532SOL    HW298175   5.769   6.445   4.251  0.4046 -0.6103 -0.0855
32533SOL     OW98176   9.938   8.835   2.046  0.1534  0.6038  0.2520
32533SOL    HW198177   9.853   8.800   2.019  0.5459 -0.8935  0.8655
32533SOL    HW298178   9.917   8.918   2.089 -1.0152  0.1908  0.5264
32534SOL     OW98179   7.728   7.763   7.747 -0.0503 -0.0792 -0.3164
32534SOL    HW198180   7.715   7.728   7.835 -0.5791  0.2254 -0.2671
32534SOL    HW298181   7.785   7.699   7.704  0.3931 -0.1220  0.3089
32535SOL     OW98182   6.478   8.574   3.103  0.3089 -0.1867  0.3474
32535SOL    HW198183   6.549   8.515   3.128  1.2162  1.3852  1.6801
32535SOL    HW298184   6.398   8.525   3.125  1.0356 -0.2728  3.2266
32536SOL     OW98185   6.249   9.383   0.820  0.1953 -0.0494 -0.2012
32536SOL    HW198186   6.171   9.350   0.863  0.6543 -0.7438  0.1095
32536SOL    HW298187   6.298   9.305   0.793  1.5853  0.3326  1.0737
32537SOL     OW98188   9.804   1.338   3.036 -0.2998  0.8104 -0.1951
32537SOL    HW198189   9.854   1.329   3.117  1.0666  2.5208 -0.7855
32537SOL    HW298190   9.736   1.402   3.056 -1.3520 -0.3733  0.1671
32538SOL     OW98191   0.550   2.836   3.264  0.2023 -0.4240 -0.2019
32538SOL    HW198192   0.539   2.822   3.170 -2.2335 -0.7878  0.0745
32538SOL    HW298193   0.506   2.919   3.282  0.9584 -0.1738  0.5891
32539SOL     OW98194   8.276   8.917   0.012  0.4565  0.5773  0.1180
32539SOL    HW198195   8.201   8.927   0.071  1.2696  0.4146  1.2074
32539SOL    HW298196   8.305   8.827   0.026 -0.0086  0.1689 -1.3692
32540SOL     OW98197   6.551   2.029   3.848 -0.1428  0.1022 -0.2659
32540SOL    HW198198   6.468   1.985   3.861 -0.5166  0.8920  0.1141
32540SOL    HW298199   6.528   2.112   3.805  0.3992  0.4946  0.1750
32541SOL     OW98200   5.101   5.446   4.273  0.4250  0.5771  0.0493
32541SOL    HW198201   5.090   5.360   4.230  2.4181  0.3831 -0.1621
32541SOL    HW298202   5.175   5.434   4.331  0.1416  1.9338  0.7198
32542SOL     OW98203   1.070   4.312   1.599  0.4722 -0.0096 -0.0405
32542SOL    HW198204   1.024   4.348   1.675 -0.7086 -0.5015 -0.4895
32542SOL    HW298205   1.024   4.350   1.524  0.3760 -1.0302 -0.5059
32543SOL     OW98206   4.419   9.818   0.540  0.3523  0.0129 -0.3909
32543SOL    HW198207   4.437   9.887   0.603 -0.4741 -0.0756 -0.0488
32543SOL    HW298208   4.461   9.740   0.577  2.1513  0.5037 -1.2590
32544SOL     OW98209   6.820   1.237   7.963 -0.0600 -0.0237  0.0455
32544SOL    HW198210   6.815   1.194   7.878 -0.9212  1.6328 -0.7884
32544SOL    HW298211   6.772   1.180   8.022 -1.0863 -0.2683 -0.9980
32545SOL     OW98212   7.285   7.905   4.553 -0.2417  0.6063  0.0069
32545SOL    HW198213   7.303   7.811   4.562 -1.3044  0.4941  1.3654
32545SOL    HW298214   7.215   7.911   4.489 -1.6422  0.2516  1.4417
32546SOL     OW98215   1.742   7.596   7.492  0.1000  0.0246  0.6462
32546SOL    HW198216   1.835   7.582   7.512  0.1476  1.0965  1.2462
32546SOL    HW298217   1.740   7.612   7.398  0.6169  0.6961  0.7465
32547SOL     OW98218   8.267   9.372   3.695  0.0634  0.4032  0.2407
32547SOL    HW198219   8.332   9.312   3.731  1.7435  2.5828  1.0266
32547SOL    HW298220   8.192   9.365   3.755  0.4057 -0.5366  0.5735
32548SOL     OW98221   6.526   3.550   2.297 -0.0666 -0.4161 -0.0759
32548SOL    HW198222   6.602   3.545   2.355  0.7186  0.2393 -1.0063
32548SOL    HW298223   6.508   3.459   2.274  0.6345 -0.5619 -0.0726
32549SOL     OW98224   3.577   3.076   3.703 -0.7959  0.1695 -0.4197
32549SOL    HW198225   3.610   3.150   3.653  1.9020  0.3312  1.3595
32549SOL    HW298226   3.534   3.020   3.639 -1.1860  2.3042 -2.1345
32550SOL     OW98227   9.776   8.432   9.873 -0.1141 -0.7203  0.5462
32550SOL    HW198228   9.851   8.391   9.830 -0.2524 -0.2340 -0.1705
32550SOL    HW298229   9.805   8.520   9.894 -0.8681 -0.0808 -0.8947
32551SOL     OW98230   0.739   0.850   2.076  0.8523  0.1109 -0.0233
32551SOL    HW198231   0.748   0.874   1.983 -1.1088  0.0631 -0.2647
32551SOL    HW298232   0.829   0.853   2.110  1.5150  0.9664 -1.7075
32552SOL     OW98233   8.168   8.091   7.749 -0.4208  0.0014 -0.3894
32552SOL    HW198234   8.075   8.080   7.770 -0.3205 -0.7399 -0.3371
32552SOL    HW298235   8.169   8.105   7.654 -0.5071 -0.9670 -0.5377
32553SOL     OW98236   7.905   5.790   1.931 -0.4770 -0.1554 -0.2644
32553SOL    HW198237   7.819   5.828   1.950  0.2719  1.5136 -0.0358
32553SOL    HW298238   7.952   5.795   2.014  0.0785 -0.4079 -0.5573
32554SOL     OW98239   7.927   6.069   2.847  0.7866  0.2559 -0.0818
32554SOL    HW198240   7.983   6.068   2.924  2.0015 -2.1641 -0.8716
32554SOL    HW298241   7.841   6.042   2.878  0.5233  2.0215  0.8199
32555SOL     OW98242   9.563   3.759   5.239 -0.0984 -0.1967  0.0132
32555SOL    HW198243   9.507   3.740   5.315  0.0169  0.4122  0.2557
32555SOL    HW298244   9.646   3.787   5.277  0.6353 -1.7740 -0.3401
32556SOL     OW98245   5.349   3.615   9.924 -0.6614 -0.1603 -0.4417
32556SOL    HW198246   5.360   3.611   9.829  0.7432  1.6637 -0.4155
32556SOL    HW298247   5.376   3.704   9.947 -0.0106 -0.8767  1.7699
32557NA      NA98248   5.520   4.421   7.812  0.0316 -0.1206 -0.8556
32558NA      NA98249   9.374   9.955   7.806 -0.2474  0.0371 -0.0644
32559NA      NA98250   7.206   9.526   5.608 -0.1685  1.0854 -0.0847
32560NA      NA98251   2.153   9.239   2.312 -0.0620 -0.0702  0.6125
32561NA      NA98252   8.371   8.732   2.738 -0.5607 -0.3767 -0.5145
32562NA      NA98253   6.032   9.443   3.049 -0.7418  0.4028 -0.1772
32563NA      NA98254   3.839   0.629   9.847  0.7724 -0.1175  0.0137
32564NA      NA98255   3.967   4.998   4.407  0.1769  0.2001  0.4330
32565NA      NA98256   6.045   4.662   3.629 -0.1166 -0.1771  0.0153
32566NA      NA98257   3.102   0.176   8.277 -0.7374 -0.3188  0.7457
32567NA      NA98258   8.235   0.218   3.835  0.2298 -0.0530  0.1570
32568NA      NA98259   2.516   7.917   5.743  0.1117  0.0017  0.4295
32569NA      NA98260   4.854   3.795   4.353 -0.2056 -0.2751  0.5462
32570NA      NA98261   7.468   4.714   2.686 -0.3935 -0.1672  0.4742
32571NA      NA98262   2.784   1.413   5.453 -0.1036 -0.1460 -0.2538
32572NA      NA98263   7.185   8.166   9.447  0.3574  0.1284  0.1991
32573NA      NA98264   0.775   5.035   8.097  0.0314  0.0303 -0.0669
32574NA      NA98265   3.494   4.949   1.721 -0.5229 -0.3618  0.0933
32575NA      NA98266   5.927   4.633   4.877  0.2736 -0.2961 -0.2752
   9.98081   9.98081   9.98081
